 Gaussian 16, Revision A.03,
 Gaussian 16:  ES64L-G16RevA.03 25-Dec-2016

 ---------------------------------------------------
 #p UM062X/6-311+G** force int=superfine pop=saveNBO
 ---------------------------------------------------

 -------------------
 Title Card Required
 -------------------
 Symbolic Z-matrix:
 Charge =  0 Multiplicity = 1

                         Standard orientation:
 ---------------------------------------------------------------------
 Center     Atomic      Atomic             Coordinates (Angstroms)
 Number     Number       Type             X           Y           Z
 ---------------------------------------------------------------------
      1          6           0        0.000000    0.000000   -0.994903
      2         15           0        0.000000    0.000000    0.535851
      3          1           0        0.000000    0.000000   -2.068342
 ---------------------------------------------------------------------

 SCF Done:  E(UM062X) =  -379.975425314     A.U. after   10 cycles

 The electronic state is 1-SG.
 Alpha  occ. eigenvalues --  -78.02660 -10.57577  -6.85560  -4.96978  -4.96978
 Alpha  occ. eigenvalues --   -4.96927  -0.81042  -0.61526  -0.41934  -0.34090
 Alpha  occ. eigenvalues --   -0.34090
 Alpha virt. eigenvalues --   -0.02030  -0.02030   0.01326   0.03412   0.04813
 Alpha virt. eigenvalues --    0.04813   0.07075   0.11473   0.11473   0.15154
 Alpha virt. eigenvalues --    0.16640   0.23239   0.32776   0.32776   0.39861

  Beta  occ. eigenvalues --  -78.02660 -10.57577  -6.85560  -4.96978  -4.96978
  Beta  occ. eigenvalues --   -4.96927  -0.81042  -0.61526  -0.41934  -0.34090
  Beta  occ. eigenvalues --   -0.34090
  Beta virt. eigenvalues --   -0.02030  -0.02030   0.01326   0.03412   0.04813
  Beta virt. eigenvalues --    0.04813   0.07075   0.11473   0.11473   0.15154
  Beta virt. eigenvalues --    0.16640   0.23239   0.32776   0.32776   0.39861

 Mulliken charges and spin densities:
               1          2
     1  C   -0.249143  -0.000000
     2  P    0.073287  -0.000000
     3  H    0.175857  -0.000000
 Sum of Mulliken charges =  -0.00000  -0.00000

 Dipole moment (field-independent basis, Debye):
    X=              0.0000    Y=              0.0000    Z=             -0.2782  Tot=              0.2782
 Quadrupole moment (field-independent basis, Debye-Ang):
   XX=            -19.9589   YY=            -19.9589   ZZ=            -15.8021
   XY=              0.0000   XZ=              0.0000   YZ=              0.0000

 Summary of Natural Population Analysis:

                                       Natural Population
                Natural  -----------------------------------------------
    Atom  No    Charge         Core      Valence    Rydberg      Total
 -----------------------------------------------------------------------
      C    1   -0.37748      0.99975     2.37274    0.00499     3.37748
      P    2    0.26808      4.99905     2.20976    0.02311     7.23192
      H    3    0.10940      0.00000     0.38914    0.00145     0.39060
 =======================================================================
   * Total *    0.00000      5.99879     4.97165    0.02956    11.00000

 Optimization completed.
    -- Stationary point found.

 1\1\GINC-NODE01\Force\UM062X\6-311+G(d,p)\C1H1P1\SZHAO\16-Apr-2025\0\\
 #p UM062X/6-311+G** force int=superfine pop=saveNBO\\Title Card Requir
 ed\\0,1\C,-0.765377,0.,0.\P,0.765377,0.,0.\H,-1.838816,0.,0.\\Version=
 ES64L-G16RevA.03\State=1-SG\HF=-379.9754253\S2=0.\S2-1=0.\S2A=0.\RMSD=
 7.983e-09\RMSF=6.565e-05\Dipole=-0.109449,0.,0.\Quadrupole=2.0603313,-
 1.0301656,-1.0301656,0.,0.,0.\PG=C*V [C*(H1C1P1)]\\@

 Normal termination of Gaussian 16 at Wed Apr 16 03:43:24 2025.
