 Gaussian 16, Revision A.03,
 Gaussian 16:  ES64L-G16RevA.03 25-Dec-2016

 --------------------------------------------
 #p opt UM062X/6-311+G** nosymm int=superfine
 --------------------------------------------

 -------------------
 Title Card Required
 -------------------
 Symbolic Z-matrix:
 Charge =  0 Multiplicity = 1

 SCF Done:  E(UM062X) =  -78.3401923791     A.U. after    8 cycles
 SCF Done:  E(UM062X) =  -78.3792471056     A.U. after    8 cycles
 SCF Done:  E(UM062X) =  -78.4079120421     A.U. after    9 cycles
 SCF Done:  E(UM062X) =  -78.4154553354     A.U. after    8 cycles
 SCF Done:  E(UM062X) =  -78.4160834322     A.U. after    8 cycles
 SCF Done:  E(UM062X) =  -78.4160887189     A.U. after    7 cycles
 Optimization completed.
    -- Stationary point found.

                          Input orientation:
 ---------------------------------------------------------------------
 Center     Atomic      Atomic             Coordinates (Angstroms)
 Number     Number       Type             X           Y           Z
 ---------------------------------------------------------------------
      1          6           0       -0.941278    0.000000    0.000000
      2          6           0        0.941278    0.000000    0.000000
      3          1           0       -1.423124   -0.964974   -0.000000
      4          1           0       -1.423124    0.964968    0.000000
      5          1           0        1.423124    0.964974   -0.000000
      6          1           0        1.423124   -0.964968    0.000000
 ---------------------------------------------------------------------

 Alpha  occ. eigenvalues --  -10.60240 -10.60222  -0.78285  -0.70711  -0.52944
 Alpha  occ. eigenvalues --   -0.48800  -0.39790  -0.27013
 Alpha virt. eigenvalues --   -0.05233   0.02780   0.03364   0.05394   0.07452
 Alpha virt. eigenvalues --    0.08919   0.09815   0.11523   0.12779   0.15557
 Alpha virt. eigenvalues --    0.16553   0.21141   0.21413   0.28525   0.40164

  Beta  occ. eigenvalues --  -10.60240 -10.60222  -0.78285  -0.70711  -0.52944
  Beta  occ. eigenvalues --   -0.48800  -0.39790  -0.27013
  Beta virt. eigenvalues --   -0.05233   0.02780   0.03364   0.05394   0.07452
  Beta virt. eigenvalues --    0.08919   0.09815   0.11523   0.12779   0.15557
  Beta virt. eigenvalues --    0.16553   0.21141   0.21413   0.28525   0.40164

 Mulliken charges and spin densities:
               1          2
     1  C   -0.351577   0.000000
     2  C   -0.351577  -0.000000
     3  H    0.175788  -0.000000
     4  H    0.175788  -0.000000
     5  H    0.175788   0.000000
     6  H    0.175788  -0.000000
 Sum of Mulliken charges =  -0.00000   0.00000

 Dipole moment (field-independent basis, Debye):
    X=              0.0000    Y=             -0.0000    Z=              0.0000  Tot=              0.0000
 Quadrupole moment (field-independent basis, Debye-Ang):
   XX=            -11.4748   YY=            -12.1419   ZZ=            -17.8545
   XY=              0.0000   XZ=              0.0000   YZ=              0.0000

 Normal termination of Gaussian 16 at Tue Nov 19 10:57:16 2024.
