 Gaussian 16, Revision A.03,
 Gaussian 16:  ES64L-G16RevA.03 25-Dec-2016

 --------------------------------------------
 #p opt UM062X/6-311+G** nosymm int=superfine
 --------------------------------------------

 -------------------
 Title Card Required
 -------------------
 Symbolic Z-matrix:
 Charge =  0 Multiplicity = 1

 SCF Done:  E(UM062X) =  -582.418740566     A.U. after   10 cycles
 SCF Done:  E(UM062X) =  -582.420505153     A.U. after    8 cycles
 SCF Done:  E(UM062X) =  -582.420866669     A.U. after    8 cycles
 Optimization completed.
    -- Stationary point found.

                          Input orientation:
 ---------------------------------------------------------------------
 Center     Atomic      Atomic             Coordinates (Angstroms)
 Number     Number       Type             X           Y           Z
 ---------------------------------------------------------------------
      1         14           0       -1.894819    0.000000    0.000000
      2         14           0        1.894819    0.000000    0.000000
      3          1           0        2.319276   -1.413449   -0.000057
      4          1           0       -2.319282   -0.706604    1.224161
      5          1           0        2.319390    0.706777   -1.224023
      6          1           0        2.319289    0.706657    1.224128
      7          1           0       -2.319280    1.413448   -0.000115
      8          1           0       -2.319396   -0.706831   -1.223991
 ---------------------------------------------------------------------

 Alpha  occ. eigenvalues --  -67.01577 -67.01577  -5.56418  -5.56417  -3.87638
 Alpha  occ. eigenvalues --   -3.87638  -3.87438  -3.87438  -3.87438  -3.87438
 Alpha  occ. eigenvalues --   -0.61081  -0.60333  -0.41806  -0.41805  -0.41567
 Alpha  occ. eigenvalues --   -0.41567  -0.24299
 Alpha virt. eigenvalues --   -0.07747   0.02171   0.02912   0.02912   0.03520
 Alpha virt. eigenvalues --    0.05308   0.05308   0.05359   0.07193   0.07214
 Alpha virt. eigenvalues --    0.07214   0.09008   0.09008   0.13598   0.16617

  Beta  occ. eigenvalues --  -67.01577 -67.01577  -5.56418  -5.56417  -3.87638
  Beta  occ. eigenvalues --   -3.87638  -3.87438  -3.87438  -3.87438  -3.87438
  Beta  occ. eigenvalues --   -0.61081  -0.60333  -0.41806  -0.41805  -0.41567
  Beta  occ. eigenvalues --   -0.41567  -0.24299
  Beta virt. eigenvalues --   -0.07747   0.02171   0.02912   0.02912   0.03520
  Beta virt. eigenvalues --    0.05308   0.05308   0.05359   0.07193   0.07214
  Beta virt. eigenvalues --    0.07214   0.09008   0.09008   0.13598   0.16617

 Mulliken charges and spin densities:
               1          2
     1  Si   0.278481   0.000000
     2  Si   0.278481  -0.000000
     3  H   -0.092827   0.000000
     4  H   -0.092827  -0.000000
     5  H   -0.092827  -0.000000
     6  H   -0.092827  -0.000000
     7  H   -0.092827  -0.000000
     8  H   -0.092827  -0.000000
 Sum of Mulliken charges =  -0.00000  -0.00000

 Dipole moment (field-independent basis, Debye):
    X=              0.0000    Y=             -0.0000    Z=              0.0000  Tot=              0.0000
 Quadrupole moment (field-independent basis, Debye-Ang):
   XX=            -29.2255   YY=            -31.9803   ZZ=            -31.9803
   XY=             -0.0000   XZ=              0.0000   YZ=              0.0000

 Normal termination of Gaussian 16 at Mon Apr 21 20:20:15 2025.
