 Gaussian 16, Revision A.03,
 Gaussian 16:  ES64L-G16RevA.03 25-Dec-2016

 --------------------------------------------
 #p opt UM062X/6-311+G** nosymm int=superfine
 --------------------------------------------

 -------------------
 Title Card Required
 -------------------
 Symbolic Z-matrix:
 Charge =  0 Multiplicity = 1

 SCF Done:  E(UM062X) =  -76.0148333425     A.U. after    9 cycles
 SCF Done:  E(UM062X) =  -76.2846464372     A.U. after    9 cycles
 SCF Done:  E(UM062X) =  -76.4385971624     A.U. after   11 cycles
 SCF Done:  E(UM062X) =  -76.4397014839     A.U. after    9 cycles
 SCF Done:  E(UM062X) =  -76.4397297599     A.U. after    7 cycles
 Optimization completed.
    -- Stationary point found.

                          Input orientation:
 ---------------------------------------------------------------------
 Center     Atomic      Atomic             Coordinates (Angstroms)
 Number     Number       Type             X           Y           Z
 ---------------------------------------------------------------------
      1          6           0       -0.389035    0.000000    0.000000
      2          6           0        0.389035    0.000000    0.000000
      3          1           0       -1.444765   -0.000000    0.000000
      4          1           0        1.444763   -0.000000    0.000000
 ---------------------------------------------------------------------

 Alpha  occ. eigenvalues --  -10.52088 -10.42768  -0.86910  -0.57735  -0.53964
 Alpha  occ. eigenvalues --   -0.47644  -0.47644
 Alpha virt. eigenvalues --    0.02979   0.03827   0.06686   0.06686   0.08540
 Alpha virt. eigenvalues --    0.08540   0.10073   0.17162   0.23770   0.25262
 Alpha virt. eigenvalues --    0.27039   0.27039   0.44865   0.50608   0.50681

  Beta  occ. eigenvalues --  -10.52088 -10.42768  -0.86910  -0.57735  -0.53964
  Beta  occ. eigenvalues --   -0.47644  -0.47644
  Beta virt. eigenvalues --    0.02979   0.03827   0.06686   0.06686   0.08540
  Beta virt. eigenvalues --    0.08540   0.10073   0.17162   0.23770   0.25262
  Beta virt. eigenvalues --    0.27039   0.27039   0.44865   0.50608   0.50681

 Mulliken charges and spin densities:
               1          2
     1  C   -0.089777  -0.000000
     2  C   -0.089778   0.000000
     3  H    0.089778   0.000000
     4  H    0.089777   0.000000
 Sum of Mulliken charges =  -0.00000   0.00000

 Dipole moment (field-independent basis, Debye):
    X=             -0.0000    Y=             -0.0000    Z=              0.0000  Tot=              0.0000
 Quadrupole moment (field-independent basis, Debye-Ang):
   XX=             -8.1058   YY=            -11.4296   ZZ=            -11.4296
   XY=              0.0000   XZ=             -0.0000   YZ=             -0.0000

 Normal termination of Gaussian 16 at Tue Dec  3 19:53:03 2024.
