 Gaussian 16, Revision A.03,
 Gaussian 16:  ES64L-G16RevA.03 25-Dec-2016

 --------------------------------------------
 #p opt UM062X/6-311+G** nosymm int=superfine
 --------------------------------------------

 -------------------
 Title Card Required
 -------------------
 Symbolic Z-matrix:
 Charge =  0 Multiplicity = 1

 SCF Done:  E(UM062X) =  -797.521822983     A.U. after   12 cycles
 SCF Done:  E(UM062X) =  -797.523108272     A.U. after   11 cycles
 SCF Done:  E(UM062X) =  -797.523013444     A.U. after   12 cycles
 SCF Done:  E(UM062X) =  -797.523261757     A.U. after   11 cycles
 SCF Done:  E(UM062X) =  -797.523261836     A.U. after    9 cycles
 Optimization completed.
    -- Stationary point found.

                          Input orientation:
 ---------------------------------------------------------------------
 Center     Atomic      Atomic             Coordinates (Angstroms)
 Number     Number       Type             X           Y           Z
 ---------------------------------------------------------------------
      1         16           0       -1.268191    0.000000    0.000000
      2         16           0        1.268191    0.000000    0.000000
      3          1           0       -1.305709   -1.342497   -0.042106
      4          1           0        1.305783    0.080993    1.340751
 ---------------------------------------------------------------------

 Alpha  occ. eigenvalues --  -89.93976 -89.93976  -8.30176  -8.30173  -6.22328
 Alpha  occ. eigenvalues --   -6.22325  -6.22070  -6.22070  -6.21545  -6.21545
 Alpha  occ. eigenvalues --   -0.84697  -0.78545  -0.48300  -0.47176  -0.38779
 Alpha  occ. eigenvalues --   -0.33242  -0.32795
 Alpha virt. eigenvalues --   -0.10560   0.01749   0.03367   0.04824   0.05051
 Alpha virt. eigenvalues --    0.06078   0.07517   0.07578   0.07691   0.12308
 Alpha virt. eigenvalues --    0.13505   0.31058   0.31172   0.32513   0.34394

  Beta  occ. eigenvalues --  -89.93976 -89.93976  -8.30176  -8.30173  -6.22328
  Beta  occ. eigenvalues --   -6.22325  -6.22070  -6.22070  -6.21545  -6.21545
  Beta  occ. eigenvalues --   -0.84697  -0.78545  -0.48300  -0.47176  -0.38779
  Beta  occ. eigenvalues --   -0.33242  -0.32795
  Beta virt. eigenvalues --   -0.10560   0.01749   0.03367   0.04824   0.05051
  Beta virt. eigenvalues --    0.06078   0.07517   0.07578   0.07691   0.12308
  Beta virt. eigenvalues --    0.13505   0.31058   0.31172   0.32513   0.34394

 Mulliken charges and spin densities:
               1          2
     1  S   -0.089971   0.000000
     2  S   -0.089974  -0.000000
     3  H    0.089970  -0.000000
     4  H    0.089975  -0.000000
 Sum of Mulliken charges =   0.00000  -0.00000

 Dipole moment (field-independent basis, Debye):
    X=              0.0001    Y=             -0.9930    Z=              1.0222  Tot=              1.4252
 Quadrupole moment (field-independent basis, Debye-Ang):
   XX=            -26.1656   YY=            -27.6451   ZZ=            -27.6671
   XY=              1.8720   XZ=              1.8187   YZ=              0.3803

 Normal termination of Gaussian 16 at Mon Apr 21 21:15:37 2025.
