 Gaussian 16, Revision A.03,
 Gaussian 16:  ES64L-G16RevA.03 25-Dec-2016

 --------------------------------------------
 #p opt UM062X/6-311+G** nosymm int=superfine
 --------------------------------------------

 -------------------
 Title Card Required
 -------------------
 Symbolic Z-matrix:
 Charge =  1 Multiplicity = 2

 SCF Done:  E(UM062X) =  -582.145388968     A.U. after   11 cycles
 SCF Done:  E(UM062X) =  -582.146002823     A.U. after    9 cycles
 SCF Done:  E(UM062X) =  -582.146112869     A.U. after    8 cycles
 Optimization completed.
    -- Stationary point found.

                          Input orientation:
 ---------------------------------------------------------------------
 Center     Atomic      Atomic             Coordinates (Angstroms)
 Number     Number       Type             X           Y           Z
 ---------------------------------------------------------------------
      1         14           0       -2.076292    0.000000    0.000000
      2         14           0        2.076292    0.000000    0.000000
      3          1           0        2.206758   -1.458932   -0.000004
      4          1           0       -2.206232   -0.729353    1.263580
      5          1           0        2.206752    0.729504   -1.263438
      6          1           0        2.206038    0.729443    1.263549
      7          1           0       -2.206783    1.458930   -0.000119
      8          1           0       -2.206531   -0.729598   -1.263408
 ---------------------------------------------------------------------

 Alpha  occ. eigenvalues --  -67.22960 -67.22960  -5.77787  -5.77785  -4.09465
 Alpha  occ. eigenvalues --   -4.09465  -4.08658  -4.08658  -4.08658  -4.08658
 Alpha  occ. eigenvalues --   -0.81634  -0.80978  -0.61875  -0.61874  -0.61675
 Alpha  occ. eigenvalues --   -0.61675  -0.42482
 Alpha virt. eigenvalues --   -0.29031  -0.12824  -0.11967  -0.10176  -0.10176
 Alpha virt. eigenvalues --   -0.09935  -0.08903  -0.08903  -0.07799  -0.07680
 Alpha virt. eigenvalues --   -0.07680  -0.06285  -0.06284  -0.04521   0.00789

  Beta  occ. eigenvalues --  -67.22698 -67.22697  -5.77709  -5.77707  -4.08850
  Beta  occ. eigenvalues --   -4.08849  -4.08568  -4.08568  -4.08568  -4.08568
  Beta  occ. eigenvalues --   -0.79816  -0.79429  -0.61721  -0.61721  -0.61516
  Beta  occ. eigenvalues --   -0.61516
  Beta virt. eigenvalues --   -0.30996  -0.22682  -0.14500  -0.12731  -0.12729
  Beta virt. eigenvalues --   -0.10992  -0.10745  -0.09355  -0.09354  -0.07252
  Beta virt. eigenvalues --   -0.07252  -0.07113  -0.05956  -0.05956  -0.05207

 Mulliken charges and spin densities:
               1          2
     1  Si   0.497156   0.549262
     2  Si   0.497156   0.549262
     3  H    0.000962  -0.016412
     4  H    0.000938  -0.016425
     5  H    0.000948  -0.016427
     6  H    0.000934  -0.016424
     7  H    0.000963  -0.016412
     8  H    0.000944  -0.016425
 Sum of Mulliken charges =   1.00000   1.00000

 Dipole moment (field-independent basis, Debye):
    X=              0.0000    Y=             -0.0000    Z=              0.0000  Tot=              0.0000
 Quadrupole moment (field-independent basis, Debye-Ang):
   XX=              0.2756   YY=            -26.1626   ZZ=            -26.1627
   XY=              0.0002   XZ=              0.0001   YZ=             -0.0000

 Normal termination of Gaussian 16 at Mon Apr 21 20:15:57 2025.
