 Gaussian 16, Revision A.03,
 Gaussian 16:  ES64L-G16RevA.03 25-Dec-2016

 --------------------------------------------
 #p opt UM062X/6-311+G** nosymm int=superfine
 --------------------------------------------

 -------------------
 Title Card Required
 -------------------
 Symbolic Z-matrix:
 Charge =  0 Multiplicity = 1

 SCF Done:  E(UM062X) =  -579.899937798     A.U. after   12 cycles
 SCF Done:  E(UM062X) =  -579.899968686     A.U. after    7 cycles
 Optimization completed.
    -- Stationary point found.

                          Input orientation:
 ---------------------------------------------------------------------
 Center     Atomic      Atomic             Coordinates (Angstroms)
 Number     Number       Type             X           Y           Z
 ---------------------------------------------------------------------
      1         14           0       -1.253705    0.000000    0.000000
      2         14           0        1.253705    0.000000    0.000000
      3          1           0       -2.719181   -0.000044    0.000000
      4          1           0        2.719181    0.000021   -0.000000
 ---------------------------------------------------------------------

 Alpha  occ. eigenvalues --  -67.06445 -67.06445  -5.60620  -5.60617  -3.91813
 Alpha  occ. eigenvalues --   -3.91813  -3.91808  -3.91808  -3.91609  -3.91584
 Alpha  occ. eigenvalues --   -0.60621  -0.56603  -0.41824  -0.23431  -0.23431
 Alpha virt. eigenvalues --   -0.12216  -0.07092  -0.07092   0.01595   0.02099
 Alpha virt. eigenvalues --    0.03591   0.05260   0.05260   0.06878   0.06878
 Alpha virt. eigenvalues --    0.11875   0.12720   0.25599   0.28652   0.28740

  Beta  occ. eigenvalues --  -67.06445 -67.06445  -5.60620  -5.60617  -3.91813
  Beta  occ. eigenvalues --   -3.91813  -3.91808  -3.91808  -3.91609  -3.91584
  Beta  occ. eigenvalues --   -0.60621  -0.56603  -0.41824  -0.23431  -0.23431
  Beta virt. eigenvalues --   -0.12216  -0.07092  -0.07092   0.01595   0.02099
  Beta virt. eigenvalues --    0.03591   0.05260   0.05260   0.06878   0.06878
  Beta virt. eigenvalues --    0.11875   0.12720   0.25599   0.28652   0.28740

 Mulliken charges and spin densities:
               1          2
     1  Si  -0.061250  -0.000000
     2  Si  -0.061250   0.000000
     3  H    0.061250  -0.000000
     4  H    0.061250   0.000000
 Sum of Mulliken charges =  -0.00000   0.00000

 Dipole moment (field-independent basis, Debye):
    X=             -0.0000    Y=             -0.0000    Z=              0.0000  Tot=              0.0000
 Quadrupole moment (field-independent basis, Debye-Ang):
   XX=            -18.7134   YY=            -32.7704   ZZ=            -32.7704
   XY=              0.0004   XZ=             -0.0000   YZ=             -0.0000

 Normal termination of Gaussian 16 at Mon Apr 21 21:23:38 2025.
