 Gaussian 16, Revision A.03,
 Gaussian 16:  ES64L-G16RevA.03 25-Dec-2016

 ---------------------------------------------------
 #p UM062X/6-311+G** force int=superfine pop=saveNBO
 ---------------------------------------------------

 -------------------
 Title Card Required
 -------------------
 Symbolic Z-matrix:
 Charge =  0 Multiplicity = 1

                         Standard orientation:
 ---------------------------------------------------------------------
 Center     Atomic      Atomic             Coordinates (Angstroms)
 Number     Number       Type             X           Y           Z
 ---------------------------------------------------------------------
      1          8           0        0.000000    0.000000   -2.493424
      2         16           0        0.000000    0.000000    1.246712
 ---------------------------------------------------------------------

 SCF Done:  E(UM062X) =  -473.005512823     A.U. after   18 cycles

 Unable to determine electronic state:  partially filled degenerate orbitals.
 Alpha  occ. eigenvalues --  -89.97622 -19.76203  -8.33657  -6.26449  -6.24871
 Alpha  occ. eigenvalues --   -6.24834  -1.05982  -0.77592  -0.44863  -0.44844
 Alpha  occ. eigenvalues --   -0.34822  -0.34709
 Alpha virt. eigenvalues --   -0.19909  -0.19044   0.03521   0.04733   0.05635
 Alpha virt. eigenvalues --    0.05761   0.15113   0.18212   0.18432   0.22805
 Alpha virt. eigenvalues --    0.33479   0.34696   0.35542   0.58543   0.77020

  Beta  occ. eigenvalues --  -89.97622 -19.76203  -8.33657  -6.26449  -6.24871
  Beta  occ. eigenvalues --   -6.24834  -1.05982  -0.77592  -0.44863  -0.44844
  Beta  occ. eigenvalues --   -0.34822  -0.34709
  Beta virt. eigenvalues --   -0.19909  -0.19044   0.03521   0.04733   0.05635
  Beta virt. eigenvalues --    0.05761   0.15113   0.18212   0.18432   0.22805
  Beta virt. eigenvalues --    0.33479   0.34696   0.35542   0.58543   0.77020

 Mulliken charges and spin densities:
               1          2
     1  O   -0.025841   0.000000
     2  S    0.025841  -0.000000
 Sum of Mulliken charges =  -0.00000  -0.00000

 Dipole moment (field-independent basis, Debye):
    X=              0.0000    Y=              0.0000    Z=              0.5799  Tot=              0.5799
 Quadrupole moment (field-independent basis, Debye-Ang):
   XX=            -15.6804   YY=            -21.1113   ZZ=            -19.2690
   XY=              0.0000   XZ=              0.0000   YZ=              0.0000

 Summary of Natural Population Analysis:

                                       Natural Population
                Natural  -----------------------------------------------
    Atom  No    Charge         Core      Valence    Rydberg      Total
 -----------------------------------------------------------------------
      O    1   -0.01465      1.00000     3.01453    0.00012     4.01465
      S    2    0.01465      4.99999     2.98491    0.00045     7.98535
 =======================================================================
   * Total *    0.00000      5.99999     5.99944    0.00057    12.00000

 Normal termination of Gaussian 16 at Mon Apr 21 19:55:36 2025.
