 Gaussian 16, Revision A.03,
 Gaussian 16:  ES64L-G16RevA.03 25-Dec-2016

 ---------------------------------------
 #p UM062X/6-311+G** force int=superfine
 ---------------------------------------

 -------------------
 Title Card Required
 -------------------
 Symbolic Z-matrix:
 Charge =  0 Multiplicity = 1

                         Standard orientation:
 ---------------------------------------------------------------------
 Center     Atomic      Atomic             Coordinates (Angstroms)
 Number     Number       Type             X           Y           Z
 ---------------------------------------------------------------------
      1          6           0        0.000000    0.636357   -0.000000
      2          6           0       -0.000000   -0.636357    0.000000
      3          1           0        0.919369    1.213811   -0.000000
      4          1           0       -0.919218    1.213940   -0.000000
      5          1           0       -0.919369   -1.213811    0.000000
      6          1           0        0.919218   -1.213940    0.000000
 ---------------------------------------------------------------------

 SCF Done:  E(UM062X) =  -78.5599925997     A.U. after    8 cycles

 The electronic state is 1-AG.
 Alpha  occ. eigenvalues --  -10.52998 -10.52836  -0.87441  -0.65754  -0.54749
 Alpha  occ. eigenvalues --   -0.49456  -0.40823  -0.34596
 Alpha virt. eigenvalues --    0.03402   0.03621   0.04129   0.05033   0.07563
 Alpha virt. eigenvalues --    0.08295   0.09736   0.14020   0.16073   0.17469
 Alpha virt. eigenvalues --    0.19790   0.23472   0.31810   0.37391   0.44347

  Beta  occ. eigenvalues --  -10.52998 -10.52836  -0.87441  -0.65754  -0.54749
  Beta  occ. eigenvalues --   -0.49456  -0.40823  -0.34596
  Beta virt. eigenvalues --    0.03402   0.03621   0.04129   0.05033   0.07563
  Beta virt. eigenvalues --    0.08295   0.09736   0.14020   0.16073   0.17469
  Beta virt. eigenvalues --    0.19790   0.23472   0.31810   0.37391   0.44347

 Mulliken charges and spin densities:
               1          2
     1  C   -0.289594   0.000000
     2  C   -0.289594   0.000000
     3  H    0.144788  -0.000000
     4  H    0.144806   0.000000
     5  H    0.144788  -0.000000
     6  H    0.144806   0.000000
 Sum of Mulliken charges =  -0.00000   0.00000

 Dipole moment (field-independent basis, Debye):
    X=             -0.0000    Y=              0.0000    Z=              0.0000  Tot=              0.0000
 Quadrupole moment (field-independent basis, Debye-Ang):
   XX=            -12.3159   YY=            -12.3189   ZZ=            -15.6595
   XY=             -0.0004   XZ=              0.0000   YZ=             -0.0000

 Normal termination of Gaussian 16 at Tue Nov 19 11:43:46 2024.
