 Gaussian 16, Revision A.03,
 Gaussian 16:  ES64L-G16RevA.03 25-Dec-2016

 --------------------------------------------
 #p opt UM062X/6-311+G** nosymm int=superfine
 --------------------------------------------

 -------------------
 Title Card Required
 -------------------
 Symbolic Z-matrix:
 Charge =  1 Multiplicity = 2

 SCF Done:  E(UM062X) =  -582.127044749     A.U. after   11 cycles
 SCF Done:  E(UM062X) =  -582.127882117     A.U. after    9 cycles
 SCF Done:  E(UM062X) =  -582.128278508     A.U. after   10 cycles
 SCF Done:  E(UM062X) =  -582.128280921     A.U. after    8 cycles
 Optimization completed.
    -- Stationary point found.

                          Input orientation:
 ---------------------------------------------------------------------
 Center     Atomic      Atomic             Coordinates (Angstroms)
 Number     Number       Type             X           Y           Z
 ---------------------------------------------------------------------
      1         14           0       -2.801292    0.000000    0.000000
      2         14           0        2.801292    0.000000    0.000000
      3          1           0        2.888068   -1.461311   -0.000026
      4          1           0       -2.887290   -0.730513    1.265662
      5          1           0        2.887843    0.730700   -1.265516
      6          1           0        2.887060    0.730596    1.265630
      7          1           0       -2.888096    1.461309   -0.000156
      8          1           0       -2.887586   -0.730785   -1.265485
 ---------------------------------------------------------------------

 Alpha  occ. eigenvalues --  -67.21346 -67.21346  -5.76215  -5.76215  -4.07915
 Alpha  occ. eigenvalues --   -4.07915  -4.07093  -4.07093  -4.07093  -4.07093
 Alpha  occ. eigenvalues --   -0.79999  -0.79854  -0.60497  -0.60496  -0.60481
 Alpha  occ. eigenvalues --   -0.60480  -0.37459
 Alpha virt. eigenvalues --   -0.30627  -0.11205  -0.11194  -0.09532  -0.08584
 Alpha virt. eigenvalues --   -0.08583  -0.07524  -0.07524  -0.07386  -0.06679
 Alpha virt. eigenvalues --   -0.06679  -0.05833  -0.05832  -0.04906  -0.00160

  Beta  occ. eigenvalues --  -67.21057 -67.21057  -5.76128  -5.76128  -4.07236
  Beta  occ. eigenvalues --   -4.07236  -4.06993  -4.06993  -4.06993  -4.06993
  Beta  occ. eigenvalues --   -0.78255  -0.78216  -0.60427  -0.60426  -0.60412
  Beta  occ. eigenvalues --   -0.60411
  Beta virt. eigenvalues --   -0.28407  -0.23653  -0.15284  -0.10346  -0.10346
  Beta virt. eigenvalues --   -0.10326  -0.09557  -0.08142  -0.08141  -0.07445
  Beta virt. eigenvalues --   -0.06063  -0.06062  -0.05264  -0.05264  -0.05077

 Mulliken charges and spin densities:
               1          2
     1  Si   0.525954   0.569077
     2  Si   0.525954   0.569077
     3  H   -0.008646  -0.023024
     4  H   -0.008655  -0.023026
     5  H   -0.008650  -0.023028
     6  H   -0.008658  -0.023025
     7  H   -0.008646  -0.023024
     8  H   -0.008653  -0.023027
 Sum of Mulliken charges =   1.00000   1.00000

 Dipole moment (field-independent basis, Debye):
    X=             -0.0000    Y=             -0.0000    Z=              0.0000  Tot=              0.0000
 Quadrupole moment (field-independent basis, Debye-Ang):
   XX=             16.1593   YY=            -26.2414   ZZ=            -26.2411
   XY=              0.0008   XZ=              0.0000   YZ=             -0.0000

 Normal termination of Gaussian 16 at Mon Apr 21 20:16:17 2025.
