 Gaussian 16, Revision A.03,
 Gaussian 16:  ES64L-G16RevA.03 25-Dec-2016

 --------------------------------------------
 #p opt UM062X/6-311+G** nosymm int=superfine
 --------------------------------------------

 -------------------
 Title Card Required
 -------------------
 Symbolic Z-matrix:
 Charge =  0 Multiplicity = 1

 SCF Done:  E(UM062X) =  -379.583401275     A.U. after   15 cycles
 SCF Done:  E(UM062X) =  -379.584751971     A.U. after   10 cycles
 SCF Done:  E(UM062X) =  -379.584757418     A.U. after   10 cycles
 Optimization completed.
    -- Stationary point found.

                          Input orientation:
 ---------------------------------------------------------------------
 Center     Atomic      Atomic             Coordinates (Angstroms)
 Number     Number       Type             X           Y           Z
 ---------------------------------------------------------------------
      1          6           0       -1.690377    0.000000    0.000000
      2         15           0        1.690377    0.000000    0.000000
      3          1           0       -2.811746   -0.000000   -0.000000
 ---------------------------------------------------------------------

 Alpha  occ. eigenvalues --  -78.07963 -10.71539  -6.89805  -5.01686  -5.00784
 Alpha  occ. eigenvalues --   -5.00784  -0.76310  -0.60960  -0.42143  -0.24374
 Alpha  occ. eigenvalues --   -0.24374
 Alpha virt. eigenvalues --   -0.14898  -0.14898  -0.11656   0.01190   0.04049
 Alpha virt. eigenvalues --    0.05975   0.05975   0.07628   0.08720   0.08720
 Alpha virt. eigenvalues --    0.13632   0.17219   0.32996   0.32996   0.34145

  Beta  occ. eigenvalues --  -78.07963 -10.71539  -6.89805  -5.01686  -5.00784
  Beta  occ. eigenvalues --   -5.00784  -0.76310  -0.60960  -0.42143  -0.24374
  Beta  occ. eigenvalues --   -0.24374
  Beta virt. eigenvalues --   -0.14898  -0.14898  -0.11656   0.01190   0.04049
  Beta virt. eigenvalues --    0.05975   0.05975   0.07628   0.08720   0.08720
  Beta virt. eigenvalues --    0.13632   0.17219   0.32996   0.32996   0.34145

 Mulliken charges and spin densities:
               1          2
     1  C   -0.147511  -0.000000
     2  P   -0.026262   0.000000
     3  H    0.173773   0.000000
 Sum of Mulliken charges =  -0.00000  -0.00000

 Dipole moment (field-independent basis, Debye):
    X=             -2.5686    Y=             -0.0000    Z=              0.0000  Tot=              2.5686
 Quadrupole moment (field-independent basis, Debye-Ang):
   XX=            -10.4857   YY=            -24.1033   ZZ=            -24.1033
   XY=             -0.0000   XZ=              0.0000   YZ=             -0.0000

 Normal termination of Gaussian 16 at Mon Apr 21 19:30:33 2025.
