 Gaussian 16, Revision A.03,
 Gaussian 16:  ES64L-G16RevA.03 25-Dec-2016

 --------------------------------------------
 #p opt UM062X/6-311+G** nosymm int=superfine
 --------------------------------------------

 -------------------
 Title Card Required
 -------------------
 Symbolic Z-matrix:
 Charge =  0 Multiplicity = 1

 SCF Done:  E(UM062X) =  -79.7925216660     A.U. after    8 cycles
 SCF Done:  E(UM062X) =  -79.7937645213     A.U. after    7 cycles
 SCF Done:  E(UM062X) =  -79.7937813360     A.U. after    7 cycles
 Optimization completed.
    -- Stationary point found.

                          Input orientation:
 ---------------------------------------------------------------------
 Center     Atomic      Atomic             Coordinates (Angstroms)
 Number     Number       Type             X           Y           Z
 ---------------------------------------------------------------------
      1          6           0       -0.725370    0.000000    0.000000
      2          6           0        0.725444    0.000000    0.000000
      3          1           0        1.137901   -0.876555    0.507229
      4          1           0       -1.137814   -0.877555   -0.505513
      5          1           0        1.137889    0.877555    0.505510
      6          1           0        1.137909   -0.000978   -1.012737
      7          1           0       -1.137827    0.876554   -0.507231
      8          1           0       -1.137836    0.000976    1.012736
 ---------------------------------------------------------------------

 Alpha  occ. eigenvalues --  -10.51679 -10.51626  -0.86404  -0.69585  -0.50855
 Alpha  occ. eigenvalues --   -0.50855  -0.44435  -0.39416  -0.39416
 Alpha virt. eigenvalues --    0.02166   0.04150   0.05395   0.05395   0.08818
 Alpha virt. eigenvalues --    0.08818   0.08853   0.14024   0.18913   0.18913
 Alpha virt. eigenvalues --    0.20790   0.20791   0.24115   0.27739   0.31497

  Beta  occ. eigenvalues --  -10.51679 -10.51626  -0.86404  -0.69585  -0.50855
  Beta  occ. eigenvalues --   -0.50855  -0.44435  -0.39416  -0.39416
  Beta virt. eigenvalues --    0.02166   0.04150   0.05395   0.05395   0.08818
  Beta virt. eigenvalues --    0.08818   0.08853   0.14024   0.18913   0.18913
  Beta virt. eigenvalues --    0.20790   0.20791   0.24115   0.27739   0.31497

 Mulliken charges and spin densities:
               1          2
     1  C   -0.462575   0.000000
     2  C   -0.462575  -0.000000
     3  H    0.154192   0.000000
     4  H    0.154191  -0.000000
     5  H    0.154191   0.000000
     6  H    0.154192   0.000000
     7  H    0.154192  -0.000000
     8  H    0.154192  -0.000000
 Sum of Mulliken charges =  -0.00000   0.00000

 Dipole moment (field-independent basis, Debye):
    X=             -0.0000    Y=             -0.0000    Z=             -0.0000  Tot=              0.0000
 Quadrupole moment (field-independent basis, Debye-Ang):
   XX=            -15.6320   YY=            -14.9684   ZZ=            -14.9684
   XY=             -0.0000   XZ=             -0.0000   YZ=             -0.0000

 Normal termination of Gaussian 16 at Tue Nov 19 11:51:56 2024.
