 Gaussian 16, Revision A.03,
 Gaussian 16:  ES64L-G16RevA.03 25-Dec-2016

 -------------------------------------------------------------------
 #p opt UM062X/6-311+G** nosymm int=superfine SCF=NoVarAcc SCF=tight
 -------------------------------------------------------------------

 -------------------
 Title Card Required
 -------------------
 Symbolic Z-matrix:
 Charge =  1 Multiplicity = 2

 SCF Done:  E(UM062X) =  -77.9185233735     A.U. after   10 cycles
 SCF Done:  E(UM062X) =  -77.9228434182     A.U. after    9 cycles
 SCF Done:  E(UM062X) =  -77.9254672203     A.U. after    9 cycles
 SCF Done:  E(UM062X) =  -77.9254708699     A.U. after    7 cycles
 Optimization completed.
    -- Stationary point found.

                          Input orientation:
 ---------------------------------------------------------------------
 Center     Atomic      Atomic             Coordinates (Angstroms)
 Number     Number       Type             X           Y           Z
 ---------------------------------------------------------------------
      1          6           0       -1.596027    0.000000    0.000000
      2          6           0        1.596027    0.000000    0.000000
      3          1           0       -2.156272   -0.940792    0.000000
      4          1           0       -2.156221    0.940821    0.000000
      5          1           0        2.156272    0.940792    0.000000
      6          1           0        2.156221   -0.940821    0.000000
 ---------------------------------------------------------------------

 Alpha  occ. eigenvalues --  -10.89229 -10.89228  -1.00637  -1.00274  -0.75188
 Alpha  occ. eigenvalues --   -0.74998  -0.60434  -0.55802
 Alpha virt. eigenvalues --   -0.32839  -0.31767  -0.13182  -0.10964  -0.09672
 Alpha virt. eigenvalues --   -0.07598  -0.06842  -0.05375  -0.04553  -0.01828
 Alpha virt. eigenvalues --   -0.01052  -0.00236   0.01959   0.07010   0.24357

  Beta  occ. eigenvalues --  -10.88373 -10.88372  -0.98437  -0.97934  -0.74168
  Beta  occ. eigenvalues --   -0.73953  -0.50370
  Beta virt. eigenvalues --   -0.33877  -0.30984  -0.29683  -0.13040  -0.11051
  Beta virt. eigenvalues --   -0.09555  -0.07429  -0.06816  -0.04712  -0.04165
  Beta virt. eigenvalues --   -0.01558  -0.00507   0.00117   0.01998   0.07752

 Mulliken charges and spin densities:
               1          2
     1  C    0.015950   0.485607
     2  C    0.015950   0.485607
     3  H    0.242026   0.007197
     4  H    0.242024   0.007196
     5  H    0.242026   0.007197
     6  H    0.242024   0.007196
 Sum of Mulliken charges =   1.00000   1.00000

 Dipole moment (field-independent basis, Debye):
    X=              0.0000    Y=              0.0000    Z=              0.0000  Tot=              0.0000
 Quadrupole moment (field-independent basis, Debye-Ang):
   XX=             10.2988   YY=             -9.4375   ZZ=            -10.7255
   XY=             -0.0000   XZ=             -0.0000   YZ=             -0.0000

 Normal termination of Gaussian 16 at Tue Dec  3 14:44:58 2024.
