 Gaussian 16, Revision A.03,
 Gaussian 16:  ES64L-G16RevA.03 25-Dec-2016

 --------------------------------------------
 #p opt UM062X/6-311+G** nosymm int=superfine
 --------------------------------------------

 -------------------
 Title Card Required
 -------------------
 Symbolic Z-matrix:
 Charge =  0 Multiplicity = 1

 SCF Done:  E(UM062X) =  -438.552667076     A.U. after   11 cycles
 SCF Done:  E(UM062X) =  -438.563498216     A.U. after   11 cycles
 SCF Done:  E(UM062X) =  -438.566946344     A.U. after   11 cycles
 SCF Done:  E(UM062X) =  -438.566971926     A.U. after    9 cycles
 SCF Done:  E(UM062X) =  -438.566983811     A.U. after    9 cycles
 SCF Done:  E(UM062X) =  -438.566987314     A.U. after    8 cycles
 SCF Done:  E(UM062X) =  -438.566987544     A.U. after    7 cycles
 Optimization completed.
    -- Stationary point found.

                          Input orientation:
 ---------------------------------------------------------------------
 Center     Atomic      Atomic             Coordinates (Angstroms)
 Number     Number       Type             X           Y           Z
 ---------------------------------------------------------------------
      1          6           0       -1.460220    0.000000    0.000000
      2         16           0        1.460220    0.000000    0.000000
      3          1           0        1.430162   -1.343826   -0.000707
      4          1           0       -1.549401    1.077134    0.002733
      5          1           0       -1.577102   -0.530337   -0.934541
      6          1           0       -1.577187   -0.535051    0.931841
 ---------------------------------------------------------------------

 Alpha  occ. eigenvalues --  -89.88889 -10.62972  -8.25121  -6.17184  -6.17089
 Alpha  occ. eigenvalues --   -6.16556  -0.81655  -0.76369  -0.53259  -0.53157
 Alpha  occ. eigenvalues --   -0.43034  -0.30768  -0.28946
 Alpha virt. eigenvalues --   -0.10950   0.01719   0.04216   0.04979   0.05563
 Alpha virt. eigenvalues --    0.07603   0.07928   0.08502   0.11163   0.13545
 Alpha virt. eigenvalues --    0.16858   0.17521   0.22691   0.33018   0.36298

  Beta  occ. eigenvalues --  -89.88889 -10.62972  -8.25121  -6.17184  -6.17089
  Beta  occ. eigenvalues --   -6.16556  -0.81655  -0.76369  -0.53259  -0.53157
  Beta  occ. eigenvalues --   -0.43034  -0.30768  -0.28946
  Beta virt. eigenvalues --   -0.10950   0.01719   0.04216   0.04979   0.05563
  Beta virt. eigenvalues --    0.07603   0.07928   0.08502   0.11163   0.13545
  Beta virt. eigenvalues --    0.16858   0.17521   0.22691   0.33018   0.36298

 Mulliken charges and spin densities:
               1          2
     1  C   -0.453785   0.000000
     2  S   -0.224480  -0.000000
     3  H    0.057613   0.000000
     4  H    0.207701  -0.000000
     5  H    0.206500  -0.000000
     6  H    0.206452  -0.000000
 Sum of Mulliken charges =  -0.00000   0.00000

 Dipole moment (field-independent basis, Debye):
    X=             -3.3187    Y=             -0.9388    Z=             -0.0005  Tot=              3.4489
 Quadrupole moment (field-independent basis, Debye-Ang):
   XX=            -20.7940   YY=            -19.4355   ZZ=            -23.4659
   XY=             -1.5794   XZ=             -0.0008   YZ=              0.0021

 Normal termination of Gaussian 16 at Mon Apr 21 19:36:30 2025.
