 Gaussian 16, Revision A.03,
 Gaussian 16:  ES64L-G16RevA.03 25-Dec-2016

 --------------------------------------------
 #p opt UM062X/6-311+G** nosymm int=superfine
 --------------------------------------------

 -------------------
 Title Card Required
 -------------------
 Symbolic Z-matrix:
 Charge = -1 Multiplicity = 2

 SCF Done:  E(UM062X) =  -50.7554160058     A.U. after   11 cycles
 SCF Done:  E(UM062X) =  -50.7554191823     A.U. after    7 cycles
 Optimization completed.
    -- Stationary point found.

                          Input orientation:
 ---------------------------------------------------------------------
 Center     Atomic      Atomic             Coordinates (Angstroms)
 Number     Number       Type             X           Y           Z
 ---------------------------------------------------------------------
      1          5           0       -0.866404    0.000000    0.000000
      2          5           0        0.866404    0.000000    0.000000
      3          1           0       -2.048322   -0.000903    0.000000
      4          1           0        2.048322    0.000903   -0.000000
 ---------------------------------------------------------------------

 Alpha  occ. eigenvalues --   -6.85028  -6.84987  -0.36166  -0.31098  -0.19628
 Alpha  occ. eigenvalues --   -0.02566  -0.01070
 Alpha virt. eigenvalues --    0.14165   0.15505   0.17774   0.18193   0.20212
 Alpha virt. eigenvalues --    0.21444   0.21595   0.25798   0.26033   0.26693
 Alpha virt. eigenvalues --    0.31061   0.39198   0.48044   0.55930   0.59455

  Beta  occ. eigenvalues --   -6.84988  -6.84953  -0.33788  -0.30197  -0.18948
  Beta  occ. eigenvalues --    0.00922
  Beta virt. eigenvalues --    0.11242   0.14371   0.14817   0.16826   0.18499
  Beta virt. eigenvalues --    0.19277   0.20973   0.21482   0.23490   0.28558
  Beta virt. eigenvalues --    0.29588   0.32505   0.39562   0.48909   0.56420

 Mulliken charges and spin densities:
               1          2
     1  B   -0.475230   0.525194
     2  B   -0.475230   0.525194
     3  H   -0.024770  -0.025194
     4  H   -0.024770  -0.025194
 Sum of Mulliken charges =  -1.00000   1.00000

 Dipole moment (field-independent basis, Debye):
    X=             -0.0000    Y=              0.0000    Z=              0.0000  Tot=              0.0000
 Quadrupole moment (field-independent basis, Debye-Ang):
   XX=            -22.6206   YY=            -28.0736   ZZ=            -21.4879
   XY=              0.0048   XZ=             -0.0000   YZ=              0.0000

 Normal termination of Gaussian 16 at Mon Apr 21 17:30:23 2025.
