 Gaussian 16, Revision A.03,
 Gaussian 16:  ES64L-G16RevA.03 25-Dec-2016

 --------------------------------------------
 #p opt UM062X/6-311+G** nosymm int=superfine
 --------------------------------------------

 -------------------
 Title Card Required
 -------------------
 Symbolic Z-matrix:
 Charge =  0 Multiplicity = 1

 SCF Done:  E(UM062X) =  -684.960961220     A.U. after   11 cycles
 SCF Done:  E(UM062X) =  -684.962674513     A.U. after   11 cycles
 SCF Done:  E(UM062X) =  -684.963767155     A.U. after   11 cycles
 SCF Done:  E(UM062X) =  -684.963897487     A.U. after   10 cycles
 SCF Done:  E(UM062X) =  -684.963941288     A.U. after   10 cycles
 SCF Done:  E(UM062X) =  -684.963965039     A.U. after   10 cycles
 SCF Done:  E(UM062X) =  -684.963988971     A.U. after   10 cycles
 SCF Done:  E(UM062X) =  -684.964019000     A.U. after   10 cycles
 SCF Done:  E(UM062X) =  -684.964045106     A.U. after   10 cycles
 SCF Done:  E(UM062X) =  -684.964099823     A.U. after   10 cycles
 SCF Done:  E(UM062X) =  -684.964178918     A.U. after   12 cycles
 SCF Done:  E(UM062X) =  -684.964183784     A.U. after    9 cycles
 SCF Done:  E(UM062X) =  -684.964184936     A.U. after    9 cycles
 SCF Done:  E(UM062X) =  -684.964185011     A.U. after    8 cycles
 SCF Done:  E(UM062X) =  -684.964185080     A.U. after    7 cycles
 SCF Done:  E(UM062X) =  -684.964185108     A.U. after    8 cycles
 Optimization completed.
    -- Stationary point found.

                          Input orientation:
 ---------------------------------------------------------------------
 Center     Atomic      Atomic             Coordinates (Angstroms)
 Number     Number       Type             X           Y           Z
 ---------------------------------------------------------------------
      1         15           0       -1.767217    0.000000    0.000000
      2         15           0        1.767217    0.000000    0.000000
      3          1           0        1.713372   -0.950155    1.051969
      4          1           0       -1.715098    1.019870    0.984724
      5          1           0        1.715791   -1.017331   -0.987404
      6          1           0       -1.712295    0.947373   -1.054443
 ---------------------------------------------------------------------

 Alpha  occ. eigenvalues --  -78.04886 -78.04885  -6.87231  -6.87230  -4.98782
 Alpha  occ. eigenvalues --   -4.98782  -4.98665  -4.98665  -4.98480  -4.98479
 Alpha  occ. eigenvalues --   -0.71435  -0.70223  -0.45123  -0.44526  -0.36283
 Alpha  occ. eigenvalues --   -0.35759  -0.26891
 Alpha virt. eigenvalues --   -0.11853   0.01645   0.02997   0.03281   0.04125
 Alpha virt. eigenvalues --    0.04784   0.05691   0.06098   0.06193   0.06599
 Alpha virt. eigenvalues --    0.08467   0.15733   0.18689   0.28149   0.28437

  Beta  occ. eigenvalues --  -78.04886 -78.04885  -6.87231  -6.87230  -4.98782
  Beta  occ. eigenvalues --   -4.98782  -4.98665  -4.98665  -4.98480  -4.98479
  Beta  occ. eigenvalues --   -0.71435  -0.70223  -0.45123  -0.44526  -0.36283
  Beta  occ. eigenvalues --   -0.35759  -0.26891
  Beta virt. eigenvalues --   -0.11853   0.01645   0.02997   0.03281   0.04125
  Beta virt. eigenvalues --    0.04784   0.05691   0.06098   0.06193   0.06599
  Beta virt. eigenvalues --    0.08467   0.15733   0.18689   0.28149   0.28437

 Mulliken charges and spin densities:
               1          2
     1  P   -0.029087  -0.000000
     2  P   -0.029232   0.000000
     3  H    0.014610  -0.000000
     4  H    0.014573   0.000000
     5  H    0.014543  -0.000000
     6  H    0.014593   0.000000
 Sum of Mulliken charges =  -0.00000   0.00000

 Dipole moment (field-independent basis, Debye):
    X=              0.0002    Y=              0.0002    Z=             -0.0022  Tot=              0.0022
 Quadrupole moment (field-independent basis, Debye-Ang):
   XX=            -29.0517   YY=            -31.1904   ZZ=            -28.4331
   XY=             -3.8660   XZ=              0.1281   YZ=              0.0936

 Normal termination of Gaussian 16 at Mon Apr 21 20:50:14 2025.
