 Gaussian 16, Revision A.03,
 Gaussian 16:  ES64L-G16RevA.03 25-Dec-2016

 --------------------------------------------
 #p opt UM062X/6-311+G** nosymm int=superfine
 --------------------------------------------

 -------------------
 Title Card Required
 -------------------
 Symbolic Z-matrix:
 Charge =  1 Multiplicity = 2

 SCF Done:  E(UM062X) =  -379.316314758     A.U. after   95 cycles
 SCF Done:  E(UM062X) =  -379.316777516     A.U. after   80 cycles
 Optimization completed.
    -- Stationary point found.

                          Input orientation:
 ---------------------------------------------------------------------
 Center     Atomic      Atomic             Coordinates (Angstroms)
 Number     Number       Type             X           Y           Z
 ---------------------------------------------------------------------
      1          6           0       -1.519427    0.000000    0.000000
      2         15           0        1.519427    0.000000    0.000000
      3          1           0       -2.631241    0.000000   -0.000124
 ---------------------------------------------------------------------

 Alpha  occ. eigenvalues --  -78.37382 -10.95386  -7.18830  -5.30735  -5.30516
 Alpha  occ. eigenvalues --   -5.29098  -0.99701  -0.87929  -0.66087  -0.50936
 Alpha  occ. eigenvalues --   -0.48916
 Alpha virt. eigenvalues --   -0.40231  -0.37845  -0.35709  -0.12766  -0.10311
 Alpha virt. eigenvalues --   -0.08513  -0.08212  -0.07039  -0.05298  -0.05171
 Alpha virt. eigenvalues --   -0.01046   0.02049   0.14822   0.15070   0.15452

  Beta  occ. eigenvalues --  -78.37211 -10.94941  -7.18838  -5.30505  -5.29737
  Beta  occ. eigenvalues --   -5.29626  -0.96172  -0.86194  -0.64227  -0.50951
  Beta virt. eigenvalues --   -0.34896  -0.34693  -0.31676  -0.30668  -0.14071
  Beta virt. eigenvalues --   -0.10794  -0.08514  -0.08442  -0.07572  -0.05047
  Beta virt. eigenvalues --   -0.04744  -0.02896   0.04062   0.12486   0.14537

 Mulliken charges and spin densities:
               1          2
     1  C    0.078405   0.728604
     2  P    0.651195   0.294293
     3  H    0.270400  -0.022897
 Sum of Mulliken charges =   1.00000   1.00000

 Dipole moment (field-independent basis, Debye):
    X=             -0.2152    Y=              0.0000    Z=             -0.0002  Tot=              0.2152
 Quadrupole moment (field-independent basis, Debye-Ang):
   XX=              4.8884   YY=            -16.3374   ZZ=            -19.8118
   XY=             -0.0000   XZ=             -0.0001   YZ=             -0.0778

 Normal termination of Gaussian 16 at Mon Apr 21 19:27:19 2025.
