 Gaussian 16, Revision A.03,
 Gaussian 16:  ES64L-G16RevA.03 25-Dec-2016

 ----------------------------------------------------------------------
 #p opt UM062X/6-311+G** nosymm int=superfine SCF=(MaxCycle=200,NoVarAc
 c,noincfock) guess=read
 ----------------------------------------------------------------------

 -------------------
 Title Card Required
 -------------------
 Symbolic Z-matrix:
 Charge =  0 Multiplicity = 1

 SCF Done:  E(UM062X) =  -80.3776249467     A.U. after   26 cycles
 SCF Done:  E(UM062X) =  -80.4013921090     A.U. after   18 cycles
 SCF Done:  E(UM062X) =  -80.4352126559     A.U. after   19 cycles
 SCF Done:  E(UM062X) =  -80.4604255009     A.U. after   14 cycles
 SCF Done:  E(UM062X) =  -80.4734496466     A.U. after   22 cycles
 SCF Done:  E(UM062X) =  -80.4746278526     A.U. after   19 cycles
 SCF Done:  E(UM062X) =  -80.4814029074     A.U. after   15 cycles
 SCF Done:  E(UM062X) =  -80.4826001370     A.U. after   17 cycles
 SCF Done:  E(UM062X) =  -80.4840123021     A.U. after   18 cycles
 SCF Done:  E(UM062X) =  -80.4840865978     A.U. after   15 cycles
 SCF Done:  E(UM062X) =  -80.4840962087     A.U. after   17 cycles
 SCF Done:  E(UM062X) =  -80.4840963726     A.U. after   12 cycles
 Optimization completed.
    -- Stationary point found.

                          Input orientation:
 ---------------------------------------------------------------------
 Center     Atomic      Atomic             Coordinates (Angstroms)
 Number     Number       Type             X           Y           Z
 ---------------------------------------------------------------------
      1          5           0       -1.167066    0.000000    0.000000
      2          7           0        1.167066    0.000000    0.000000
      3          1           0       -2.336398   -0.124676   -0.238562
      4          1           0        1.175617    0.481165    0.918411
 ---------------------------------------------------------------------

 Alpha  occ. eigenvalues --  -14.77038  -7.20802  -0.84063  -0.60906  -0.40904
 Alpha  occ. eigenvalues --   -0.34392  -0.27174
 Alpha virt. eigenvalues --   -0.08813  -0.07939  -0.04220   0.00618   0.03993
 Alpha virt. eigenvalues --    0.04783   0.05211   0.12930   0.16283   0.18386
 Alpha virt. eigenvalues --    0.19779   0.21444   0.26064   0.35489   0.38370

  Beta  occ. eigenvalues --  -14.77038  -7.20802  -0.84063  -0.60906  -0.40904
  Beta  occ. eigenvalues --   -0.34392  -0.27174
  Beta virt. eigenvalues --   -0.08813  -0.07939  -0.04220   0.00618   0.03993
  Beta virt. eigenvalues --    0.04783   0.05211   0.12930   0.16283   0.18386
  Beta virt. eigenvalues --    0.19779   0.21444   0.26064   0.35489   0.38370

 Mulliken charges and spin densities:
               1          2
     1  B    0.132258  -0.000000
     2  N   -0.367725   0.000000
     3  H    0.063410  -0.000000
     4  H    0.172057  -0.000000
 Sum of Mulliken charges =  -0.00000  -0.00000

 Dipole moment (field-independent basis, Debye):
    X=             -4.4332    Y=              0.5141    Z=              0.9807  Tot=              4.5694
 Quadrupole moment (field-independent basis, Debye-Ang):
   XX=            -10.4219   YY=            -14.7762   ZZ=            -13.0046
   XY=              0.9664   XZ=              1.8442   YZ=              1.2795

 Normal termination of Gaussian 16 at Mon Apr 21 22:30:43 2025.
