 Gaussian 16, Revision A.03,
 Gaussian 16:  ES64L-G16RevA.03 25-Dec-2016

 --------------------------------------------
 #p opt UM062X/6-311+G** nosymm int=superfine
 --------------------------------------------

 -------------------
 Title Card Required
 -------------------
 Symbolic Z-matrix:
 Charge =  1 Multiplicity = 2

 SCF Done:  E(UM062X) =  -76.5842544552     A.U. after   28 cycles
 SCF Done:  E(UM062X) =  -76.5847137077     A.U. after   12 cycles
 SCF Done:  E(UM062X) =  -76.5847148325     A.U. after   24 cycles
 Optimization completed.
    -- Stationary point found.

                          Input orientation:
 ---------------------------------------------------------------------
 Center     Atomic      Atomic             Coordinates (Angstroms)
 Number     Number       Type             X           Y           Z
 ---------------------------------------------------------------------
      1          6           0       -1.382160    0.000000    0.000000
      2          6           0        1.382160    0.000000    0.000000
      3          1           0       -2.503310   -0.000000   -0.000000
      4          1           0        2.503310   -0.000000   -0.000000
 ---------------------------------------------------------------------

 Alpha  occ. eigenvalues --  -10.95397 -10.95395  -0.99443  -0.98558  -0.68177
 Alpha  occ. eigenvalues --   -0.60759  -0.51093
 Alpha virt. eigenvalues --   -0.39690  -0.35305  -0.33368  -0.13120  -0.11696
 Alpha virt. eigenvalues --   -0.08201  -0.07659  -0.06249  -0.05220  -0.04825
 Alpha virt. eigenvalues --   -0.01187   0.01282   0.05931   0.24538   0.31624

  Beta  occ. eigenvalues --  -10.95010 -10.95010  -0.97009  -0.96384  -0.66900
  Beta  occ. eigenvalues --   -0.59276
  Beta virt. eigenvalues --   -0.33650  -0.32080  -0.31472  -0.29813  -0.13722
  Beta virt. eigenvalues --   -0.11631  -0.07748  -0.07042  -0.07011  -0.04526
  Beta virt. eigenvalues --   -0.03619  -0.01933   0.02995   0.07135   0.23730

 Mulliken charges and spin densities:
               1          2
     1  C    0.250585   0.515942
     2  C    0.250585   0.515942
     3  H    0.249415  -0.015942
     4  H    0.249415  -0.015942
 Sum of Mulliken charges =   1.00000   1.00000

 Dipole moment (field-independent basis, Debye):
    X=              0.0000    Y=              0.0000    Z=             -0.0000  Tot=              0.0000
 Quadrupole moment (field-independent basis, Debye-Ang):
   XX=              9.7035   YY=            -11.5635   ZZ=             -9.5212
   XY=             -0.0000   XZ=              0.0000   YZ=             -0.1802

 Normal termination of Gaussian 16 at Tue Dec  3 11:27:10 2024.
