 Gaussian 16, Revision A.03,
 Gaussian 16:  ES64L-G16RevA.03 25-Dec-2016

 ---------------------------------------
 #p UM062X/6-311+G** force int=superfine
 ---------------------------------------

 -------------------
 Title Card Required
 -------------------
 Symbolic Z-matrix:
 Charge =  1 Multiplicity = 2

                         Standard orientation:
 ---------------------------------------------------------------------
 Center     Atomic      Atomic             Coordinates (Angstroms)
 Number     Number       Type             X           Y           Z
 ---------------------------------------------------------------------
      1          6           0        0.491075   -0.451798    0.799616
      2          6           0       -0.491071    0.451808   -0.799612
      3          1           0        0.342234    0.418776   -1.494159
      4          1           0        0.713603   -1.387830    0.297393
      5          1           0       -0.713830    1.387868   -0.297545
      6          1           0       -1.279534   -0.287664   -0.896601
      7          1           0       -0.342198   -0.418694    1.494199
      8          1           0        1.279703    0.287485    0.896691
 ---------------------------------------------------------------------

 SCF Done:  E(UM062X) =  -79.3683694878     A.U. after    9 cycles

 The electronic state is 2-A.
 Alpha  occ. eigenvalues --  -10.86050 -10.86040  -1.10032  -1.01638  -0.78442
 Alpha  occ. eigenvalues --   -0.78441  -0.73809  -0.73808  -0.62350
 Alpha virt. eigenvalues --   -0.25061  -0.16374  -0.11112  -0.11111  -0.09878
 Alpha virt. eigenvalues --   -0.07159  -0.06380  -0.06378  -0.05341  -0.05339
 Alpha virt. eigenvalues --   -0.02053   0.01632   0.01634   0.04448   0.07356

  Beta  occ. eigenvalues --  -10.85834 -10.85834  -1.06572  -0.98738  -0.77489
  Beta  occ. eigenvalues --   -0.77488  -0.73033  -0.73032
  Beta virt. eigenvalues --   -0.39021  -0.18168  -0.16055  -0.11117  -0.11117
  Beta virt. eigenvalues --   -0.08392  -0.07318  -0.06626  -0.06625  -0.04926
  Beta virt. eigenvalues --   -0.04924  -0.01173   0.02260   0.02263   0.04936

 Mulliken charges and spin densities:
               1          2
     1  C   -0.315513   0.552333
     2  C   -0.315513   0.552333
     3  H    0.271849  -0.017459
     4  H    0.271824  -0.017435
     5  H    0.271835  -0.017439
     6  H    0.271829  -0.017435
     7  H    0.271849  -0.017459
     8  H    0.271839  -0.017440
 Sum of Mulliken charges =   1.00000   1.00000

 Dipole moment (field-independent basis, Debye):
    X=             -0.0000    Y=             -0.0000    Z=             -0.0000  Tot=              0.0000
 Quadrupole moment (field-independent basis, Debye-Ang):
   XX=             -9.7519   YY=             -9.9106   ZZ=             -8.0390
   XY=             -0.9534   XZ=              1.6877   YZ=             -1.5530

 Normal termination of Gaussian 16 at Wed Nov 13 13:44:07 2024.
