 Gaussian 16, Revision A.03,
 Gaussian 16:  ES64L-G16RevA.03 25-Dec-2016

 ---------------------------------------
 #p UM062X/6-311+G** force int=superfine
 ---------------------------------------

 -------------------
 Title Card Required
 -------------------
 Symbolic Z-matrix:
 Charge =  1 Multiplicity = 2

                         Standard orientation:
 ---------------------------------------------------------------------
 Center     Atomic      Atomic             Coordinates (Angstroms)
 Number     Number       Type             X           Y           Z
 ---------------------------------------------------------------------
      1          7           0        0.000000    0.000000    1.155391
      2          7           0        0.000000    0.000000   -1.155391
 ---------------------------------------------------------------------

 SCF Done:  E(UM062X) =  -108.489614586     A.U. after   10 cycles

 Unable to determine electronic state:  partially filled degenerate orbitals.
 Alpha  occ. eigenvalues --  -15.36291 -15.36279  -1.26511  -1.20693  -0.74365
 Alpha  occ. eigenvalues --   -0.72386  -0.69781
 Alpha virt. eigenvalues --   -0.57823  -0.55151  -0.49965  -0.13183  -0.08962
 Alpha virt. eigenvalues --   -0.08771  -0.08713  -0.03425  -0.03120  -0.02849
 Alpha virt. eigenvalues --    0.05219   0.44689   0.46159   0.48211   0.53641

  Beta  occ. eigenvalues --  -15.35826 -15.35818  -1.22695  -1.17224  -0.72477
  Beta  occ. eigenvalues --   -0.68064
  Beta virt. eigenvalues --   -0.53341  -0.49090  -0.48191  -0.45854  -0.14545
  Beta virt. eigenvalues --   -0.09219  -0.09197  -0.08979  -0.04061  -0.03107
  Beta virt. eigenvalues --   -0.03088   0.03820   0.46366   0.46380   0.48862

 Mulliken charges and spin densities:
               1          2
     1  N    0.500000   0.500000
     2  N    0.500000   0.500000
 Sum of Mulliken charges =   1.00000   1.00000

 Dipole moment (field-independent basis, Debye):
    X=              0.0000    Y=             -0.0000    Z=              0.0000  Tot=              0.0000
 Quadrupole moment (field-independent basis, Debye-Ang):
   XX=             -8.5234   YY=             -9.9799   ZZ=             -2.0568
   XY=              0.0000   XZ=             -0.0000   YZ=              0.0000

 Optimization completed.
    -- Stationary point found.
 Normal termination of Gaussian 16 at Wed Feb 26 13:55:16 2025.
