 Gaussian 16, Revision A.03,
 Gaussian 16:  ES64L-G16RevA.03 25-Dec-2016

 ---------------------------------------------------
 #p UM062X/6-311+G** force int=superfine pop=saveNBO
 ---------------------------------------------------

 -------------------
 Title Card Required
 -------------------
 Symbolic Z-matrix:
 Charge =  1 Multiplicity = 2

                         Standard orientation:
 ---------------------------------------------------------------------
 Center     Atomic      Atomic             Coordinates (Angstroms)
 Number     Number       Type             X           Y           Z
 ---------------------------------------------------------------------
      1          6           0        0.000000    0.000000   -1.034002
      2         15           0        0.000000    0.000000    0.554852
      3          1           0        0.000000    0.000000   -2.118759
 ---------------------------------------------------------------------

 SCF Done:  E(UM062X) =  -379.583297154     A.U. after   13 cycles

 Unable to determine electronic state:  an orbital has unidentified symmetry.
 Alpha  occ. eigenvalues --  -78.37603 -10.90887  -7.19709  -5.31726  -5.30865
 Alpha  occ. eigenvalues --   -5.30827  -1.13166  -0.90949  -0.71862  -0.66182
 Alpha  occ. eigenvalues --   -0.63785
 Alpha virt. eigenvalues --   -0.32063  -0.30155  -0.15627  -0.14168  -0.10652
 Alpha virt. eigenvalues --   -0.10415  -0.10237  -0.07226  -0.05107  -0.04787
 Alpha virt. eigenvalues --   -0.00496   0.04955   0.12455   0.12593   0.16649

  Beta  occ. eigenvalues --  -78.37307 -10.90597  -7.19658  -5.30859  -5.30838
  Beta  occ. eigenvalues --   -5.30778  -1.08774  -0.89475  -0.70802  -0.61688
  Beta virt. eigenvalues --   -0.43845  -0.28910  -0.26179  -0.16106  -0.13665
  Beta virt. eigenvalues --   -0.10426  -0.10377  -0.10278  -0.06736  -0.04742
  Beta virt. eigenvalues --   -0.04626  -0.01010   0.05378   0.10482   0.12432

 Mulliken charges and spin densities:
               1          2
     1  C    0.073770   0.616627
     2  P    0.631954   0.405897
     3  H    0.294276  -0.022525
 Sum of Mulliken charges =   1.00000   1.00000

 Dipole moment (field-independent basis, Debye):
    X=              0.0000    Y=              0.0000    Z=             -0.9739  Tot=              0.9739
 Quadrupole moment (field-independent basis, Debye-Ang):
   XX=            -16.8571   YY=            -14.4067   ZZ=             -8.1647
   XY=              0.0000   XZ=              0.0000   YZ=              0.0000

 Summary of Natural Population Analysis:

                                       Natural Population
                Natural  -----------------------------------------------
    Atom  No    Charge         Core      Valence    Rydberg      Total
 -----------------------------------------------------------------------
      C    1    0.15989      0.99979     1.83605    0.00427     2.84011
      P    2    0.71342      4.99907     1.76825    0.01926     6.78658
      H    3    0.12669      0.00000     0.37207    0.00124     0.37331
 =======================================================================
   * Total *    1.00000      5.99887     3.97637    0.02477    10.00000

 Optimization completed.
    -- Stationary point found.
 Normal termination of Gaussian 16 at Wed Apr 16 03:42:43 2025.
