 Gaussian 16, Revision A.03,
 Gaussian 16:  ES64L-G16RevA.03 25-Dec-2016

 --------------------------------------------
 #p opt UM062X/6-311+G** nosymm int=superfine
 --------------------------------------------

 -------------------
 Title Card Required
 -------------------
 Symbolic Z-matrix:
 Charge =  1 Multiplicity = 2

 SCF Done:  E(UM062X) =  -579.669513818     A.U. after   14 cycles
 SCF Done:  E(UM062X) =  -579.669965858     A.U. after   11 cycles
 SCF Done:  E(UM062X) =  -579.670086094     A.U. after   11 cycles
 SCF Done:  E(UM062X) =  -579.670504927     A.U. after   12 cycles
 SCF Done:  E(UM062X) =  -579.671187203     A.U. after   13 cycles
 SCF Done:  E(UM062X) =  -579.671359694     A.U. after   14 cycles
 SCF Done:  E(UM062X) =  -579.671361656     A.U. after   11 cycles
 SCF Done:  E(UM062X) =  -579.671361922     A.U. after    9 cycles
 SCF Done:  E(UM062X) =  -579.671364309     A.U. after   11 cycles
 SCF Done:  E(UM062X) =  -579.671365889     A.U. after   11 cycles
 SCF Done:  E(UM062X) =  -579.671365941     A.U. after   10 cycles
 SCF Done:  E(UM062X) =  -579.671365948     A.U. after    9 cycles
 Optimization completed.
    -- Stationary point found.

                          Input orientation:
 ---------------------------------------------------------------------
 Center     Atomic      Atomic             Coordinates (Angstroms)
 Number     Number       Type             X           Y           Z
 ---------------------------------------------------------------------
      1         14           0       -2.602975    0.000000    0.000000
      2         14           0        2.602975    0.000000    0.000000
      3          1           0       -2.800995   -1.495588   -0.000000
      4          1           0        2.801060    1.495580    0.000000
 ---------------------------------------------------------------------

 Alpha  occ. eigenvalues --  -67.25488 -67.25488  -5.79674  -5.79673  -4.10781
 Alpha  occ. eigenvalues --   -4.10780  -4.10688  -4.10688  -4.10042  -4.10042
 Alpha  occ. eigenvalues --   -0.74503  -0.74293  -0.51323  -0.51181  -0.37621
 Alpha virt. eigenvalues --   -0.30127  -0.26379  -0.26097  -0.10234  -0.08841
 Alpha virt. eigenvalues --   -0.08098  -0.07211  -0.07145  -0.06139  -0.05384
 Alpha virt. eigenvalues --   -0.05341  -0.04773  -0.02169   0.13898   0.15140

  Beta  occ. eigenvalues --  -67.25225 -67.25225  -5.79600  -5.79599  -4.10624
  Beta  occ. eigenvalues --   -4.10624  -4.10065  -4.10065  -4.09946  -4.09946
  Beta  occ. eigenvalues --   -0.72695  -0.72622  -0.50675  -0.50530
  Beta virt. eigenvalues --   -0.27005  -0.26131  -0.25688  -0.23977  -0.14740
  Beta virt. eigenvalues --   -0.10670  -0.09000  -0.07878  -0.07388  -0.06084
  Beta virt. eigenvalues --   -0.05755  -0.05074  -0.04826  -0.02135   0.10061

 Mulliken charges and spin densities:
               1          2
     1  Si   0.586660   0.508307
     2  Si   0.586658   0.508309
     3  H   -0.086659  -0.008308
     4  H   -0.086659  -0.008308
 Sum of Mulliken charges =   1.00000   1.00000

 Dipole moment (field-independent basis, Debye):
    X=              0.0000    Y=             -0.0000    Z=             -0.0000  Tot=              0.0000
 Quadrupole moment (field-independent basis, Debye-Ang):
   XX=             13.4050   YY=            -27.7985   ZZ=            -20.0037
   XY=              2.3945   XZ=              0.0000   YZ=             -0.0000

 Normal termination of Gaussian 16 at Mon Apr 21 20:46:05 2025.
