 Gaussian 16, Revision A.03,
 Gaussian 16:  ES64L-G16RevA.03 25-Dec-2016

 --------------------------------------------
 #p opt UM062X/6-311+G** nosymm int=superfine
 --------------------------------------------

 -------------------
 Title Card Required
 -------------------
 Symbolic Z-matrix:
 Charge =  0 Multiplicity = 1

 SCF Done:  E(UM062X) =  -380.937456671     A.U. after   23 cycles
 SCF Done:  E(UM062X) =  -380.939798708     A.U. after   15 cycles
 SCF Done:  E(UM062X) =  -380.940812784     A.U. after   14 cycles
 SCF Done:  E(UM062X) =  -380.940930551     A.U. after   16 cycles
 SCF Done:  E(UM062X) =  -380.940973386     A.U. after   16 cycles
 SCF Done:  E(UM062X) =  -380.941173743     A.U. after   18 cycles
 SCF Done:  E(UM062X) =  -380.941202094     A.U. after   13 cycles
 SCF Done:  E(UM062X) =  -380.941204250     A.U. after   15 cycles
 SCF Done:  E(UM062X) =  -380.941206150     A.U. after   14 cycles
 SCF Done:  E(UM062X) =  -380.941209659     A.U. after   18 cycles
 SCF Done:  E(UM062X) =  -380.941212847     A.U. after   14 cycles
 SCF Done:  E(UM062X) =  -380.941214492     A.U. after   15 cycles
 SCF Done:  E(UM062X) =  -380.941215096     A.U. after   13 cycles
 SCF Done:  E(UM062X) =  -380.941215165     A.U. after   14 cycles
 SCF Done:  E(UM062X) =  -380.941215174     A.U. after   17 cycles
 Optimization completed.
    -- Stationary point found.

                          Input orientation:
 ---------------------------------------------------------------------
 Center     Atomic      Atomic             Coordinates (Angstroms)
 Number     Number       Type             X           Y           Z
 ---------------------------------------------------------------------
      1          6           0       -1.780452    0.000000    0.000000
      2         15           0        1.780452    0.000000    0.000000
      3          1           0       -2.479337   -0.855000   -0.000624
      4          1           0        1.529478   -1.398986   -0.003513
      5          1           0       -2.431512    0.891771    0.000857
 ---------------------------------------------------------------------

 Alpha  occ. eigenvalues --  -78.04006 -10.63578  -6.86224  -4.98215  -4.97466
 Alpha  occ. eigenvalues --   -4.97024  -0.77793  -0.64967  -0.50296  -0.37703
 Alpha  occ. eigenvalues --   -0.33867  -0.23842
 Alpha virt. eigenvalues --   -0.10292  -0.10272   0.01216   0.04065   0.04740
 Alpha virt. eigenvalues --    0.06241   0.06926   0.07478   0.08772   0.11211
 Alpha virt. eigenvalues --    0.13550   0.17060   0.18443   0.31231   0.34334

  Beta  occ. eigenvalues --  -78.04006 -10.63578  -6.86224  -4.98215  -4.97466
  Beta  occ. eigenvalues --   -4.97024  -0.77793  -0.64967  -0.50296  -0.37703
  Beta  occ. eigenvalues --   -0.33867  -0.23842
  Beta virt. eigenvalues --   -0.10292  -0.10272   0.01216   0.04065   0.04740
  Beta virt. eigenvalues --    0.06241   0.06926   0.07478   0.08772   0.11211
  Beta virt. eigenvalues --    0.13550   0.17060   0.18443   0.31231   0.34334

 Mulliken charges and spin densities:
               1          2
     1  C   -0.303463  -0.000000
     2  P    0.033795   0.000000
     3  H    0.151138  -0.000000
     4  H   -0.032711  -0.000000
     5  H    0.151241  -0.000000
 Sum of Mulliken charges =  -0.00000  -0.00000

 Dipole moment (field-independent basis, Debye):
    X=             -2.8783    Y=             -0.5958    Z=             -0.0013  Tot=              2.9393
 Quadrupole moment (field-independent basis, Debye-Ang):
   XX=            -13.5186   YY=            -21.3384   ZZ=            -25.4791
   XY=             -1.7886   XZ=             -0.0038   YZ=              0.0110

 Normal termination of Gaussian 16 at Mon Apr 21 19:18:57 2025.
