 Gaussian 16, Revision A.03,
 Gaussian 16:  ES64L-G16RevA.03 25-Dec-2016

 --------------------------------------------
 #p opt UM062X/6-311+G** nosymm int=superfine
 --------------------------------------------

 -------------------
 Title Card Required
 -------------------
 Symbolic Z-matrix:
 Charge =  0 Multiplicity = 1

 SCF Done:  E(UM062X) =  -78.2021557550     A.U. after    9 cycles
 SCF Done:  E(UM062X) =  -78.2189522538     A.U. after    9 cycles
 SCF Done:  E(UM062X) =  -78.2340280037     A.U. after    8 cycles
 SCF Done:  E(UM062X) =  -78.2343535874     A.U. after    8 cycles
 SCF Done:  E(UM062X) =  -78.2343549002     A.U. after    7 cycles
 Optimization completed.
    -- Stationary point found.

                          Input orientation:
 ---------------------------------------------------------------------
 Center     Atomic      Atomic             Coordinates (Angstroms)
 Number     Number       Type             X           Y           Z
 ---------------------------------------------------------------------
      1          6           0       -2.185595    0.000000    0.000000
      2          6           0        2.185595    0.000000    0.000000
      3          1           0       -2.889976   -0.859059    0.000000
      4          1           0       -2.889946    0.859085    0.000000
      5          1           0        2.889976    0.859059   -0.000000
      6          1           0        2.889946   -0.859085   -0.000000
 ---------------------------------------------------------------------

 Alpha  occ. eigenvalues --  -10.59683 -10.59683  -0.74656  -0.74639  -0.46404
 Alpha  occ. eigenvalues --   -0.46386  -0.30650  -0.29669
 Alpha virt. eigenvalues --   -0.07327  -0.07043   0.02511   0.03011   0.06491
 Alpha virt. eigenvalues --    0.08543   0.08581   0.10331   0.11830   0.15511
 Alpha virt. eigenvalues --    0.17492   0.19949   0.20579   0.21027   0.45231

  Beta  occ. eigenvalues --  -10.59683 -10.59683  -0.74656  -0.74639  -0.46404
  Beta  occ. eigenvalues --   -0.46386  -0.30650  -0.29669
  Beta virt. eigenvalues --   -0.07327  -0.07043   0.02511   0.03011   0.06491
  Beta virt. eigenvalues --    0.08543   0.08581   0.10331   0.11830   0.15511
  Beta virt. eigenvalues --    0.17492   0.19949   0.20579   0.21027   0.45231

 Mulliken charges and spin densities:
               1          2
     1  C   -0.240486  -0.000000
     2  C   -0.240486  -0.000000
     3  H    0.120243   0.000000
     4  H    0.120243   0.000000
     5  H    0.120243   0.000000
     6  H    0.120243   0.000000
 Sum of Mulliken charges =  -0.00000   0.00000

 Dipole moment (field-independent basis, Debye):
    X=              0.0000    Y=              0.0000    Z=              0.0000  Tot=              0.0000
 Quadrupole moment (field-independent basis, Debye-Ang):
   XX=             -1.3130   YY=            -14.6009   ZZ=            -12.9044
   XY=             -0.0001   XZ=             -0.0000   YZ=              0.0000

 Normal termination of Gaussian 16 at Tue Dec  3 11:21:45 2024.
