 Gaussian 16, Revision A.03,
 Gaussian 16:  ES64L-G16RevA.03 25-Dec-2016

 --------------------------------------------
 #p opt UM062X/6-311+G** nosymm int=superfine
 --------------------------------------------

 -------------------
 Title Card Required
 -------------------
 Symbolic Z-matrix:
 Charge =  0 Multiplicity = 1

 SCF Done:  E(UM062X) =  -79.7494766817     A.U. after    8 cycles
 SCF Done:  E(UM062X) =  -79.7639611806     A.U. after    8 cycles
 SCF Done:  E(UM062X) =  -79.7669363334     A.U. after    8 cycles
 SCF Done:  E(UM062X) =  -79.7669386846     A.U. after    6 cycles
 Optimization completed.
    -- Stationary point found.

                          Input orientation:
 ---------------------------------------------------------------------
 Center     Atomic      Atomic             Coordinates (Angstroms)
 Number     Number       Type             X           Y           Z
 ---------------------------------------------------------------------
      1          6           0       -0.923892    0.000000    0.000000
      2          6           0        0.923986    0.000000    0.000000
      3          1           0        1.249352   -0.897431    0.519307
      4          1           0       -1.249258   -0.898444   -0.517554
      5          1           0        1.249353    0.898444    0.517554
      6          1           0        1.249358   -0.001012   -1.036850
      7          1           0       -1.249258    0.897431   -0.519307
      8          1           0       -1.249265    0.001011    1.036850
 ---------------------------------------------------------------------

 Alpha  occ. eigenvalues --  -10.53862 -10.53849  -0.80436  -0.71745  -0.48752
 Alpha  occ. eigenvalues --   -0.48752  -0.43163  -0.43163  -0.36171
 Alpha virt. eigenvalues --    0.02268   0.03487   0.05635   0.05635   0.08592
 Alpha virt. eigenvalues --    0.08592   0.09275   0.13283   0.16620   0.18321
 Alpha virt. eigenvalues --    0.18321   0.21836   0.21836   0.24246   0.27393

  Beta  occ. eigenvalues --  -10.53862 -10.53849  -0.80436  -0.71745  -0.48752
  Beta  occ. eigenvalues --   -0.48752  -0.43163  -0.43163  -0.36171
  Beta virt. eigenvalues --    0.02268   0.03487   0.05635   0.05635   0.08592
  Beta virt. eigenvalues --    0.08592   0.09275   0.13283   0.16620   0.18321
  Beta virt. eigenvalues --    0.18321   0.21836   0.21836   0.24246   0.27393

 Mulliken charges and spin densities:
               1          2
     1  C   -0.490649  -0.000000
     2  C   -0.490649   0.000000
     3  H    0.163550  -0.000000
     4  H    0.163550   0.000000
     5  H    0.163550  -0.000000
     6  H    0.163549  -0.000000
     7  H    0.163550   0.000000
     8  H    0.163549   0.000000
 Sum of Mulliken charges =   0.00000   0.00000

 Dipole moment (field-independent basis, Debye):
    X=             -0.0000    Y=             -0.0000    Z=             -0.0000  Tot=              0.0000
 Quadrupole moment (field-independent basis, Debye-Ang):
   XX=            -15.6062   YY=            -14.9199   ZZ=            -14.9198
   XY=              0.0000   XZ=              0.0000   YZ=             -0.0000

 Normal termination of Gaussian 16 at Tue Nov 19 12:01:08 2024.
