 Gaussian 16, Revision A.03,
 Gaussian 16:  ES64L-G16RevA.03 25-Dec-2016

 --------------------------------------------
 #p opt UM062X/6-311+G** nosymm int=superfine
 --------------------------------------------

 -------------------
 Title Card Required
 -------------------
 Symbolic Z-matrix:
 Charge =  0 Multiplicity = 1

 SCF Done:  E(UM062X) =  -579.892034570     A.U. after   13 cycles
 SCF Done:  E(UM062X) =  -579.898854704     A.U. after    9 cycles
 SCF Done:  E(UM062X) =  -579.899011164     A.U. after   10 cycles
 SCF Done:  E(UM062X) =  -579.899028031     A.U. after    9 cycles
 SCF Done:  E(UM062X) =  -579.923704279     A.U. after   19 cycles
 SCF Done:  E(UM062X) =  -579.957520012     A.U. after   13 cycles
 SCF Done:  E(UM062X) =  -579.990964895     A.U. after   12 cycles
 SCF Done:  E(UM062X) =  -579.989284282     A.U. after   11 cycles
 SCF Done:  E(UM062X) =  -579.991972878     A.U. after   10 cycles
 SCF Done:  E(UM062X) =  -579.992038951     A.U. after   10 cycles
 SCF Done:  E(UM062X) =  -579.992042181     A.U. after    8 cycles
 Optimization completed.
    -- Stationary point found.

                          Input orientation:
 ---------------------------------------------------------------------
 Center     Atomic      Atomic             Coordinates (Angstroms)
 Number     Number       Type             X           Y           Z
 ---------------------------------------------------------------------
      1         14           0       -1.303705    0.000000    0.000000
      2         14           0        1.303705    0.000000    0.000000
      3          1           0       -1.432693    1.512423    0.000722
      4          1           0        1.432627    1.512429   -0.000663
 ---------------------------------------------------------------------

 Alpha  occ. eigenvalues --  -67.01975 -67.01975  -5.56602  -5.56601  -3.87818
 Alpha  occ. eigenvalues --   -3.87817  -3.87286  -3.87276  -3.87156  -3.87150
 Alpha  occ. eigenvalues --   -0.58545  -0.51053  -0.36366  -0.28740  -0.24098
 Alpha virt. eigenvalues --   -0.11864  -0.04931   0.00953   0.02004   0.03719
 Alpha virt. eigenvalues --    0.03865   0.05264   0.06458   0.06713   0.06857
 Alpha virt. eigenvalues --    0.07167   0.10751   0.13583   0.26705   0.29126

  Beta  occ. eigenvalues --  -67.01975 -67.01975  -5.56602  -5.56601  -3.87818
  Beta  occ. eigenvalues --   -3.87817  -3.87286  -3.87276  -3.87156  -3.87150
  Beta  occ. eigenvalues --   -0.58545  -0.51053  -0.36366  -0.28740  -0.24098
  Beta virt. eigenvalues --   -0.11864  -0.04931   0.00953   0.02004   0.03719
  Beta virt. eigenvalues --    0.03865   0.05264   0.06458   0.06713   0.06857
  Beta virt. eigenvalues --    0.07167   0.10751   0.13583   0.26705   0.29126

 Mulliken charges and spin densities:
               1          2
     1  Si   0.151090  -0.000000
     2  Si   0.151099   0.000000
     3  H   -0.151094   0.000000
     4  H   -0.151096   0.000000
 Sum of Mulliken charges =  -0.00000   0.00000

 Dipole moment (field-independent basis, Debye):
    X=              0.0001    Y=              0.6720    Z=              0.0000  Tot=              0.6720
 Quadrupole moment (field-independent basis, Debye-Ang):
   XX=            -35.9245   YY=            -33.0157   ZZ=            -22.7881
   XY=             -0.0001   XZ=             -0.0020   YZ=             -0.0002

 Normal termination of Gaussian 16 at Mon Apr 21 21:25:05 2025.
