 Gaussian 16, Revision A.03,
 Gaussian 16:  ES64L-G16RevA.03 25-Dec-2016

 --------------------------------------------
 #p opt UM062X/6-311+G** nosymm int=superfine
 --------------------------------------------

 -------------------
 Title Card Required
 -------------------
 Symbolic Z-matrix:
 Charge =  1 Multiplicity = 2

 SCF Done:  E(UM062X) =  -1615.42064739     A.U. after   23 cycles
 SCF Done:  E(UM062X) =  -1615.52797917     A.U. after   19 cycles
 SCF Done:  E(UM062X) =  -1615.58105196     A.U. after   20 cycles
 SCF Done:  E(UM062X) =  -1615.58177170     A.U. after   20 cycles
 SCF Done:  E(UM062X) =  -1615.57851824     A.U. after   21 cycles
 SCF Done:  E(UM062X) =  -1615.58063190     A.U. after   22 cycles
 SCF Done:  E(UM062X) =  -1615.58258731     A.U. after   17 cycles
 SCF Done:  E(UM062X) =  -1615.57829166     A.U. after   22 cycles
 SCF Done:  E(UM062X) =  -1615.58255101     A.U. after   21 cycles
 SCF Done:  E(UM062X) =  -1615.58321680     A.U. after   15 cycles
 SCF Done:  E(UM062X) =  -1615.58333701     A.U. after   19 cycles
 SCF Done:  E(UM062X) =  -1615.58336103     A.U. after   19 cycles
 SCF Done:  E(UM062X) =  -1615.58336969     A.U. after   15 cycles
 SCF Done:  E(UM062X) =  -1615.58337119     A.U. after   13 cycles
 SCF Done:  E(UM062X) =  -1615.58337143     A.U. after   13 cycles
 SCF Done:  E(UM062X) =  -1615.58337146     A.U. after   11 cycles
 Optimization completed.
    -- Stationary point found.

                          Input orientation:
 ---------------------------------------------------------------------
 Center     Atomic      Atomic             Coordinates (Angstroms)
 Number     Number       Type             X           Y           Z
 ---------------------------------------------------------------------
      1          6           0       -1.283992    0.000000    0.000000
      2          6           0        1.283992    0.000000    0.000000
      3          6           0       -0.000004   -2.141916    0.000007
      4          6           0       -0.000009   -3.521457    0.000002
      5          6           0       -1.132313   -4.320468    0.261854
      6          6           0       -1.230439   -1.480963    0.241817
      7          6           0        0.660117   -5.716220   -0.154135
      8          1           0        1.275330   -6.592353   -0.301495
      9          6           0       -1.500244    0.822759    1.174287
     10          6           0       -0.660093   -5.716219    0.154348
     11          1           0       -1.275289   -6.592349    0.301790
     12          6           0        1.132317   -4.320470   -0.261752
     13          6           0        1.230464   -1.480986   -0.241684
     14          6           0        1.690725    2.239595   -1.206806
     15          6           0       -1.501796    0.329407   -1.400035
     16          6           0       -1.890102    2.878514    2.446068
     17          1           0       -2.044542    3.951262    2.445868
     18          6           0       -2.312839   -3.672264    0.542396
     19          1           0       -3.227076   -4.213002    0.759055
     20          6           0       -1.562523    1.643458   -1.963713
     21          6           0        2.346810   -2.245571   -0.520033
     22          1           0        3.295850   -1.747495   -0.689477
     23          6           0        1.501710    0.329570    1.399990
     24          6           0        1.562679    1.643702    1.963464
     25          6           0        2.312883   -3.672279   -0.542146
     26          1           0        3.227147   -4.213029   -0.758660
     27          6           0       -1.690126    2.239926    1.206389
     28          6           0       -1.473998    0.160987    2.433582
     29          1           0       -1.292681   -0.902324    2.464274
     30          6           0        1.623518   -0.751859    2.323766
     31          1           0        1.618898   -1.768581    1.962744
     32          6           0       -1.895772    2.192726    3.641393
     33          1           0       -2.059819    2.719194    4.573751
     34          6           0       -2.346759   -2.245559    0.520273
     35          1           0       -3.295782   -1.747481    0.689817
     36          6           0       -1.678605    1.793169   -3.361666
     37          1           0       -1.702988    2.799654   -3.762897
     38          6           0        1.500291    0.822515   -1.174433
     39          6           0       -1.644186    3.135173    0.079790
     40          1           0       -1.691543    4.184904    0.352796
     41          6           0       -1.790952    0.720511   -4.215477
     42          1           0       -1.900104    0.877014   -5.281727
     43          6           0       -1.559835    2.886614   -1.240699
     44          1           0       -1.541959    3.765161   -1.878562
     45          6           0        1.678338    1.793605    3.361432
     46          1           0        1.702856    2.800147    3.762513
     47          6           0       -1.670632    0.814340    3.629347
     48          1           0       -1.641530    0.253532    4.555610
     49          6           0       -1.623954   -0.752140   -2.323621
     50          1           0       -1.619369   -1.768811   -1.962455
     51          6           0        1.790193    0.721054    4.215445
     52          1           0        1.899031    0.877703    5.281706
     53          6           0        1.890613    2.877900   -2.446651
     54          1           0        2.045479    3.950586   -2.446675
     55          6           0        1.779434   -0.569057    3.678406
     56          1           0        1.890015   -1.433023    4.322204
     57          6           0        1.895712    2.191908   -3.641863
     58          1           0        2.059678    2.718165   -4.574354
     59          6           0        1.645595    3.135015   -0.080319
     60          1           0        1.693809    4.184673   -0.353456
     61          6           0       -1.780187   -0.569521   -3.678250
     62          1           0       -1.891027   -1.433572   -4.321890
     63          6           0        1.560960    2.886721    1.240209
     64          1           0        1.543719    3.765396    1.877914
     65          6           0        1.473675    0.160500   -2.433590
     66          1           0        1.292128   -0.902785   -2.464034
     67          6           0        1.670203    0.813580   -3.629520
     68          1           0        1.640761    0.252604   -4.555669
 ---------------------------------------------------------------------

 Alpha  occ. eigenvalues --  -10.71290 -10.71288 -10.68569 -10.68569 -10.68563
 Alpha  occ. eigenvalues --  -10.68563 -10.68244 -10.68244 -10.68094 -10.68093
 Alpha  occ. eigenvalues --  -10.66981 -10.66980 -10.66572 -10.66571 -10.66465
 Alpha  occ. eigenvalues --  -10.66465 -10.66017 -10.66017 -10.65850 -10.65850
 Alpha  occ. eigenvalues --  -10.65770 -10.65762 -10.65762 -10.65733 -10.65733
 Alpha  occ. eigenvalues --  -10.65681 -10.65681 -10.65672 -10.65672 -10.65634
 Alpha  occ. eigenvalues --  -10.65633 -10.65571 -10.65570 -10.65526 -10.65526
 Alpha  occ. eigenvalues --  -10.65278 -10.65278 -10.65029 -10.65029 -10.64057
 Alpha  occ. eigenvalues --  -10.63959 -10.63249  -1.12570  -1.10288  -1.10108
 Alpha  occ. eigenvalues --   -1.08450  -1.07786  -1.05842  -1.04787  -1.02590
 Alpha  occ. eigenvalues --   -1.02108  -1.00797  -1.00561  -0.97940  -0.97631
 Alpha  occ. eigenvalues --   -0.96900  -0.96258  -0.95045  -0.93485  -0.93473
 Alpha  occ. eigenvalues --   -0.92812  -0.91915  -0.87516  -0.87376  -0.84973
 Alpha  occ. eigenvalues --   -0.84728  -0.83090  -0.81426  -0.81333  -0.79852
 Alpha  occ. eigenvalues --   -0.79743  -0.79526  -0.77583  -0.76418  -0.76195
 Alpha  occ. eigenvalues --   -0.75738  -0.75458  -0.73658  -0.70245  -0.69739
 Alpha  occ. eigenvalues --   -0.69123  -0.68510  -0.67742  -0.67615  -0.66963
 Alpha  occ. eigenvalues --   -0.66831  -0.65671  -0.65364  -0.65140  -0.64845
 Alpha  occ. eigenvalues --   -0.63355  -0.62981  -0.62346  -0.62189  -0.61229
 Alpha  occ. eigenvalues --   -0.61109  -0.60720  -0.60462  -0.60096  -0.60080
 Alpha  occ. eigenvalues --   -0.59596  -0.58941  -0.58780  -0.58147  -0.57841
 Alpha  occ. eigenvalues --   -0.57623  -0.56696  -0.55855  -0.55675  -0.55636
 Alpha  occ. eigenvalues --   -0.54998  -0.54068  -0.53187  -0.52837  -0.52675
 Alpha  occ. eigenvalues --   -0.52494  -0.52306  -0.52274  -0.51178  -0.51009
 Alpha  occ. eigenvalues --   -0.50959  -0.50916  -0.50409  -0.49484  -0.49246
 Alpha  occ. eigenvalues --   -0.48925  -0.48565  -0.47876  -0.44653  -0.44464
 Alpha  occ. eigenvalues --   -0.44119  -0.42891  -0.40513  -0.40416  -0.39286
 Alpha  occ. eigenvalues --   -0.38142  -0.37629  -0.37202  -0.32400
 Alpha virt. eigenvalues --   -0.19501  -0.15727  -0.15584  -0.14418  -0.10529
 Alpha virt. eigenvalues --   -0.09929  -0.08856  -0.08554  -0.08351  -0.07579
 Alpha virt. eigenvalues --   -0.07526  -0.07481  -0.06644  -0.06382  -0.06145

  Beta  occ. eigenvalues --  -10.71159 -10.71159 -10.68594 -10.68594 -10.68589
  Beta  occ. eigenvalues --  -10.68589 -10.68203 -10.68203 -10.68054 -10.68053
  Beta  occ. eigenvalues --  -10.66996 -10.66995 -10.66562 -10.66562 -10.66452
  Beta  occ. eigenvalues --  -10.66452 -10.65982 -10.65981 -10.65851 -10.65851
  Beta  occ. eigenvalues --  -10.65745 -10.65738 -10.65738 -10.65708 -10.65708
  Beta  occ. eigenvalues --  -10.65689 -10.65689 -10.65660 -10.65660 -10.65619
  Beta  occ. eigenvalues --  -10.65619 -10.65585 -10.65584 -10.65531 -10.65531
  Beta  occ. eigenvalues --  -10.65291 -10.65290 -10.65025 -10.65025 -10.64056
  Beta  occ. eigenvalues --  -10.63958 -10.63248  -1.12402  -1.10192  -1.09952
  Beta  occ. eigenvalues --   -1.08331  -1.07680  -1.05678  -1.04670  -1.02460
  Beta  occ. eigenvalues --   -1.01992  -1.00641  -1.00386  -0.97838  -0.97538
  Beta  occ. eigenvalues --   -0.96774  -0.96151  -0.94993  -0.93423  -0.93373
  Beta  occ. eigenvalues --   -0.92718  -0.91821  -0.87157  -0.87097  -0.84899
  Beta  occ. eigenvalues --   -0.84662  -0.83011  -0.81328  -0.81221  -0.79766
  Beta  occ. eigenvalues --   -0.79671  -0.79455  -0.77463  -0.76256  -0.76045
  Beta  occ. eigenvalues --   -0.75571  -0.75422  -0.73530  -0.70131  -0.69589
  Beta  occ. eigenvalues --   -0.68984  -0.68405  -0.67678  -0.67561  -0.66838
  Beta  occ. eigenvalues --   -0.66732  -0.65592  -0.65225  -0.65004  -0.64737
  Beta  occ. eigenvalues --   -0.63085  -0.62939  -0.62262  -0.62102  -0.60961
  Beta  occ. eigenvalues --   -0.60882  -0.60579  -0.60331  -0.60043  -0.60020
  Beta  occ. eigenvalues --   -0.59472  -0.58795  -0.58699  -0.58066  -0.57586
  Beta  occ. eigenvalues --   -0.57390  -0.56536  -0.55616  -0.55575  -0.55479
  Beta  occ. eigenvalues --   -0.54981  -0.53714  -0.53050  -0.52749  -0.52589
  Beta  occ. eigenvalues --   -0.52445  -0.52212  -0.52164  -0.50961  -0.50938
  Beta  occ. eigenvalues --   -0.50822  -0.50460  -0.49670  -0.49153  -0.48993
  Beta  occ. eigenvalues --   -0.48775  -0.48506  -0.47523  -0.44124  -0.44012
  Beta  occ. eigenvalues --   -0.43374  -0.42552  -0.40350  -0.40081  -0.38663
  Beta  occ. eigenvalues --   -0.37920  -0.37388  -0.37030
  Beta virt. eigenvalues --   -0.22470  -0.17400  -0.15522  -0.15456  -0.14441
  Beta virt. eigenvalues --   -0.10306  -0.09535  -0.08486  -0.08374  -0.08289
  Beta virt. eigenvalues --   -0.07574  -0.07560  -0.07235  -0.06623  -0.06336

 Mulliken charges and spin densities:
               1          2
     1  C    0.006688   0.287321
     2  C    0.005922   0.287277
     3  C    0.211840   0.007177
     4  C    0.110288   0.001509
     5  C    0.112598   0.005352
     6  C    0.024041  -0.028835
     7  C   -0.306660   0.001372
     8  H    0.176398  -0.000061
     9  C    0.241900  -0.029019
    10  C   -0.306593   0.001374
    11  H    0.176398  -0.000061
    12  C    0.112375   0.005361
    13  C    0.024020  -0.028827
    14  C    0.271034   0.054520
    15  C    0.320858  -0.037505
    16  C   -0.244336  -0.032910
    17  H    0.163824   0.000999
    18  C   -0.452801  -0.001253
    19  H    0.175810   0.000385
    20  C    0.205913   0.098254
    21  C   -0.137600   0.016176
    22  H    0.174496  -0.000307
    23  C    0.320554  -0.037503
    24  C    0.206555   0.098224
    25  C   -0.453017  -0.001250
    26  H    0.175811   0.000385
    27  C    0.271382   0.054467
    28  C   -0.080689   0.051919
    29  H    0.204181  -0.003017
    30  C   -0.285490   0.031119
    31  H    0.226056  -0.001624
    32  C   -0.369058   0.055807
    33  H    0.181682  -0.002958
    34  C   -0.137459   0.016185
    35  H    0.174512  -0.000307
    36  C   -0.061601  -0.048366
    37  H    0.162830   0.001391
    38  C    0.241832  -0.029073
    39  C   -0.274859   0.061618
    40  H    0.167106  -0.003965
    41  C   -0.235179   0.053623
    42  H    0.180241  -0.002601
    43  C   -0.262525   0.020117
    44  H    0.159564  -0.001184
    45  C   -0.061188  -0.048342
    46  H    0.162814   0.001390
    47  C   -0.134358  -0.021960
    48  H    0.169281  -0.000631
    49  C   -0.285347   0.031153
    50  H    0.226050  -0.001625
    51  C   -0.235014   0.053652
    52  H    0.180239  -0.002603
    53  C   -0.243437  -0.032892
    54  H    0.163822   0.001000
    55  C   -0.315947  -0.028945
    56  H    0.175140   0.000814
    57  C   -0.368687   0.055835
    58  H    0.181684  -0.002959
    59  C   -0.275788   0.061589
    60  H    0.167149  -0.003961
    61  C   -0.315755  -0.028937
    62  H    0.175138   0.000814
    63  C   -0.263124   0.020167
    64  H    0.159600  -0.001185
    65  C   -0.080561   0.051884
    66  H    0.204210  -0.003017
    67  C   -0.134039  -0.021919
    68  H    0.169275  -0.000631
 Sum of Mulliken charges =   1.00000   1.00000

 Dipole moment (field-independent basis, Debye):
    X=              0.0005    Y=              2.4005    Z=             -0.0002  Tot=              2.4005
 Quadrupole moment (field-independent basis, Debye-Ang):
   XX=           -222.5045   YY=           -175.0807   ZZ=           -176.3121
   XY=              0.0077   XZ=             -1.8981   YZ=              0.0007

 Normal termination of Gaussian 16 at Fri Nov  8 17:17:58 2024.
