 Gaussian 16, Revision A.03,
 Gaussian 16:  ES64L-G16RevA.03 25-Dec-2016

 --------------------------------------------
 #p opt UM062X/6-311+G** nosymm int=superfine
 --------------------------------------------

 -------------------
 Title Card Required
 -------------------
 Symbolic Z-matrix:
 Charge =  1 Multiplicity = 2

 SCF Done:  E(UM062X) =  -580.862627805     A.U. after   14 cycles
 SCF Done:  E(UM062X) =  -580.870002512     A.U. after    9 cycles
 SCF Done:  E(UM062X) =  -580.872084972     A.U. after   12 cycles
 SCF Done:  E(UM062X) =  -580.872087734     A.U. after    6 cycles
 Optimization completed.
    -- Stationary point found.

                          Input orientation:
 ---------------------------------------------------------------------
 Center     Atomic      Atomic             Coordinates (Angstroms)
 Number     Number       Type             X           Y           Z
 ---------------------------------------------------------------------
      1         14           0       -2.366295    0.000000    0.000000
      2         14           0        2.366295    0.000000    0.000000
      3          1           0       -3.264768   -1.190273    0.000047
      4          1           0        3.264768    1.190273    0.001077
      5          1           0       -3.264783    1.190262   -0.000042
      6          1           0        3.264783   -1.190262   -0.001071
 ---------------------------------------------------------------------

 Alpha  occ. eigenvalues --  -67.23918 -67.23918  -5.78410  -5.78409  -4.09680
 Alpha  occ. eigenvalues --   -4.09680  -4.09359  -4.09359  -4.09016  -4.09016
 Alpha  occ. eigenvalues --   -0.77930  -0.77852  -0.59734  -0.59714  -0.49047
 Alpha  occ. eigenvalues --   -0.47473
 Alpha virt. eigenvalues --   -0.26770  -0.26312  -0.12191  -0.11979  -0.09228
 Alpha virt. eigenvalues --   -0.08402  -0.07811  -0.06977  -0.06707  -0.05934
 Alpha virt. eigenvalues --   -0.05652  -0.05607  -0.05396  -0.03436   0.12917

  Beta  occ. eigenvalues --  -67.23582 -67.23582  -5.78156  -5.78156  -4.09576
  Beta  occ. eigenvalues --   -4.09576  -4.08906  -4.08906  -4.08582  -4.08582
  Beta  occ. eigenvalues --   -0.76114  -0.75894  -0.58558  -0.58530  -0.42443
  Beta virt. eigenvalues --   -0.33169  -0.25587  -0.25000  -0.11352  -0.11026
  Beta virt. eigenvalues --   -0.09270  -0.07253  -0.06757  -0.06589  -0.06292
  Beta virt. eigenvalues --   -0.05931  -0.05375  -0.05235  -0.04832  -0.02996

 Mulliken charges and spin densities:
               1          2
     1  Si   0.562607   0.388985
     2  Si   0.562607   0.388985
     3  H   -0.031304   0.055507
     4  H   -0.031304   0.055507
     5  H   -0.031303   0.055508
     6  H   -0.031303   0.055508
 Sum of Mulliken charges =   1.00000   1.00000

 Dipole moment (field-independent basis, Debye):
    X=              0.0000    Y=              0.0000    Z=              0.0000  Tot=              0.0000
 Quadrupole moment (field-independent basis, Debye-Ang):
   XX=              6.8206   YY=            -25.9064   ZZ=            -20.8848
   XY=             -0.0000   XZ=              0.0000   YZ=             -0.0022

 Normal termination of Gaussian 16 at Mon Apr 21 20:28:17 2025.
