 Gaussian 16, Revision A.03,
 Gaussian 16:  ES64L-G16RevA.03 25-Dec-2016

 --------------------------------------------
 #p opt UM062X/6-311+G** nosymm int=superfine
 --------------------------------------------

 -------------------
 Title Card Required
 -------------------
 Symbolic Z-matrix:
 Charge =  1 Multiplicity = 2

 SCF Done:  E(UM062X) =  -379.330886057     A.U. after   63 cycles
 SCF Done:  E(UM062X) =  -379.331337747     A.U. after  122 cycles
 SCF Done:  E(UM062X) =  -379.331338818     A.U. after   89 cycles
 Optimization completed.
    -- Stationary point found.

                          Input orientation:
 ---------------------------------------------------------------------
 Center     Atomic      Atomic             Coordinates (Angstroms)
 Number     Number       Type             X           Y           Z
 ---------------------------------------------------------------------
      1          6           0       -2.194427    0.000000    0.000000
      2         15           0        2.194427    0.000000    0.000000
      3          1           0       -3.307023    0.000000    0.000000
 ---------------------------------------------------------------------

 Alpha  occ. eigenvalues --  -78.41655 -10.80822  -7.23289  -5.35353  -5.34799
 Alpha  occ. eigenvalues --   -5.33180  -0.90103  -0.89045  -0.57956  -0.55875
 Alpha  occ. eigenvalues --   -0.47211
 Alpha virt. eigenvalues --   -0.38983  -0.35587  -0.24764  -0.14278  -0.09483
 Alpha virt. eigenvalues --   -0.09347  -0.08644  -0.06079  -0.03120  -0.02800
 Alpha virt. eigenvalues --   -0.00766   0.04585   0.11204   0.13066   0.13070

  Beta  occ. eigenvalues --  -78.41740 -10.79568  -7.23301  -5.35387  -5.35001
  Beta  occ. eigenvalues --   -5.33199  -0.90984  -0.83685  -0.57980  -0.50224
  Beta virt. eigenvalues --   -0.41057  -0.35637  -0.22020  -0.19081  -0.13522
  Beta virt. eigenvalues --   -0.09403  -0.09074  -0.08437  -0.06290  -0.02243
  Beta virt. eigenvalues --   -0.01061  -0.00959   0.06280   0.11809   0.13471

 Mulliken charges and spin densities:
               1          2
     1  C   -0.078684   1.127950
     2  P    0.876251  -0.116852
     3  H    0.202432  -0.011098
 Sum of Mulliken charges =   1.00000   1.00000

 Dipole moment (field-independent basis, Debye):
    X=              5.7448    Y=              0.0000    Z=              0.0000  Tot=              5.7448
 Quadrupole moment (field-independent basis, Debye-Ang):
   XX=             17.7613   YY=            -18.0221   ZZ=            -16.3791
   XY=              0.0002   XZ=              0.0002   YZ=              0.5308

 Normal termination of Gaussian 16 at Mon Apr 21 19:30:09 2025.
