 Gaussian 16, Revision A.03,
 Gaussian 16:  ES64L-G16RevA.03 25-Dec-2016

 --------------------------------------------
 #p opt UM062X/6-311+G** nosymm int=superfine
 --------------------------------------------

 -------------------
 Title Card Required
 -------------------
 Symbolic Z-matrix:
 Charge =  0 Multiplicity = 1

 SCF Done:  E(UM062X) =  -82.0205312786     A.U. after   10 cycles
 SCF Done:  E(UM062X) =  -82.0205594449     A.U. after    7 cycles
 SCF Done:  E(UM062X) =  -82.0205644362     A.U. after    7 cycles
 SCF Done:  E(UM062X) =  -82.0205646159     A.U. after    6 cycles
 Optimization completed.
    -- Stationary point found.

                          Input orientation:
 ---------------------------------------------------------------------
 Center     Atomic      Atomic             Coordinates (Angstroms)
 Number     Number       Type             X           Y           Z
 ---------------------------------------------------------------------
      1          5           0       -0.720399    0.000000    0.000000
      2          7           0        0.720399    0.000000    0.000000
      3          1           0       -1.285457   -1.045827    0.000201
      4          1           0        1.266768    0.845853   -0.000103
      5          1           0       -1.285458    1.045828   -0.000059
      6          1           0        1.266768   -0.845853    0.000111
 ---------------------------------------------------------------------

 Alpha  occ. eigenvalues --  -14.74615  -7.03492  -0.96584  -0.59753  -0.58202
 Alpha  occ. eigenvalues --   -0.45710  -0.38754  -0.35924
 Alpha virt. eigenvalues --    0.00756   0.01885   0.03608   0.03911   0.07404
 Alpha virt. eigenvalues --    0.10661   0.12106   0.16558   0.17121   0.18552
 Alpha virt. eigenvalues --    0.20229   0.22957   0.28154   0.29188   0.43752

  Beta  occ. eigenvalues --  -14.74615  -7.03492  -0.96584  -0.59753  -0.58202
  Beta  occ. eigenvalues --   -0.45710  -0.38754  -0.35924
  Beta virt. eigenvalues --    0.00756   0.01885   0.03608   0.03911   0.07404
  Beta virt. eigenvalues --    0.10661   0.12106   0.16558   0.17121   0.18552
  Beta virt. eigenvalues --    0.20229   0.22957   0.28154   0.29188   0.43752

 Mulliken charges and spin densities:
               1          2
     1  B    0.079421   0.000000
     2  N   -0.559263  -0.000000
     3  H   -0.021708   0.000000
     4  H    0.261629  -0.000000
     5  H   -0.021708  -0.000000
     6  H    0.261629  -0.000000
 Sum of Mulliken charges =  -0.00000  -0.00000

 Dipole moment (field-independent basis, Debye):
    X=              1.5861    Y=             -0.0000    Z=             -0.0001  Tot=              1.5861
 Quadrupole moment (field-independent basis, Debye-Ang):
   XX=            -12.8545   YY=            -13.1539   ZZ=            -15.2446
   XY=              0.0000   XZ=              0.0001   YZ=             -0.0003

 Normal termination of Gaussian 16 at Mon Apr 21 17:41:14 2025.
