 Gaussian 16, Revision A.03,
 Gaussian 16:  ES64L-G16RevA.03 25-Dec-2016

 --------------------------------------------
 #p opt UM062X/6-311+G** nosymm int=superfine
 --------------------------------------------

 -------------------
 Title Card Required
 -------------------
 Symbolic Z-matrix:
 Charge =  1 Multiplicity = 2

 SCF Done:  E(UM062X) =  -76.5865563088     A.U. after   10 cycles
 SCF Done:  E(UM062X) =  -76.5869427842     A.U. after   10 cycles
 Optimization completed.
    -- Stationary point found.

                          Input orientation:
 ---------------------------------------------------------------------
 Center     Atomic      Atomic             Coordinates (Angstroms)
 Number     Number       Type             X           Y           Z
 ---------------------------------------------------------------------
      1          6           0       -1.532160    0.000000    0.000000
      2          6           0        1.532160    0.000000    0.000000
      3          1           0       -2.650940   -0.000000   -0.000000
      4          1           0        2.650939   -0.000000   -0.000000
 ---------------------------------------------------------------------

 Alpha  occ. eigenvalues --  -10.95196 -10.95195  -0.99009  -0.98513  -0.66453
 Alpha  occ. eigenvalues --   -0.61865  -0.49985
 Alpha virt. eigenvalues --   -0.40132  -0.34543  -0.33361  -0.12880  -0.11625
 Alpha virt. eigenvalues --   -0.08033  -0.07502  -0.05697  -0.05080  -0.04683
 Alpha virt. eigenvalues --   -0.01392   0.00442   0.05988   0.23608   0.31322

  Beta  occ. eigenvalues --  -10.94799 -10.94799  -0.96602  -0.96280  -0.65151
  Beta  occ. eigenvalues --   -0.60428
  Beta virt. eigenvalues --   -0.32819  -0.31443  -0.31254  -0.29785  -0.13423
  Beta virt. eigenvalues --   -0.11547  -0.07573  -0.06861  -0.06542  -0.04383
  Beta virt. eigenvalues --   -0.03471  -0.02100   0.02163   0.07316   0.22855

 Mulliken charges and spin densities:
               1          2
     1  C    0.254932   0.516289
     2  C    0.254932   0.516290
     3  H    0.245068  -0.016289
     4  H    0.245068  -0.016289
 Sum of Mulliken charges =   1.00000   1.00000

 Dipole moment (field-independent basis, Debye):
    X=             -0.0000    Y=              0.0000    Z=             -0.0000  Tot=              0.0000
 Quadrupole moment (field-independent basis, Debye-Ang):
   XX=             13.2254   YY=            -11.1726   ZZ=             -9.9017
   XY=              0.0000   XZ=              0.0000   YZ=              0.8047

 Normal termination of Gaussian 16 at Tue Dec  3 11:28:30 2024.
