 Gaussian 16, Revision A.03,
 Gaussian 16:  ES64L-G16RevA.03 25-Dec-2016

 --------------------------------------------
 #p opt UM062X/6-311+G** nosymm int=superfine
 --------------------------------------------

 -------------------
 Title Card Required
 -------------------
 Symbolic Z-matrix:
 Charge =  1 Multiplicity = 2

 SCF Done:  E(UM062X) =  -580.873613672     A.U. after   14 cycles
 SCF Done:  E(UM062X) =  -580.880734903     A.U. after   12 cycles
 SCF Done:  E(UM062X) =  -580.882707177     A.U. after    9 cycles
 SCF Done:  E(UM062X) =  -580.882709683     A.U. after   10 cycles
 Optimization completed.
    -- Stationary point found.

                          Input orientation:
 ---------------------------------------------------------------------
 Center     Atomic      Atomic             Coordinates (Angstroms)
 Number     Number       Type             X           Y           Z
 ---------------------------------------------------------------------
      1         14           0       -2.016295    0.000000    0.000000
      2         14           0        2.016295    0.000000    0.000000
      3          1           0       -2.910921   -1.191184    0.000018
      4          1           0        2.910921    1.191184    0.001049
      5          1           0       -2.910936    1.191173   -0.000109
      6          1           0        2.910936   -1.191173   -0.001140
 ---------------------------------------------------------------------

 Alpha  occ. eigenvalues --  -67.24489 -67.24489  -5.78976  -5.78974  -4.10248
 Alpha  occ. eigenvalues --   -4.10248  -4.09919  -4.09919  -4.09581  -4.09581
 Alpha  occ. eigenvalues --   -0.78609  -0.78313  -0.60330  -0.60251  -0.50858
 Alpha  occ. eigenvalues --   -0.46719
 Alpha virt. eigenvalues --   -0.27704  -0.26604  -0.13404  -0.12087  -0.09291
 Alpha virt. eigenvalues --   -0.08037  -0.07744  -0.07575  -0.06816  -0.06273
 Alpha virt. eigenvalues --   -0.06118  -0.05725  -0.05642  -0.03407   0.13216

  Beta  occ. eigenvalues --  -67.24139 -67.24139  -5.78702  -5.78701  -4.10142
  Beta  occ. eigenvalues --   -4.10142  -4.09466  -4.09466  -4.09135  -4.09134
  Beta  occ. eigenvalues --   -0.76785  -0.76333  -0.59152  -0.59055  -0.44931
  Beta virt. eigenvalues --   -0.31887  -0.26510  -0.25207  -0.12384  -0.11641
  Beta virt. eigenvalues --   -0.09389  -0.07566  -0.07353  -0.06551  -0.06477
  Beta virt. eigenvalues --   -0.06010  -0.05638  -0.05358  -0.05235  -0.03012

 Mulliken charges and spin densities:
               1          2
     1  Si   0.555895   0.385565
     2  Si   0.555895   0.385565
     3  H   -0.027948   0.057217
     4  H   -0.027948   0.057217
     5  H   -0.027947   0.057218
     6  H   -0.027947   0.057218
 Sum of Mulliken charges =   1.00000   1.00000

 Dipole moment (field-independent basis, Debye):
    X=              0.0000    Y=              0.0000    Z=             -0.0000  Tot=              0.0000
 Quadrupole moment (field-independent basis, Debye-Ang):
   XX=             -1.4142   YY=            -25.7938   ZZ=            -20.8176
   XY=             -0.0000   XZ=              0.0000   YZ=             -0.0022

 Normal termination of Gaussian 16 at Mon Apr 21 20:26:16 2025.
