 Gaussian 16, Revision A.03,
 Gaussian 16:  ES64L-G16RevA.03 25-Dec-2016

 ---------------------------------------
 #p UM062X/6-311+G** force int=superfine
 ---------------------------------------

 -------------------
 Title Card Required
 -------------------
 Symbolic Z-matrix:
 Charge =  1 Multiplicity = 2

                         Standard orientation:
 ---------------------------------------------------------------------
 Center     Atomic      Atomic             Coordinates (Angstroms)
 Number     Number       Type             X           Y           Z
 ---------------------------------------------------------------------
      1          6           0       -0.000000    0.749306    0.000000
      2          6           0       -0.000000   -0.749306    0.000000
      3          1           0       -0.942388    1.288497    0.000000
      4          1           0        0.942363    1.288535    0.000000
      5          1           0        0.942388   -1.288497    0.000000
      6          1           0       -0.942363   -1.288535    0.000000
 ---------------------------------------------------------------------

 SCF Done:  E(UM062X) =  -78.1790491937     A.U. after    9 cycles

 The electronic state is 2-AU.
 Alpha  occ. eigenvalues --  -10.90185 -10.90130  -1.15985  -0.98137  -0.83820
 Alpha  occ. eigenvalues --   -0.77771  -0.73830  -0.64683
 Alpha virt. eigenvalues --   -0.30874  -0.14627  -0.12905  -0.12074  -0.09446
 Alpha virt. eigenvalues --   -0.07675  -0.07001  -0.04735  -0.04532  -0.02255
 Alpha virt. eigenvalues --   -0.00875   0.00261   0.04726   0.10460   0.19821

  Beta  occ. eigenvalues --  -10.89959 -10.89916  -1.12189  -0.96171  -0.82821
  Beta  occ. eigenvalues --   -0.76777  -0.73496
  Beta virt. eigenvalues --   -0.40836  -0.23487  -0.16370  -0.12755  -0.12292
  Beta virt. eigenvalues --   -0.09833  -0.08498  -0.07059  -0.04736  -0.03839
  Beta virt. eigenvalues --   -0.01720  -0.01271   0.01437   0.05705   0.10928

 Mulliken charges and spin densities:
               1          2
     1  C   -0.055248   0.538264
     2  C   -0.055248   0.538264
     3  H    0.277622  -0.019132
     4  H    0.277626  -0.019132
     5  H    0.277622  -0.019132
     6  H    0.277626  -0.019132
 Sum of Mulliken charges =   1.00000   1.00000

 Dipole moment (field-independent basis, Debye):
    X=             -0.0000    Y=             -0.0000    Z=              0.0000  Tot=              0.0000
 Quadrupole moment (field-independent basis, Debye-Ang):
   XX=             -8.4324   YY=             -5.1543   ZZ=            -11.6730
   XY=              0.0001   XZ=              0.0000   YZ=              0.0000

 Normal termination of Gaussian 16 at Tue Nov 19 11:54:26 2024.
