 Gaussian 16, Revision A.03,
 Gaussian 16:  ES64L-G16RevA.03 25-Dec-2016

 --------------------------------------------
 #p opt UM062X/6-311+G** nosymm int=superfine
 --------------------------------------------

 -------------------
 Title Card Required
 -------------------
 Symbolic Z-matrix:
 Charge =  0 Multiplicity = 1

 SCF Done:  E(UM062X) =  -78.1934952371     A.U. after    9 cycles
 SCF Done:  E(UM062X) =  -78.2109784493     A.U. after    9 cycles
 SCF Done:  E(UM062X) =  -78.2275968640     A.U. after    8 cycles
 SCF Done:  E(UM062X) =  -78.2280183258     A.U. after    8 cycles
 SCF Done:  E(UM062X) =  -78.2280201877     A.U. after    7 cycles
 Optimization completed.
    -- Stationary point found.

                          Input orientation:
 ---------------------------------------------------------------------
 Center     Atomic      Atomic             Coordinates (Angstroms)
 Number     Number       Type             X           Y           Z
 ---------------------------------------------------------------------
      1          6           0       -1.635595    0.000000    0.000000
      2          6           0        1.635595    0.000000    0.000000
      3          1           0       -2.348087   -0.855747   -0.000000
      4          1           0       -2.348048    0.855780   -0.000000
      5          1           0        2.348087    0.855747    0.000000
      6          1           0        2.348048   -0.855780    0.000000
 ---------------------------------------------------------------------

 Alpha  occ. eigenvalues --  -10.58824 -10.58823  -0.74004  -0.73811  -0.45557
 Alpha  occ. eigenvalues --   -0.45390  -0.31618  -0.27097
 Alpha virt. eigenvalues --   -0.07213  -0.06048   0.02583   0.03615   0.06710
 Alpha virt. eigenvalues --    0.08562   0.08926   0.10504   0.12538   0.15429
 Alpha virt. eigenvalues --    0.17652   0.20025   0.21234   0.23555   0.44483

  Beta  occ. eigenvalues --  -10.58824 -10.58823  -0.74004  -0.73811  -0.45557
  Beta  occ. eigenvalues --   -0.45390  -0.31618  -0.27097
  Beta virt. eigenvalues --   -0.07213  -0.06048   0.02583   0.03615   0.06710
  Beta virt. eigenvalues --    0.08562   0.08926   0.10504   0.12538   0.15429
  Beta virt. eigenvalues --    0.17652   0.20025   0.21234   0.23555   0.44483

 Mulliken charges and spin densities:
               1          2
     1  C   -0.236608   0.000000
     2  C   -0.236608   0.000000
     3  H    0.118304  -0.000000
     4  H    0.118304   0.000000
     5  H    0.118304   0.000000
     6  H    0.118304  -0.000000
 Sum of Mulliken charges =  -0.00000   0.00000

 Dipole moment (field-independent basis, Debye):
    X=             -0.0000    Y=              0.0000    Z=             -0.0000  Tot=              0.0000
 Quadrupole moment (field-independent basis, Debye-Ang):
   XX=             -7.2542   YY=            -14.8265   ZZ=            -13.0108
   XY=             -0.0001   XZ=              0.0000   YZ=              0.0000

 Normal termination of Gaussian 16 at Tue Dec  3 11:11:58 2024.
