 Gaussian 16, Revision A.03,
 Gaussian 16:  ES64L-G16RevA.03 25-Dec-2016

 --------------------------------------------
 #p opt UM062X/6-311+G** nosymm int=superfine
 --------------------------------------------

 -------------------
 Title Card Required
 -------------------
 Symbolic Z-matrix:
 Charge =  1 Multiplicity = 2

 SCF Done:  E(UM062X) =  -1615.43982290     A.U. after   30 cycles
 SCF Done:  E(UM062X) =  -1615.50771849     A.U. after   20 cycles
 SCF Done:  E(UM062X) =  -1615.55227322     A.U. after   26 cycles
 SCF Done:  E(UM062X) =  -1615.55343635     A.U. after   22 cycles
 SCF Done:  E(UM062X) =  -1615.55360928     A.U. after   28 cycles
 SCF Done:  E(UM062X) =  -1615.55413769     A.U. after   25 cycles
 SCF Done:  E(UM062X) =  -1615.54508284     A.U. after   27 cycles
 SCF Done:  E(UM062X) =  -1615.55411764     A.U. after   24 cycles
 SCF Done:  E(UM062X) =  -1615.55427339     A.U. after   23 cycles
 SCF Done:  E(UM062X) =  -1615.55468840     A.U. after   25 cycles
 SCF Done:  E(UM062X) =  -1615.55516862     A.U. after   22 cycles
 SCF Done:  E(UM062X) =  -1615.55517024     A.U. after   22 cycles
 SCF Done:  E(UM062X) =  -1615.55517146     A.U. after   19 cycles
 SCF Done:  E(UM062X) =  -1615.55517613     A.U. after   20 cycles
 SCF Done:  E(UM062X) =  -1615.55517677     A.U. after   19 cycles
 SCF Done:  E(UM062X) =  -1615.55517727     A.U. after   18 cycles
 SCF Done:  E(UM062X) =  -1615.55517746     A.U. after   17 cycles
 SCF Done:  E(UM062X) =  -1615.55517762     A.U. after   18 cycles
 SCF Done:  E(UM062X) =  -1615.55517766     A.U. after   15 cycles
 SCF Done:  E(UM062X) =  -1615.55517767     A.U. after   15 cycles
 Optimization completed.
    -- Stationary point found.

                          Input orientation:
 ---------------------------------------------------------------------
 Center     Atomic      Atomic             Coordinates (Angstroms)
 Number     Number       Type             X           Y           Z
 ---------------------------------------------------------------------
      1          6           0       -1.811849   -0.000000    0.000000
      2          6           0        1.811849    0.000000    0.000000
      3          6           0       -0.000009   -2.003702   -0.002297
      4          6           0        0.000010   -3.412389   -0.004029
      5          6           0       -1.123538   -4.256843    0.219881
      6          6           0       -1.346142   -1.435798    0.175347
      7          6           0        0.660473   -5.648970   -0.142857
      8          1           0        1.293176   -6.514536   -0.277780
      9          6           0       -1.817518    0.782142    1.206949
     10          6           0       -0.660434   -5.649307    0.129262
     11          1           0       -1.293133   -6.515210    0.262030
     12          6           0        1.123577   -4.256283   -0.229980
     13          6           0        1.346115   -1.435391   -0.178621
     14          6           0        2.206037    2.160864   -1.335069
     15          6           0       -2.022921    0.373491   -1.372881
     16          6           0       -2.176701    2.762159    2.609469
     17          1           0       -2.490130    3.796491    2.687476
     18          6           0       -2.337862   -3.689130    0.470772
     19          1           0       -3.228046   -4.275191    0.666589
     20          6           0       -2.324003    1.688180   -1.862800
     21          6           0        2.413460   -2.276464   -0.432941
     22          1           0        3.388061   -1.816954   -0.563597
     23          6           0        2.022980    0.370352    1.373681
     24          6           0        2.324255    1.683897    1.866574
     25          6           0        2.337904   -3.687957   -0.479463
     26          1           0        3.228090   -4.273527   -0.676730
     27          6           0       -2.205680    2.157896    1.339996
     28          6           0       -1.383457    0.133639    2.402995
     29          1           0       -1.076348   -0.900030    2.359306
     30          6           0        1.881323   -0.654985    2.361358
     31          1           0        1.704317   -1.672656    2.047948
     32          6           0       -1.757768    2.093370    3.741003
     33          1           0       -1.749469    2.594912    4.700876
     34          6           0       -2.413445   -2.277532    0.427634
     35          1           0       -3.388058   -1.818351    0.559354
     36          6           0       -2.387028    1.907054   -3.251764
     37          1           0       -2.602806    2.910815   -3.598331
     38          6           0        1.817663    0.784857   -1.205148
     39          6           0       -2.606416    3.033283    0.270742
     40          1           0       -2.899635    4.024147    0.602847
     41          6           0       -2.209692    0.896538   -4.171916
     42          1           0       -2.278227    1.104877   -5.232734
     43          6           0       -2.625641    2.846465   -1.063347
     44          1           0       -2.924983    3.711878   -1.646031
     45          6           0        2.387291    1.899605    3.256067
     46          1           0        2.603192    2.902547    3.604912
     47          6           0       -1.347878    0.762953    3.625975
     48          1           0       -1.007814    0.216238    4.497000
     49          6           0       -1.881444   -0.649600   -2.362878
     50          1           0       -1.704628   -1.668021   -2.051800
     51          6           0        2.209788    0.887030    4.173871
     52          1           0        2.278315    1.092928    5.235166
     53          6           0        2.177191    2.767988   -2.603218
     54          1           0        2.490794    3.802438   -2.678890
     55          6           0        1.977619   -0.411846    3.710744
     56          1           0        1.872185   -1.232910    4.409640
     57          6           0        1.758155    2.101809   -3.736211
     58          1           0        1.749919    2.605500   -4.694960
     59          6           0        2.606822    3.033768   -0.263892
     60          1           0        2.900115    4.025369   -0.593724
     61          6           0       -1.977727   -0.403390   -3.711739
     62          1           0       -1.872456   -1.222910   -4.412472
     63          6           0        2.626011    2.843923    1.069807
     64          1           0        2.925392    3.708008    1.654435
     65          6           0        1.383479    0.139107   -2.402674
     66          1           0        1.076153   -0.894588   -2.361289
     67          6           0        1.348007    0.771181   -3.624197
     68          1           0        1.007792    0.226535   -4.496454
 ---------------------------------------------------------------------

 Alpha  occ. eigenvalues --  -10.70645 -10.70636 -10.68602 -10.68595 -10.68461
 Alpha  occ. eigenvalues --  -10.68454 -10.68176 -10.68168 -10.68058 -10.68021
 Alpha  occ. eigenvalues --  -10.68013 -10.67642 -10.67638 -10.66449 -10.66441
 Alpha  occ. eigenvalues --  -10.66345 -10.66338 -10.65884 -10.65878 -10.65763
 Alpha  occ. eigenvalues --  -10.65757 -10.65713 -10.65707 -10.65535 -10.65530
 Alpha  occ. eigenvalues --  -10.65508 -10.65503 -10.65344 -10.65338 -10.65337
 Alpha  occ. eigenvalues --  -10.65331 -10.65224 -10.65219 -10.65198 -10.65197
 Alpha  occ. eigenvalues --  -10.65073 -10.65071 -10.64759 -10.64757 -10.63986
 Alpha  occ. eigenvalues --  -10.63634 -10.63532  -1.11471  -1.10383  -1.09777
 Alpha  occ. eigenvalues --   -1.08028  -1.07802  -1.04972  -1.04902  -1.02250
 Alpha  occ. eigenvalues --   -1.02085  -1.00977  -0.99978  -0.97780  -0.97557
 Alpha  occ. eigenvalues --   -0.96475  -0.96252  -0.94737  -0.93481  -0.93355
 Alpha  occ. eigenvalues --   -0.92779  -0.91569  -0.87162  -0.86937  -0.84808
 Alpha  occ. eigenvalues --   -0.84677  -0.82961  -0.81392  -0.80595  -0.79664
 Alpha  occ. eigenvalues --   -0.79515  -0.79412  -0.77067  -0.76146  -0.76001
 Alpha  occ. eigenvalues --   -0.75795  -0.75169  -0.73110  -0.69886  -0.69452
 Alpha  occ. eigenvalues --   -0.68522  -0.68499  -0.67702  -0.67519  -0.66730
 Alpha  occ. eigenvalues --   -0.66720  -0.65681  -0.65249  -0.65108  -0.64474
 Alpha  occ. eigenvalues --   -0.63176  -0.62709  -0.62353  -0.61927  -0.60765
 Alpha  occ. eigenvalues --   -0.60670  -0.60392  -0.60032  -0.59859  -0.59535
 Alpha  occ. eigenvalues --   -0.59411  -0.58572  -0.58328  -0.57994  -0.57553
 Alpha  occ. eigenvalues --   -0.57373  -0.56495  -0.55986  -0.55546  -0.55529
 Alpha  occ. eigenvalues --   -0.54856  -0.54566  -0.52890  -0.52720  -0.52534
 Alpha  occ. eigenvalues --   -0.52290  -0.52248  -0.51844  -0.50877  -0.50865
 Alpha  occ. eigenvalues --   -0.50691  -0.49900  -0.49648  -0.49474  -0.48925
 Alpha  occ. eigenvalues --   -0.48478  -0.48057  -0.48037  -0.46153  -0.44275
 Alpha  occ. eigenvalues --   -0.43138  -0.43021  -0.40969  -0.40316  -0.38864
 Alpha  occ. eigenvalues --   -0.38021  -0.37793  -0.36946  -0.29196
 Alpha virt. eigenvalues --   -0.22000  -0.15339  -0.15335  -0.14687  -0.10433
 Alpha virt. eigenvalues --   -0.09341  -0.08727  -0.08506  -0.08324  -0.07673
 Alpha virt. eigenvalues --   -0.07385  -0.07323  -0.06550  -0.06265  -0.06241

  Beta  occ. eigenvalues --  -10.70484 -10.70474 -10.68647 -10.68640 -10.68507
  Beta  occ. eigenvalues --  -10.68500 -10.68134 -10.68126 -10.68030 -10.67977
  Beta  occ. eigenvalues --  -10.67969 -10.67661 -10.67656 -10.66441 -10.66434
  Beta  occ. eigenvalues --  -10.66338 -10.66330 -10.65849 -10.65842 -10.65732
  Beta  occ. eigenvalues --  -10.65726 -10.65671 -10.65665 -10.65526 -10.65520
  Beta  occ. eigenvalues --  -10.65496 -10.65490 -10.65364 -10.65358 -10.65353
  Beta  occ. eigenvalues --  -10.65347 -10.65242 -10.65237 -10.65194 -10.65193
  Beta  occ. eigenvalues --  -10.65061 -10.65059 -10.64758 -10.64756 -10.63984
  Beta  occ. eigenvalues --  -10.63634 -10.63532  -1.11337  -1.10208  -1.09700
  Beta  occ. eigenvalues --   -1.07924  -1.07706  -1.04822  -1.04736  -1.02135
  Beta  occ. eigenvalues --   -1.01977  -1.00800  -0.99816  -0.97676  -0.97456
  Beta  occ. eigenvalues --   -0.96369  -0.96162  -0.94697  -0.93412  -0.93254
  Beta  occ. eigenvalues --   -0.92700  -0.91487  -0.86855  -0.86586  -0.84742
  Beta  occ. eigenvalues --   -0.84613  -0.82886  -0.81301  -0.80501  -0.79587
  Beta  occ. eigenvalues --   -0.79439  -0.79336  -0.76962  -0.76020  -0.75830
  Beta  occ. eigenvalues --   -0.75629  -0.75117  -0.73002  -0.69766  -0.69304
  Beta  occ. eigenvalues --   -0.68429  -0.68390  -0.67655  -0.67473  -0.66611
  Beta  occ. eigenvalues --   -0.66603  -0.65574  -0.65099  -0.64962  -0.64382
  Beta  occ. eigenvalues --   -0.63011  -0.62654  -0.62258  -0.61857  -0.60638
  Beta  occ. eigenvalues --   -0.60517  -0.60276  -0.59952  -0.59800  -0.59359
  Beta  occ. eigenvalues --   -0.59179  -0.58498  -0.58119  -0.57926  -0.57365
  Beta  occ. eigenvalues --   -0.57262  -0.56068  -0.55792  -0.55484  -0.55477
  Beta  occ. eigenvalues --   -0.54815  -0.54249  -0.52790  -0.52621  -0.52484
  Beta  occ. eigenvalues --   -0.52176  -0.52136  -0.51826  -0.50818  -0.50755
  Beta  occ. eigenvalues --   -0.50604  -0.49614  -0.49465  -0.49321  -0.48470
  Beta  occ. eigenvalues --   -0.48130  -0.47996  -0.47174  -0.45396  -0.43881
  Beta  occ. eigenvalues --   -0.42613  -0.42432  -0.40707  -0.40241  -0.38334
  Beta  occ. eigenvalues --   -0.37866  -0.37342  -0.36938
  Beta virt. eigenvalues --   -0.19916  -0.18522  -0.15379  -0.15333  -0.14761
  Beta virt. eigenvalues --   -0.10173  -0.08968  -0.08351  -0.08319  -0.08089
  Beta virt. eigenvalues --   -0.07460  -0.07363  -0.07312  -0.06528  -0.06310

 Mulliken charges and spin densities:
               1          2
     1  C    0.152134   0.299805
     2  C    0.152266   0.299037
     3  C    0.259811   0.025190
     4  C    0.094032  -0.012871
     5  C    0.043674   0.006734
     6  C    0.189441  -0.029652
     7  C   -0.290922   0.000740
     8  H    0.175761   0.000003
     9  C   -0.072196  -0.092348
    10  C   -0.290988   0.000744
    11  H    0.175763   0.000003
    12  C    0.043630   0.006727
    13  C    0.189442  -0.029631
    14  C    0.412346   0.083939
    15  C    0.292204  -0.040026
    16  C   -0.263789  -0.034640
    17  H    0.170240   0.000977
    18  C   -0.420799   0.004080
    19  H    0.174309   0.000039
    20  C    0.387313   0.074265
    21  C   -0.297120   0.019627
    22  H    0.170444  -0.000075
    23  C    0.292275  -0.039877
    24  C    0.387488   0.074080
    25  C   -0.420707   0.004066
    26  H    0.174309   0.000039
    27  C    0.412212   0.084127
    28  C    0.071958   0.112254
    29  H    0.199842  -0.005808
    30  C   -0.284697   0.029819
    31  H    0.229291  -0.004284
    32  C   -0.391514   0.068736
    33  H    0.178407  -0.003602
    34  C   -0.296961   0.019676
    35  H    0.170459  -0.000075
    36  C   -0.118449  -0.050608
    37  H    0.166525   0.001017
    38  C   -0.072299  -0.092192
    39  C   -0.438539   0.021406
    40  H    0.175030  -0.001292
    41  C   -0.202352   0.076201
    42  H    0.181527  -0.003507
    43  C   -0.329039   0.028630
    44  H    0.175421  -0.001182
    45  C   -0.118479  -0.050507
    46  H    0.166542   0.001014
    47  C    0.055828  -0.036429
    48  H    0.161894   0.001367
    49  C   -0.284751   0.030025
    50  H    0.229243  -0.004291
    51  C   -0.202290   0.075994
    52  H    0.181552  -0.003496
    53  C   -0.263793  -0.034527
    54  H    0.170261   0.000974
    55  C   -0.507584  -0.033052
    56  H    0.176055   0.001051
    57  C   -0.391535   0.068537
    58  H    0.178435  -0.003591
    59  C   -0.438425   0.021373
    60  H    0.175058  -0.001289
    61  C   -0.507537  -0.033191
    62  H    0.176034   0.001055
    63  C   -0.329068   0.028605
    64  H    0.175446  -0.001180
    65  C    0.072158   0.112064
    66  H    0.199875  -0.005793
    67  C    0.055974  -0.036365
    68  H    0.161924   0.001367
 Sum of Mulliken charges =   1.00000   1.00000

 Dipole moment (field-independent basis, Debye):
    X=              0.0081    Y=              2.8997    Z=              0.0036  Tot=              2.8997
 Quadrupole moment (field-independent basis, Debye-Ang):
   XX=           -213.3815   YY=           -175.8768   ZZ=           -177.7248
   XY=              0.0107   XZ=              5.5660   YZ=              0.0009

 Normal termination of Gaussian 16 at Sat Nov 16 09:45:30 2024.
