 Gaussian 16, Revision A.03,
 Gaussian 16:  ES64L-G16RevA.03 25-Dec-2016

 --------------------------------------------
 #p opt UM062X/6-311+G** nosymm int=superfine
 --------------------------------------------

 -------------------
 Title Card Required
 -------------------
 Symbolic Z-matrix:
 Charge =  1 Multiplicity = 2

 SCF Done:  E(UM062X) =  -92.5735629897     A.U. after   25 cycles
 SCF Done:  E(UM062X) =  -92.5739002797     A.U. after   11 cycles
 Optimization completed.
    -- Stationary point found.

                          Input orientation:
 ---------------------------------------------------------------------
 Center     Atomic      Atomic             Coordinates (Angstroms)
 Number     Number       Type             X           Y           Z
 ---------------------------------------------------------------------
      1          6           0       -2.101539    0.000000    0.000000
      2          7           0        2.101539    0.000000    0.000000
      3          1           0       -3.219112    0.000000    0.000000
 ---------------------------------------------------------------------

 Alpha  occ. eigenvalues --  -15.19958 -10.97883  -1.15571  -0.98938  -0.70668
 Alpha  occ. eigenvalues --   -0.67508  -0.65307
 Alpha virt. eigenvalues --   -0.41080  -0.34172  -0.32729  -0.13640  -0.10074
 Alpha virt. eigenvalues --   -0.07614  -0.06825  -0.04149  -0.02064  -0.01918
 Alpha virt. eigenvalues --   -0.01504   0.06212   0.25601   0.35321   0.35574

  Beta  occ. eigenvalues --  -15.17409 -10.98243  -1.03986  -1.01035  -0.66471
  Beta  occ. eigenvalues --   -0.49588
  Beta virt. eigenvalues --   -0.42840  -0.37727  -0.35996  -0.32984  -0.13422
  Beta virt. eigenvalues --   -0.10342  -0.08199  -0.07904  -0.04769  -0.02753
  Beta virt. eigenvalues --   -0.01915  -0.01523   0.04540   0.26272   0.34951

 Mulliken charges and spin densities:
               1          2
     1  C    0.325940  -0.448893
     2  N    0.434740   1.434375
     3  H    0.239320   0.014518
 Sum of Mulliken charges =   1.00000   1.00000

 Dipole moment (field-independent basis, Debye):
    X=             -3.4556    Y=              0.0000    Z=              0.0000  Tot=              3.4556
 Quadrupole moment (field-independent basis, Debye-Ang):
   XX=             21.7615   YY=             -9.4547   ZZ=            -11.2035
   XY=              0.0000   XZ=              0.0000   YZ=             -0.2263

 Normal termination of Gaussian 16 at Mon Apr 21 18:37:24 2025.
