 Gaussian 16, Revision A.03,
 Gaussian 16:  ES64L-G16RevA.03 25-Dec-2016

 --------------------------------------------
 #p opt UM062X/6-311+G** nosymm int=superfine
 --------------------------------------------

 -------------------
 Title Card Required
 -------------------
 Symbolic Z-matrix:
 Charge =  0 Multiplicity = 3

 SCF Done:  E(UM062X) =  -50.4845672968     A.U. after   13 cycles
 SCF Done:  E(UM062X) =  -50.4854735788     A.U. after   10 cycles
 SCF Done:  E(UM062X) =  -50.4854804261     A.U. after    8 cycles
 Optimization completed.
    -- Stationary point found.

                          Input orientation:
 ---------------------------------------------------------------------
 Center     Atomic      Atomic             Coordinates (Angstroms)
 Number     Number       Type             X           Y           Z
 ---------------------------------------------------------------------
      1          5           0       -1.853410    0.000000    0.000000
      2          5           0        1.853410    0.000000    0.000000
      3          1           0       -3.058683   -0.000082    0.000000
      4          1           0        3.058683    0.000082   -0.000000
 ---------------------------------------------------------------------

 Alpha  occ. eigenvalues --   -7.14346  -7.14345  -0.56866  -0.56626  -0.33769
 Alpha  occ. eigenvalues --   -0.30185  -0.18001
 Alpha virt. eigenvalues --   -0.09754  -0.06477  -0.05267   0.02670   0.02840
 Alpha virt. eigenvalues --    0.05816   0.07095   0.07133   0.08131   0.08134
 Alpha virt. eigenvalues --    0.11638   0.17200   0.22270   0.33631   0.39298

  Beta  occ. eigenvalues --   -7.13434  -7.13434  -0.53553  -0.53379  -0.24358
  Beta virt. eigenvalues --   -0.10667  -0.04615  -0.04109  -0.02944  -0.02435
  Beta virt. eigenvalues --    0.01823   0.02463   0.07023   0.07297   0.07722
  Beta virt. eigenvalues --    0.08110   0.08996   0.09581   0.17893   0.23608

 Mulliken charges and spin densities:
               1          2
     1  B   -0.064521   0.924444
     2  B   -0.064521   0.924444
     3  H    0.064521   0.075556
     4  H    0.064521   0.075556
 Sum of Mulliken charges =  -0.00000   2.00000

 Dipole moment (field-independent basis, Debye):
    X=             -0.0000    Y=              0.0000    Z=             -0.0000  Tot=              0.0000
 Quadrupole moment (field-independent basis, Debye-Ang):
   XX=             -8.2667   YY=            -13.6633   ZZ=            -17.6873
   XY=              0.0000   XZ=             -0.0000   YZ=             -0.0001

 1\1\GINC-NODE06\FOpt\UM062X\6-311+G(d,p)\B2H2(3)\SZHAO\21-Apr-2025\0\\
 #p opt UM062X/6-311+G** nosymm int=superfine\\Title Card Required\\0,3
 \B,-1.85341047,0.,0.\B,1.85341047,0.,0.\H,-3.0586829738,-0.000082224,0
 .0000000024\H,3.0586829736,0.0000822241,-0.0000000024\\Version=ES64L-G
 16RevA.03\HF=-50.4854804\S2=2.019189\S2-1=0.\S2A=2.000016\RMSD=6.857e-
 09\RMSF=4.364e-07\Dipole=-0.0000017,0.,0.\Quadrupole=3.67206,-0.340155
 3,-3.3319048,0.0000095,0.,-0.0000868\PG=C*V [C*(H1B1B1H1)]\\@

 Normal termination of Gaussian 16 at Mon Apr 21 17:29:23 2025.
