 Gaussian 16, Revision A.03,
 Gaussian 16:  ES64L-G16RevA.03 25-Dec-2016

 ---------------------------------------
 #p UM062X/6-311+G** force int=superfine
 ---------------------------------------

 -------------------
 Title Card Required
 -------------------
 Symbolic Z-matrix:
 Charge =  0 Multiplicity = 1

                         Standard orientation:
 ---------------------------------------------------------------------
 Center     Atomic      Atomic             Coordinates (Angstroms)
 Number     Number       Type             X           Y           Z
 ---------------------------------------------------------------------
      1          7           0        0.000000    0.000000    1.745048
      2          7           0        0.000000    0.000000   -1.745048
 ---------------------------------------------------------------------

 SCF Done:  E(UM062X) =  -108.725602342     A.U. after    9 cycles

 The electronic state is 1-SGG.
 Alpha  occ. eigenvalues --  -14.96236 -14.96233  -0.87225  -0.86504  -0.33369
 Alpha  occ. eigenvalues --   -0.32429  -0.32429
 Alpha virt. eigenvalues --   -0.24039  -0.24039  -0.22770   0.06942   0.09275
 Alpha virt. eigenvalues --    0.11022   0.11022   0.14808   0.14808   0.14970
 Alpha virt. eigenvalues --    0.21832   0.76379   0.77334   0.77334   0.78601

  Beta  occ. eigenvalues --  -14.96236 -14.96233  -0.87225  -0.86504  -0.33369
  Beta  occ. eigenvalues --   -0.32429  -0.32429
  Beta virt. eigenvalues --   -0.24039  -0.24039  -0.22770   0.06942   0.09275
  Beta virt. eigenvalues --    0.11022   0.11022   0.14808   0.14808   0.14970
  Beta virt. eigenvalues --    0.21832   0.76379   0.77334   0.77334   0.78601

 Mulliken charges and spin densities:
               1          2
     1  N   -0.000000  -0.000000
     2  N   -0.000000  -0.000000
 Sum of Mulliken charges =  -0.00000  -0.00000

 Dipole moment (field-independent basis, Debye):
    X=             -0.0000    Y=             -0.0000    Z=             -0.0000  Tot=              0.0000
 Quadrupole moment (field-independent basis, Debye-Ang):
   XX=            -12.4451   YY=            -12.4451   ZZ=            -10.8039
   XY=              0.0000   XZ=             -0.0000   YZ=              0.0000

 Optimization completed.
    -- Stationary point found.
 Normal termination of Gaussian 16 at Wed Feb 26 14:03:37 2025.
