 Gaussian 16, Revision A.03,
 Gaussian 16:  ES64L-G16RevA.03 25-Dec-2016

 --------------------------------------------
 #p opt UM062X/6-311+G** nosymm int=superfine
 --------------------------------------------

 -------------------
 Title Card Required
 -------------------
 Symbolic Z-matrix:
 Charge =  1 Multiplicity = 2

 SCF Done:  E(UM062X) =  -77.9635623901     A.U. after    9 cycles
 SCF Done:  E(UM062X) =  -78.0042265292     A.U. after    9 cycles
 SCF Done:  E(UM062X) =  -78.0402954742     A.U. after   11 cycles
 SCF Done:  E(UM062X) =  -78.0488579281     A.U. after    8 cycles
 SCF Done:  E(UM062X) =  -78.0495473097     A.U. after    9 cycles
 SCF Done:  E(UM062X) =  -78.0495540682     A.U. after    7 cycles
 Optimization completed.
    -- Stationary point found.

                          Input orientation:
 ---------------------------------------------------------------------
 Center     Atomic      Atomic             Coordinates (Angstroms)
 Number     Number       Type             X           Y           Z
 ---------------------------------------------------------------------
      1          6           0       -1.039131    0.000000    0.000000
      2          6           0        1.039131    0.000000    0.000000
      3          1           0       -1.494011   -0.984958   -0.000000
      4          1           0       -1.493969    0.985007   -0.000000
      5          1           0        1.494011    0.984958   -0.000000
      6          1           0        1.493969   -0.985008   -0.000000
 ---------------------------------------------------------------------

 Alpha  occ. eigenvalues --  -10.92262 -10.92248  -1.06364  -1.00181  -0.80588
 Alpha  occ. eigenvalues --   -0.77657  -0.66417  -0.55860
 Alpha virt. eigenvalues --   -0.36778  -0.25391  -0.14077  -0.11001  -0.10177
 Alpha virt. eigenvalues --   -0.08334  -0.07488  -0.07146  -0.04756  -0.04081
 Alpha virt. eigenvalues --   -0.02900  -0.00401   0.02065   0.09329   0.17932

  Beta  occ. eigenvalues --  -10.92025 -10.92016  -1.03313  -0.97934  -0.80070
  Beta  occ. eigenvalues --   -0.77302  -0.64836
  Beta virt. eigenvalues --   -0.35156  -0.27976  -0.23044  -0.15373  -0.11318
  Beta virt. eigenvalues --   -0.10256  -0.07766  -0.07527  -0.07383  -0.04159
  Beta virt. eigenvalues --   -0.03889  -0.02421   0.00163   0.01230   0.10090

 Mulliken charges and spin densities:
               1          2
     1  C   -0.067582   0.541363
     2  C   -0.067582   0.541363
     3  H    0.283790  -0.020681
     4  H    0.283792  -0.020682
     5  H    0.283790  -0.020681
     6  H    0.283792  -0.020682
 Sum of Mulliken charges =   1.00000   1.00000

 Dipole moment (field-independent basis, Debye):
    X=              0.0000    Y=             -0.0000    Z=             -0.0000  Tot=              0.0000
 Quadrupole moment (field-independent basis, Debye-Ang):
   XX=             -1.6819   YY=             -8.1122   ZZ=            -12.5616
   XY=             -0.0000   XZ=              0.0000   YZ=              0.0000

 Normal termination of Gaussian 16 at Tue Nov 19 11:23:49 2024.
