 Gaussian 16, Revision A.03,
 Gaussian 16:  ES64L-G16RevA.03 25-Dec-2016

 --------------------------------------------
 #p opt UM062X/6-311+G** nosymm int=superfine
 --------------------------------------------

 -------------------
 Title Card Required
 -------------------
 Symbolic Z-matrix:
 Charge =  0 Multiplicity = 1

 SCF Done:  E(UM062X) =  -581.131928132     A.U. after    9 cycles
 SCF Done:  E(UM062X) =  -581.152732770     A.U. after    8 cycles
 SCF Done:  E(UM062X) =  -581.166522894     A.U. after    9 cycles
 SCF Done:  E(UM062X) =  -581.166542575     A.U. after    8 cycles
 SCF Done:  E(UM062X) =  -581.166543179     A.U. after    8 cycles
 Optimization completed.
    -- Stationary point found.

                          Input orientation:
 ---------------------------------------------------------------------
 Center     Atomic      Atomic             Coordinates (Angstroms)
 Number     Number       Type             X           Y           Z
 ---------------------------------------------------------------------
      1         14           0       -1.812518    0.000000    0.000000
      2         14           0        1.812518    0.000000    0.000000
      3          1           0       -2.888786   -1.078448    0.004041
      4          1           0        2.888786    1.078450    0.003458
      5          1           0       -2.888794    1.078440    0.004379
      6          1           0        2.888794   -1.078437    0.004954
 ---------------------------------------------------------------------

 Alpha  occ. eigenvalues --  -67.00842 -67.00842  -5.55603  -5.55602  -3.86821
 Alpha  occ. eigenvalues --   -3.86820  -3.86289  -3.86288  -3.86170  -3.86170
 Alpha  occ. eigenvalues --   -0.57121  -0.56628  -0.37370  -0.37189  -0.31398
 Alpha  occ. eigenvalues --   -0.24833
 Alpha virt. eigenvalues --   -0.08849  -0.06819   0.01924   0.02079   0.03311
 Alpha virt. eigenvalues --    0.04500   0.05891   0.06031   0.06166   0.06264
 Alpha virt. eigenvalues --    0.09709   0.10371   0.12168   0.14367   0.27619

  Beta  occ. eigenvalues --  -67.00842 -67.00842  -5.55603  -5.55602  -3.86821
  Beta  occ. eigenvalues --   -3.86820  -3.86289  -3.86288  -3.86170  -3.86170
  Beta  occ. eigenvalues --   -0.57121  -0.56628  -0.37370  -0.37189  -0.31398
  Beta  occ. eigenvalues --   -0.24833
  Beta virt. eigenvalues --   -0.08849  -0.06819   0.01924   0.02079   0.03311
  Beta virt. eigenvalues --    0.04500   0.05891   0.06031   0.06166   0.06264
  Beta virt. eigenvalues --    0.09709   0.10371   0.12168   0.14367   0.27619

 Mulliken charges and spin densities:
               1          2
     1  Si   0.316590   0.000000
     2  Si   0.316590  -0.000000
     3  H   -0.158295   0.000000
     4  H   -0.158295   0.000000
     5  H   -0.158295  -0.000000
     6  H   -0.158295   0.000000
 Sum of Mulliken charges =  -0.00000  -0.00000

 Dipole moment (field-independent basis, Debye):
    X=              0.0000    Y=              0.0000    Z=              0.0008  Tot=              0.0008
 Quadrupole moment (field-independent basis, Debye-Ang):
   XX=            -38.2651   YY=            -32.9057   ZZ=            -24.3914
   XY=             -0.0000   XZ=              0.0000   YZ=              0.0023

 Normal termination of Gaussian 16 at Mon Apr 21 20:27:28 2025.
