 Gaussian 16, Revision A.03,
 Gaussian 16:  ES64L-G16RevA.03 25-Dec-2016

 --------------------------------------------
 #p opt UM062X/6-311+G** nosymm int=superfine
 --------------------------------------------

 -------------------
 Title Card Required
 -------------------
 Symbolic Z-matrix:
 Charge =  1 Multiplicity = 2

 SCF Done:  E(UM062X) =  -1615.56432267     A.U. after   27 cycles
 SCF Done:  E(UM062X) =  -1615.57202822     A.U. after   23 cycles
 SCF Done:  E(UM062X) =  -1615.57236268     A.U. after   27 cycles
 SCF Done:  E(UM062X) =  -1615.57205831     A.U. after   26 cycles
 SCF Done:  E(UM062X) =  -1615.57081055     A.U. after   28 cycles
 SCF Done:  E(UM062X) =  -1615.57257492     A.U. after   23 cycles
 SCF Done:  E(UM062X) =  -1615.57256705     A.U. after   25 cycles
 SCF Done:  E(UM062X) =  -1615.57260337     A.U. after   24 cycles
 SCF Done:  E(UM062X) =  -1615.57261476     A.U. after   19 cycles
 SCF Done:  E(UM062X) =  -1615.57261504     A.U. after   19 cycles
 SCF Done:  E(UM062X) =  -1615.57261554     A.U. after   18 cycles
 SCF Done:  E(UM062X) =  -1615.57261585     A.U. after   18 cycles
 SCF Done:  E(UM062X) =  -1615.57261632     A.U. after   19 cycles
 SCF Done:  E(UM062X) =  -1615.57261652     A.U. after   16 cycles
 SCF Done:  E(UM062X) =  -1615.57261657     A.U. after   16 cycles
 SCF Done:  E(UM062X) =  -1615.57261660     A.U. after   15 cycles
 Optimization completed.
    -- Stationary point found.

                          Input orientation:
 ---------------------------------------------------------------------
 Center     Atomic      Atomic             Coordinates (Angstroms)
 Number     Number       Type             X           Y           Z
 ---------------------------------------------------------------------
      1          6           0       -1.683429    0.000000    0.000000
      2          6           0        1.683429    0.000000    0.000000
      3          6           0       -0.000024   -2.044128   -0.002194
      4          6           0       -0.000017   -3.447806   -0.003708
      5          6           0       -1.132674   -4.284832    0.186242
      6          6           0       -1.333099   -1.462762    0.155518
      7          6           0        0.664986   -5.677653   -0.121010
      8          1           0        1.299419   -6.545030   -0.234558
      9          6           0       -1.685020    0.758756    1.224534
     10          6           0       -0.665004   -5.677906    0.108760
     11          1           0       -1.299434   -6.545531    0.220419
     12          6           0        1.132651   -4.284412   -0.195459
     13          6           0        1.333052   -1.462423   -0.158656
     14          6           0        1.805499    2.185970   -1.350417
     15          6           0       -1.794836    0.416650   -1.371913
     16          6           0       -1.834732    2.757963    2.638871
     17          1           0       -1.942124    3.834041    2.711308
     18          6           0       -2.351140   -3.705411    0.398670
     19          1           0       -3.251488   -4.285877    0.562667
     20          6           0       -1.790516    1.766795   -1.859158
     21          6           0        2.418032   -2.290065   -0.373005
     22          1           0        3.390241   -1.820689   -0.486484
     23          6           0        1.794781    0.413691    1.372793
     24          6           0        1.790799    1.762812    1.862894
     25          6           0        2.351114   -3.704527   -0.406617
     26          1           0        3.251467   -4.284633   -0.571857
     27          6           0       -1.804638    2.183172    1.355029
     28          6           0       -1.522162    0.030750    2.441086
     29          1           0       -1.386996   -1.039078    2.399847
     30          6           0        1.855004   -0.616024    2.365450
     31          1           0        1.886457   -1.648825    2.053786
     32          6           0       -1.724465    2.007912    3.791165
     33          1           0       -1.760235    2.486981    4.762036
     34          6           0       -2.418066   -2.290884    0.368104
     35          1           0       -3.390279   -1.821760    0.482594
     36          6           0       -1.806662    1.997437   -3.249293
     37          1           0       -1.785673    3.025109   -3.592943
     38          6           0        1.685063    0.761356   -1.222920
     39          6           0       -1.824543    3.135133    0.276530
     40          1           0       -1.853654    4.168938    0.606647
     41          6           0       -1.863981    0.976774   -4.170526
     42          1           0       -1.891652    1.197080   -5.230801
     43          6           0       -1.786755    2.961275   -1.059841
     44          1           0       -1.780009    3.876721   -1.643670
     45          6           0        1.806371    1.990491    3.253522
     46          1           0        1.785574    3.017436    3.599353
     47          6           0       -1.547541    0.627085    3.681411
     48          1           0       -1.428663    0.016836    4.568496
     49          6           0       -1.855629   -0.610933   -2.366742
     50          1           0       -1.887193   -1.644390   -2.057274
     51          6           0        1.862942    0.967847    4.172601
     52          1           0        1.890149    1.185892    5.233356
     53          6           0        1.835517    2.763482   -2.633044
     54          1           0        1.943556    3.839643   -2.703228
     55          6           0        1.904638   -0.353649    3.712481
     56          1           0        1.971553   -1.176291    4.413979
     57          6           0        1.724382    2.015954   -3.786891
     58          1           0        1.760090    2.497074   -4.756749
     59          6           0        1.826393    3.135611   -0.269910
     60          1           0        1.856526    4.170086   -0.597829
     61          6           0       -1.905745   -0.345683   -3.713198
     62          1           0       -1.973103   -1.166823   -4.416413
     63          6           0        1.788243    2.958965    1.066093
     64          1           0        1.782243    3.873187    1.651846
     65          6           0        1.521426    0.036026   -2.440972
     66          1           0        1.385671   -1.033813   -2.401973
     67          6           0        1.546704    0.634993   -3.680026
     68          1           0        1.427161    0.026709   -4.568370
 ---------------------------------------------------------------------

 Alpha  occ. eigenvalues --  -10.70658 -10.70657 -10.68678 -10.68677 -10.68616
 Alpha  occ. eigenvalues --  -10.68615 -10.68261 -10.68260 -10.68254 -10.68253
 Alpha  occ. eigenvalues --  -10.67718 -10.67548 -10.67538 -10.66711 -10.66710
 Alpha  occ. eigenvalues --  -10.66607 -10.66606 -10.65915 -10.65914 -10.65878
 Alpha  occ. eigenvalues --  -10.65877 -10.65728 -10.65728 -10.65678 -10.65677
 Alpha  occ. eigenvalues --  -10.65610 -10.65610 -10.65578 -10.65577 -10.65394
 Alpha  occ. eigenvalues --  -10.65393 -10.65349 -10.65349 -10.65344 -10.65344
 Alpha  occ. eigenvalues --  -10.65179 -10.65179 -10.64823 -10.64822 -10.63866
 Alpha  occ. eigenvalues --  -10.63716 -10.63615  -1.11681  -1.10368  -1.09939
 Alpha  occ. eigenvalues --   -1.08240  -1.07822  -1.05117  -1.04985  -1.02469
 Alpha  occ. eigenvalues --   -1.02153  -1.01027  -1.00139  -0.97915  -0.97657
 Alpha  occ. eigenvalues --   -0.96670  -0.96306  -0.94822  -0.93544  -0.93453
 Alpha  occ. eigenvalues --   -0.92862  -0.91675  -0.87325  -0.87104  -0.84966
 Alpha  occ. eigenvalues --   -0.84814  -0.82991  -0.81531  -0.80652  -0.79733
 Alpha  occ. eigenvalues --   -0.79655  -0.79532  -0.77268  -0.76272  -0.76148
 Alpha  occ. eigenvalues --   -0.75891  -0.75278  -0.73244  -0.70105  -0.69591
 Alpha  occ. eigenvalues --   -0.68669  -0.68516  -0.67746  -0.67644  -0.66888
 Alpha  occ. eigenvalues --   -0.66881  -0.65728  -0.65339  -0.65224  -0.64642
 Alpha  occ. eigenvalues --   -0.63216  -0.62695  -0.62400  -0.62094  -0.60920
 Alpha  occ. eigenvalues --   -0.60907  -0.60510  -0.60150  -0.60006  -0.60002
 Alpha  occ. eigenvalues --   -0.59518  -0.58793  -0.58680  -0.58084  -0.57599
 Alpha  occ. eigenvalues --   -0.57369  -0.57176  -0.55909  -0.55650  -0.55644
 Alpha  occ. eigenvalues --   -0.54912  -0.54091  -0.52991  -0.52842  -0.52591
 Alpha  occ. eigenvalues --   -0.52418  -0.52347  -0.52005  -0.51028  -0.50958
 Alpha  occ. eigenvalues --   -0.50859  -0.50710  -0.49614  -0.49557  -0.49446
 Alpha  occ. eigenvalues --   -0.48344  -0.48263  -0.47988  -0.45664  -0.44700
 Alpha  occ. eigenvalues --   -0.43798  -0.42801  -0.40631  -0.40408  -0.39237
 Alpha  occ. eigenvalues --   -0.38125  -0.37545  -0.36990  -0.30108
 Alpha virt. eigenvalues --   -0.21530  -0.16009  -0.15508  -0.14359  -0.10724
 Alpha virt. eigenvalues --   -0.09963  -0.08924  -0.08569  -0.08331  -0.07588
 Alpha virt. eigenvalues --   -0.07539  -0.07457  -0.06634  -0.06289  -0.06190

  Beta  occ. eigenvalues --  -10.70495 -10.70493 -10.68727 -10.68726 -10.68660
  Beta  occ. eigenvalues --  -10.68660 -10.68215 -10.68214 -10.68214 -10.68213
  Beta  occ. eigenvalues --  -10.67691 -10.67567 -10.67555 -10.66708 -10.66707
  Beta  occ. eigenvalues --  -10.66601 -10.66599 -10.65874 -10.65873 -10.65842
  Beta  occ. eigenvalues --  -10.65841 -10.65696 -10.65695 -10.65639 -10.65638
  Beta  occ. eigenvalues --  -10.65630 -10.65629 -10.65597 -10.65596 -10.65411
  Beta  occ. eigenvalues --  -10.65410 -10.65369 -10.65368 -10.65341 -10.65341
  Beta  occ. eigenvalues --  -10.65166 -10.65166 -10.64822 -10.64821 -10.63862
  Beta  occ. eigenvalues --  -10.63716 -10.63615  -1.11536  -1.10198  -1.09866
  Beta  occ. eigenvalues --   -1.08135  -1.07734  -1.04947  -1.04838  -1.02359
  Beta  occ. eigenvalues --   -1.02060  -1.00847  -0.99976  -0.97813  -0.97563
  Beta  occ. eigenvalues --   -0.96562  -0.96216  -0.94778  -0.93475  -0.93358
  Beta  occ. eigenvalues --   -0.92798  -0.91592  -0.87023  -0.86747  -0.84902
  Beta  occ. eigenvalues --   -0.84754  -0.82915  -0.81435  -0.80558  -0.79652
  Beta  occ. eigenvalues --   -0.79588  -0.79462  -0.77165  -0.76133  -0.75985
  Beta  occ. eigenvalues --   -0.75730  -0.75237  -0.73128  -0.69989  -0.69447
  Beta  occ. eigenvalues --   -0.68557  -0.68401  -0.67703  -0.67602  -0.66771
  Beta  occ. eigenvalues --   -0.66763  -0.65638  -0.65187  -0.65080  -0.64549
  Beta  occ. eigenvalues --   -0.63047  -0.62643  -0.62321  -0.62027  -0.60778
  Beta  occ. eigenvalues --   -0.60691  -0.60391  -0.60045  -0.59949  -0.59784
  Beta  occ. eigenvalues --   -0.59373  -0.58696  -0.58551  -0.58009  -0.57502
  Beta  occ. eigenvalues --   -0.57139  -0.56774  -0.55680  -0.55602  -0.55599
  Beta  occ. eigenvalues --   -0.54879  -0.53799  -0.52892  -0.52758  -0.52535
  Beta  occ. eigenvalues --   -0.52316  -0.52230  -0.51983  -0.50965  -0.50841
  Beta  occ. eigenvalues --   -0.50784  -0.50285  -0.49449  -0.49412  -0.48869
  Beta  occ. eigenvalues --   -0.48274  -0.47723  -0.47585  -0.44903  -0.44207
  Beta  occ. eigenvalues --   -0.43089  -0.42448  -0.40348  -0.40341  -0.38637
  Beta  occ. eigenvalues --   -0.38048  -0.37184  -0.36963
  Beta virt. eigenvalues --   -0.20529  -0.18351  -0.15918  -0.15504  -0.14426
  Beta virt. eigenvalues --   -0.10372  -0.09553  -0.08556  -0.08547  -0.08005
  Beta virt. eigenvalues --   -0.07624  -0.07559  -0.07280  -0.06624  -0.06286

 Mulliken charges and spin densities:
               1          2
     1  C    0.042694   0.366246
     2  C    0.041842   0.365984
     3  C    0.371291   0.027462
     4  C    0.219947  -0.018868
     5  C    0.106804   0.007702
     6  C    0.025656  -0.043886
     7  C   -0.320402   0.000594
     8  H    0.176022   0.000004
     9  C   -0.010090  -0.049212
    10  C   -0.320607   0.000593
    11  H    0.176022   0.000004
    12  C    0.106692   0.007732
    13  C    0.026249  -0.043851
    14  C    0.598153   0.032149
    15  C    0.341453  -0.075699
    16  C   -0.442727  -0.037749
    17  H    0.164630   0.001160
    18  C   -0.456610   0.001051
    19  H    0.175200   0.000089
    20  C    0.271895   0.109708
    21  C   -0.107659   0.023024
    22  H    0.177683  -0.000492
    23  C    0.341331  -0.075584
    24  C    0.272232   0.109597
    25  C   -0.456781   0.001050
    26  H    0.175202   0.000089
    27  C    0.597157   0.032133
    28  C   -0.065200   0.086138
    29  H    0.212581  -0.005052
    30  C   -0.243240   0.035911
    31  H    0.223472  -0.003737
    32  C   -0.392365   0.063745
    33  H    0.182288  -0.003653
    34  C   -0.107248   0.023096
    35  H    0.177709  -0.000492
    36  C   -0.030841  -0.065487
    37  H    0.158917   0.001461
    38  C   -0.010854  -0.049239
    39  C   -0.358721   0.046072
    40  H    0.163186  -0.002176
    41  C   -0.200532   0.076117
    42  H    0.181146  -0.004035
    43  C   -0.368414   0.010894
    44  H    0.160694  -0.000441
    45  C   -0.030167  -0.065447
    46  H    0.158896   0.001459
    47  C    0.055908  -0.039169
    48  H    0.167162   0.000298
    49  C   -0.243350   0.035998
    50  H    0.223472  -0.003735
    51  C   -0.199932   0.076179
    52  H    0.181141  -0.004039
    53  C   -0.442225  -0.037762
    54  H    0.164632   0.001159
    55  C   -0.560777  -0.037422
    56  H    0.176560   0.001513
    57  C   -0.392304   0.063712
    58  H    0.182293  -0.003651
    59  C   -0.359908   0.046021
    60  H    0.163240  -0.002169
    61  C   -0.560179  -0.037421
    62  H    0.176553   0.001513
    63  C   -0.369284   0.010945
    64  H    0.160760  -0.000441
    65  C   -0.064221   0.086144
    66  H    0.212560  -0.005050
    67  C    0.056166  -0.039085
    68  H    0.167149   0.000298
 Sum of Mulliken charges =   1.00000   1.00000

 Dipole moment (field-independent basis, Debye):
    X=              0.0012    Y=              2.5555    Z=              0.0028  Tot=              2.5555
 Quadrupole moment (field-independent basis, Debye-Ang):
   XX=           -222.0322   YY=           -174.7160   ZZ=           -176.3840
   XY=              0.0120   XZ=              1.2760   YZ=              0.0008

 Normal termination of Gaussian 16 at Fri Nov 15 17:06:32 2024.
