 Gaussian 16, Revision A.03,
 Gaussian 16:  ES64L-G16RevA.03 25-Dec-2016

 -------------------------------------------------------------------
 #p opt UM062X/6-311+G** nosymm int=superfine SCF=NoVarAcc SCF=tight
 -------------------------------------------------------------------

 -------------------
 Title Card Required
 -------------------
 Symbolic Z-matrix:
 Charge =  1 Multiplicity = 2

 SCF Done:  E(UM062X) =  -77.8894240759     A.U. after   12 cycles
 SCF Done:  E(UM062X) =  -77.8933740925     A.U. after   10 cycles
 SCF Done:  E(UM062X) =  -77.8961735910     A.U. after   10 cycles
 SCF Done:  E(UM062X) =  -77.8961780477     A.U. after    8 cycles
 Optimization completed.
    -- Stationary point found.

                          Input orientation:
 ---------------------------------------------------------------------
 Center     Atomic      Atomic             Coordinates (Angstroms)
 Number     Number       Type             X           Y           Z
 ---------------------------------------------------------------------
      1          6           0       -8.106027    0.000000    0.000000
      2          6           0        8.106027    0.000000    0.000000
      3          1           0       -8.668945   -0.941494    0.000000
      4          1           0       -8.668879    0.941533    0.000000
      5          1           0        8.668945    0.941494   -0.000000
      6          1           0        8.668879   -0.941533   -0.000000
 ---------------------------------------------------------------------

 Alpha  occ. eigenvalues --  -10.84457 -10.84457  -0.96074  -0.96074  -0.70711
 Alpha  occ. eigenvalues --   -0.70711  -0.53440  -0.53440
 Alpha virt. eigenvalues --   -0.27741  -0.27741  -0.08623  -0.08623  -0.04270
 Alpha virt. eigenvalues --   -0.04270  -0.02482  -0.02482  -0.02264  -0.02264
 Alpha virt. eigenvalues --    0.03778   0.03778   0.04489   0.04489   0.30882

  Beta  occ. eigenvalues --  -10.83730 -10.83730  -0.93947  -0.93944  -0.69710
  Beta  occ. eigenvalues --   -0.69710  -0.38718
  Beta virt. eigenvalues --   -0.36892  -0.26153  -0.26153  -0.08924  -0.08923
  Beta virt. eigenvalues --   -0.04776  -0.04776  -0.02970  -0.02970  -0.02563
  Beta virt. eigenvalues --   -0.02563   0.03835   0.03835   0.04965   0.04967

 Mulliken charges and spin densities:
               1          2
     1  C    0.042731   0.486266
     2  C    0.042731   0.486266
     3  H    0.228634   0.006867
     4  H    0.228634   0.006867
     5  H    0.228634   0.006867
     6  H    0.228634   0.006867
 Sum of Mulliken charges =   1.00000   1.00000

 Dipole moment (field-independent basis, Debye):
    X=              0.0000    Y=             -0.0000    Z=             -0.0000  Tot=              0.0000
 Quadrupole moment (field-independent basis, Debye-Ang):
   XX=            356.7572   YY=             -9.5135   ZZ=            -10.6513
   XY=             -0.0008   XZ=             -0.0000   YZ=             -0.0000

 Normal termination of Gaussian 16 at Tue Dec  3 15:48:30 2024.
