 Gaussian 16, Revision A.03,
 Gaussian 16:  ES64L-G16RevA.03 25-Dec-2016

 --------------------------------------------
 #p opt UM062X/6-311+G** nosymm int=superfine
 --------------------------------------------

 -------------------
 Title Card Required
 -------------------
 Symbolic Z-matrix:
 Charge =  1 Multiplicity = 2

 SCF Done:  E(UM062X) =  -79.3562773498     A.U. after   10 cycles
 SCF Done:  E(UM062X) =  -79.3566413612     A.U. after    9 cycles
 SCF Done:  E(UM062X) =  -79.3566425168     A.U. after    7 cycles
 Optimization completed.
    -- Stationary point found.

                          Input orientation:
 ---------------------------------------------------------------------
 Center     Atomic      Atomic             Coordinates (Angstroms)
 Number     Number       Type             X           Y           Z
 ---------------------------------------------------------------------
      1          6           0       -1.255471    0.000000    0.000000
      2          6           0        1.255471    0.000000    0.000000
      3          1           0        1.335625   -0.935770    0.541553
      4          1           0       -1.334855   -0.936879   -0.539746
      5          1           0        1.335334    0.936946    0.539560
      6          1           0        1.334773   -0.001131   -1.081240
      7          1           0       -1.335651    0.935835   -0.541438
      8          1           0       -1.335227    0.000940    1.081207
 ---------------------------------------------------------------------

 Alpha  occ. eigenvalues --  -10.85677 -10.85672  -1.06427  -1.02495  -0.76343
 Alpha  occ. eigenvalues --   -0.76343  -0.74258  -0.74257  -0.57078
 Alpha virt. eigenvalues --   -0.31651  -0.15270  -0.10618  -0.10618  -0.09997
 Alpha virt. eigenvalues --   -0.06313  -0.06220  -0.06220  -0.03919  -0.03916
 Alpha virt. eigenvalues --   -0.02815   0.01607   0.01609   0.05363   0.07373

  Beta  occ. eigenvalues --  -10.85478 -10.85478  -1.03175  -1.00023  -0.75603
  Beta  occ. eigenvalues --   -0.75603  -0.73679  -0.73678
  Beta virt. eigenvalues --   -0.34648  -0.22801  -0.15633  -0.11095  -0.11095
  Beta virt. eigenvalues --   -0.09484  -0.06566  -0.06566  -0.06296  -0.03761
  Beta virt. eigenvalues --   -0.03758  -0.02063   0.02039   0.02041   0.05802

 Mulliken charges and spin densities:
               1          2
     1  C   -0.287240   0.573433
     2  C   -0.287240   0.573433
     3  H    0.262429  -0.024485
     4  H    0.262395  -0.024474
     5  H    0.262414  -0.024482
     6  H    0.262397  -0.024466
     7  H    0.262430  -0.024486
     8  H    0.262415  -0.024473
 Sum of Mulliken charges =   1.00000   1.00000

 Dipole moment (field-independent basis, Debye):
    X=              0.0000    Y=             -0.0000    Z=             -0.0000  Tot=              0.0001
 Quadrupole moment (field-independent basis, Debye-Ang):
   XX=             -3.7409   YY=            -10.9298   ZZ=            -10.9300
   XY=             -0.0008   XZ=              0.0006   YZ=             -0.0001

 Normal termination of Gaussian 16 at Wed Nov 13 12:41:24 2024.
