 Gaussian 16, Revision A.03,
 Gaussian 16:  ES64L-G16RevA.03 25-Dec-2016

 --------------------------------------------
 #p opt UM062X/6-311+G** nosymm int=superfine
 --------------------------------------------

 -------------------
 Title Card Required
 -------------------
 Symbolic Z-matrix:
 Charge =  0 Multiplicity = 1

 SCF Done:  E(UM062X) =  -115.476892812     A.U. after   15 cycles
 SCF Done:  E(UM062X) =  -115.493113220     A.U. after   11 cycles
 SCF Done:  E(UM062X) =  -115.502463870     A.U. after   13 cycles
 SCF Done:  E(UM062X) =  -115.502630862     A.U. after   12 cycles
 SCF Done:  E(UM062X) =  -115.502746118     A.U. after   12 cycles
 SCF Done:  E(UM062X) =  -115.502794444     A.U. after   12 cycles
 SCF Done:  E(UM062X) =  -115.502800852     A.U. after    9 cycles
 SCF Done:  E(UM062X) =  -115.502801331     A.U. after    9 cycles
 Optimization completed.
    -- Stationary point found.

                          Input orientation:
 ---------------------------------------------------------------------
 Center     Atomic      Atomic             Coordinates (Angstroms)
 Number     Number       Type             X           Y           Z
 ---------------------------------------------------------------------
      1          6           0       -1.532203    0.000000    0.000000
      2          8           0        1.532203    0.000000    0.000000
      3          1           0        1.570189   -0.964885    0.000429
      4          1           0       -1.615133   -0.531599    0.937778
      5          1           0       -1.469015    1.079184   -0.000707
      6          1           0       -1.615122   -0.532827   -0.937082
 ---------------------------------------------------------------------

 Alpha  occ. eigenvalues --  -19.58926 -10.66658  -1.01239  -0.84212  -0.56347
 Alpha  occ. eigenvalues --   -0.56081  -0.45756  -0.32706  -0.29512
 Alpha virt. eigenvalues --   -0.14894   0.00551   0.03953   0.04332   0.06561
 Alpha virt. eigenvalues --    0.13785   0.15278   0.15493   0.20046   0.22977
 Alpha virt. eigenvalues --    0.22995   0.24790   0.29955   0.39491   0.39815

  Beta  occ. eigenvalues --  -19.58926 -10.66658  -1.01239  -0.84212  -0.56347
  Beta  occ. eigenvalues --   -0.56081  -0.45756  -0.32706  -0.29512
  Beta virt. eigenvalues --   -0.14894   0.00551   0.03953   0.04332   0.06561
  Beta virt. eigenvalues --    0.13785   0.15278   0.15493   0.20046   0.22977
  Beta virt. eigenvalues --    0.22995   0.24790   0.29955   0.39491   0.39815

 Mulliken charges and spin densities:
               1          2
     1  C   -0.287931   0.000000
     2  O   -0.569193  -0.000000
     3  H    0.213053   0.000000
     4  H    0.209327  -0.000000
     5  H    0.225420  -0.000000
     6  H    0.209324  -0.000000
 Sum of Mulliken charges =  -0.00000  -0.00000

 Dipole moment (field-independent basis, Debye):
    X=             -5.4268    Y=             -1.5550    Z=              0.0007  Tot=              5.6452
 Quadrupole moment (field-independent basis, Debye-Ang):
   XX=            -13.2384   YY=            -11.4504   ZZ=            -13.8719
   XY=             -2.6013   XZ=              0.0011   YZ=             -0.0011

 Normal termination of Gaussian 16 at Mon Apr 21 18:44:20 2025.
