 Gaussian 16, Revision A.03,
 Gaussian 16:  ES64L-G16RevA.03 25-Dec-2016

 --------------------------------------------
 #p opt UM062X/6-311+G** nosymm int=superfine
 --------------------------------------------

 -------------------
 Title Card Required
 -------------------
 Symbolic Z-matrix:
 Charge =  0 Multiplicity = 1

 SCF Done:  E(UM062X) =  -78.3476511725     A.U. after    8 cycles
 SCF Done:  E(UM062X) =  -78.3858626244     A.U. after    8 cycles
 SCF Done:  E(UM062X) =  -78.4168685613     A.U. after   10 cycles
 SCF Done:  E(UM062X) =  -78.4202472566     A.U. after    8 cycles
 SCF Done:  E(UM062X) =  -78.4204413311     A.U. after    8 cycles
 SCF Done:  E(UM062X) =  -78.4204429576     A.U. after    6 cycles
 Optimization completed.
    -- Stationary point found.

                          Input orientation:
 ---------------------------------------------------------------------
 Center     Atomic      Atomic             Coordinates (Angstroms)
 Number     Number       Type             X           Y           Z
 ---------------------------------------------------------------------
      1          6           0       -0.934650    0.000000    0.000000
      2          6           0        0.934650    0.000000    0.000000
      3          1           0       -1.418244   -0.964140    0.000001
      4          1           0       -1.418289    0.964165    0.000001
      5          1           0        1.418244    0.964140    0.000001
      6          1           0        1.418289   -0.964165    0.000001
 ---------------------------------------------------------------------

 Alpha  occ. eigenvalues --  -10.60145 -10.60127  -0.78379  -0.70627  -0.52943
 Alpha  occ. eigenvalues --   -0.48686  -0.39989  -0.27112
 Alpha virt. eigenvalues --   -0.05087   0.02854   0.03364   0.05393   0.07465
 Alpha virt. eigenvalues --    0.08898   0.09809   0.11539   0.13182   0.15582
 Alpha virt. eigenvalues --    0.16564   0.21126   0.21504   0.28569   0.40221

  Beta  occ. eigenvalues --  -10.60145 -10.60127  -0.78379  -0.70627  -0.52943
  Beta  occ. eigenvalues --   -0.48686  -0.39989  -0.27112
  Beta virt. eigenvalues --   -0.05087   0.02854   0.03364   0.05393   0.07465
  Beta virt. eigenvalues --    0.08898   0.09809   0.11539   0.13182   0.15582
  Beta virt. eigenvalues --    0.16564   0.21126   0.21504   0.28569   0.40221

 Mulliken charges and spin densities:
               1          2
     1  C   -0.350588   0.000000
     2  C   -0.350587  -0.000000
     3  H    0.175293  -0.000000
     4  H    0.175295   0.000000
     5  H    0.175293   0.000000
     6  H    0.175294   0.000000
 Sum of Mulliken charges =  -0.00000   0.00000

 Dipole moment (field-independent basis, Debye):
    X=              0.0000    Y=              0.0000    Z=              0.0000  Tot=              0.0000
 Quadrupole moment (field-independent basis, Debye-Ang):
   XX=            -11.4984   YY=            -12.1469   ZZ=            -17.8198
   XY=             -0.0001   XZ=             -0.0000   YZ=              0.0000

 Normal termination of Gaussian 16 at Tue Nov 19 10:56:35 2024.
