 Gaussian 16, Revision A.03,
 Gaussian 16:  ES64L-G16RevA.03 25-Dec-2016

 --------------------------------------------
 #p opt UM062X/6-311+G** nosymm int=superfine
 --------------------------------------------

 -------------------
 Title Card Required
 -------------------
 Symbolic Z-matrix:
 Charge =  0 Multiplicity = 1

 SCF Done:  E(UM062X) =  -151.322157624     A.U. after   22 cycles
 SCF Done:  E(UM062X) =  -151.323237892     A.U. after   28 cycles
 SCF Done:  E(UM062X) =  -151.325530233     A.U. after   18 cycles
 SCF Done:  E(UM062X) =  -151.326280845     A.U. after   21 cycles
 SCF Done:  E(UM062X) =  -151.326487972     A.U. after   22 cycles
 SCF Done:  E(UM062X) =  -151.326500920     A.U. after   14 cycles
 SCF Done:  E(UM062X) =  -151.326501488     A.U. after   19 cycles
 SCF Done:  E(UM062X) =  -151.326501579     A.U. after   13 cycles
 Optimization completed.
    -- Stationary point found.

                          Input orientation:
 ---------------------------------------------------------------------
 Center     Atomic      Atomic             Coordinates (Angstroms)
 Number     Number       Type             X           Y           Z
 ---------------------------------------------------------------------
      1          8           0       -1.636938    0.000000    0.000000
      2          8           0        1.636938    0.000000    0.000000
      3          1           0       -1.435327   -0.769150   -0.562790
      4          1           0        1.435437    0.768581    0.563607
 ---------------------------------------------------------------------

 Alpha  occ. eigenvalues --  -19.72646 -19.72645  -1.13163  -1.12758  -0.56948
 Alpha  occ. eigenvalues --   -0.56644  -0.44388  -0.44045  -0.37325
 Alpha virt. eigenvalues --   -0.26130   0.05156   0.07976   0.14822   0.15006
 Alpha virt. eigenvalues --    0.17620   0.18735   0.20371   0.21057   0.21778
 Alpha virt. eigenvalues --    0.31200   0.48625   0.52226   0.99657   1.00843

  Beta  occ. eigenvalues --  -19.72646 -19.72645  -1.13163  -1.12758  -0.56948
  Beta  occ. eigenvalues --   -0.56644  -0.44388  -0.44045  -0.37325
  Beta virt. eigenvalues --   -0.26130   0.05156   0.07976   0.14822   0.15006
  Beta virt. eigenvalues --    0.17620   0.18735   0.20371   0.21057   0.21778
  Beta virt. eigenvalues --    0.31200   0.48625   0.52226   0.99657   1.00843

 Mulliken charges and spin densities:
               1          2
     1  O   -0.268576   0.000000
     2  O   -0.268587  -0.000000
     3  H    0.268583   0.000000
     4  H    0.268581  -0.000000
 Sum of Mulliken charges =  -0.00000   0.00000

 Dipole moment (field-independent basis, Debye):
    X=              0.0001    Y=             -0.0011    Z=              0.0016  Tot=              0.0020
 Quadrupole moment (field-independent basis, Debye-Ang):
   XX=            -13.1129   YY=            -10.4761   ZZ=            -11.9999
   XY=              4.5465   XZ=              3.3303   YZ=              2.4085

 Normal termination of Gaussian 16 at Mon Apr 21 21:36:56 2025.
