 Gaussian 16, Revision A.03,
 Gaussian 16:  ES64L-G16RevA.03 25-Dec-2016

 --------------------------------------------
 #p opt UM062X/6-311+G** nosymm int=superfine
 --------------------------------------------

 -------------------
 Title Card Required
 -------------------
 Symbolic Z-matrix:
 Charge =  1 Multiplicity = 2

 SCF Done:  E(UM062X) =  -582.127554837     A.U. after   11 cycles
 SCF Done:  E(UM062X) =  -582.128392646     A.U. after    9 cycles
 SCF Done:  E(UM062X) =  -582.128767357     A.U. after   10 cycles
 SCF Done:  E(UM062X) =  -582.128769608     A.U. after    8 cycles
 Optimization completed.
    -- Stationary point found.

                          Input orientation:
 ---------------------------------------------------------------------
 Center     Atomic      Atomic             Coordinates (Angstroms)
 Number     Number       Type             X           Y           Z
 ---------------------------------------------------------------------
      1         14           0       -2.751292    0.000000    0.000000
      2         14           0        2.751292    0.000000    0.000000
      3          1           0        2.840896   -1.461196   -0.000022
      4          1           0       -2.840074   -0.730463    1.265564
      5          1           0        2.840622    0.730643   -1.265422
      6          1           0        2.839848    0.730546    1.265533
      7          1           0       -2.840923    1.461194   -0.000151
      8          1           0       -2.840368   -0.730729   -1.265390
 ---------------------------------------------------------------------

 Alpha  occ. eigenvalues --  -67.21454 -67.21454  -5.76320  -5.76320  -4.08019
 Alpha  occ. eigenvalues --   -4.08019  -4.07197  -4.07197  -4.07197  -4.07197
 Alpha  occ. eigenvalues --   -0.80089  -0.79932  -0.60579  -0.60578  -0.60560
 Alpha  occ. eigenvalues --   -0.60559  -0.37699
 Alpha virt. eigenvalues --   -0.30593  -0.11271  -0.11252  -0.09601  -0.08662
 Alpha virt. eigenvalues --   -0.08661  -0.07590  -0.07589  -0.07414  -0.06739
 Alpha virt. eigenvalues --   -0.06739  -0.05861  -0.05860  -0.04901  -0.00054

  Beta  occ. eigenvalues --  -67.21166 -67.21166  -5.76234  -5.76234  -4.07345
  Beta  occ. eigenvalues --   -4.07344  -4.07098  -4.07098  -4.07098  -4.07098
  Beta  occ. eigenvalues --   -0.78349  -0.78300  -0.60506  -0.60505  -0.60487
  Beta  occ. eigenvalues --   -0.60486
  Beta virt. eigenvalues --   -0.29180  -0.23635  -0.15597  -0.10640  -0.10639
  Beta virt. eigenvalues --   -0.10382  -0.09663  -0.08196  -0.08196  -0.07437
  Beta virt. eigenvalues --   -0.06146  -0.06146  -0.05316  -0.05316  -0.05184

 Mulliken charges and spin densities:
               1          2
     1  Si   0.523528   0.567194
     2  Si   0.523527   0.567194
     3  H   -0.007843  -0.022403
     4  H   -0.007844  -0.022395
     5  H   -0.007838  -0.022397
     6  H   -0.007847  -0.022394
     7  H   -0.007843  -0.022403
     8  H   -0.007841  -0.022396
 Sum of Mulliken charges =   1.00000   1.00000

 Dipole moment (field-independent basis, Debye):
    X=             -0.0000    Y=             -0.0000    Z=              0.0000  Tot=              0.0000
 Quadrupole moment (field-independent basis, Debye-Ang):
   XX=             14.9755   YY=            -26.2444   ZZ=            -26.2442
   XY=              0.0008   XZ=              0.0000   YZ=             -0.0000

 Normal termination of Gaussian 16 at Mon Apr 21 20:13:06 2025.
