 Gaussian 16, Revision A.03,
 Gaussian 16:  ES64L-G16RevA.03 25-Dec-2016

 ---------------------------------------------------
 #p UM062X/6-311+G** force int=superfine pop=saveNBO
 ---------------------------------------------------

 -------------------
 Title Card Required
 -------------------
 Symbolic Z-matrix:
 Charge =  0 Multiplicity = 1

                         Standard orientation:
 ---------------------------------------------------------------------
 Center     Atomic      Atomic             Coordinates (Angstroms)
 Number     Number       Type             X           Y           Z
 ---------------------------------------------------------------------
      1          6           0        0.000000    0.000000   -2.311703
      2         16           0        0.000000    0.000000    0.866889
 ---------------------------------------------------------------------

 SCF Done:  E(UM062X) =  -435.846599306     A.U. after   22 cycles

 The electronic state is 1-SG.
 Alpha  occ. eigenvalues --  -89.92436 -10.78097  -8.28422  -6.21065  -6.19714
 Alpha  occ. eigenvalues --   -6.19714  -0.73176  -0.69243  -0.33439  -0.30279
 Alpha  occ. eigenvalues --   -0.30279
 Alpha virt. eigenvalues --   -0.15474  -0.15474  -0.14724   0.03112   0.05293
 Alpha virt. eigenvalues --    0.05867   0.05867   0.08730   0.08730   0.08844
 Alpha virt. eigenvalues --    0.14207   0.36497   0.36497   0.36958   0.51468

  Beta  occ. eigenvalues --  -89.92436 -10.78097  -8.28422  -6.21065  -6.19714
  Beta  occ. eigenvalues --   -6.19714  -0.73176  -0.69243  -0.33439  -0.30279
  Beta  occ. eigenvalues --   -0.30279
  Beta virt. eigenvalues --   -0.15474  -0.15474  -0.14724   0.03112   0.05293
  Beta virt. eigenvalues --    0.05867   0.05867   0.08730   0.08730   0.08844
  Beta virt. eigenvalues --    0.14207   0.36497   0.36497   0.36958   0.51468

 Mulliken charges and spin densities:
               1          2
     1  C    0.172241   0.000000
     2  S   -0.172241  -0.000000
 Sum of Mulliken charges =   0.00000   0.00000

 Dipole moment (field-independent basis, Debye):
    X=              0.0000    Y=              0.0000    Z=             -2.6375  Tot=              2.6375
 Quadrupole moment (field-independent basis, Debye-Ang):
   XX=            -20.7648   YY=            -20.7648   ZZ=            -14.6091
   XY=              0.0000   XZ=              0.0000   YZ=              0.0000

 Summary of Natural Population Analysis:

                                       Natural Population
                Natural  -----------------------------------------------
    Atom  No    Charge         Core      Valence    Rydberg      Total
 -----------------------------------------------------------------------
      C    1    0.12035      1.00000     1.87912    0.00053     2.87965
      S    2   -0.12035      4.99999     3.11895    0.00141     8.12035
 =======================================================================
   * Total *    0.00000      5.99999     4.99807    0.00194    11.00000

 Normal termination of Gaussian 16 at Mon Apr 21 19:41:04 2025.
