 Gaussian 16, Revision A.03,
 Gaussian 16:  ES64L-G16RevA.03 25-Dec-2016

 --------------------------------------------
 #p opt UM062X/6-311+G** nosymm int=superfine
 --------------------------------------------

 -------------------
 Title Card Required
 -------------------
 Symbolic Z-matrix:
 Charge =  0 Multiplicity = 1

 SCF Done:  E(UM062X) =  -382.391787358     A.U. after   11 cycles
 SCF Done:  E(UM062X) =  -382.394330025     A.U. after   10 cycles
 SCF Done:  E(UM062X) =  -382.394678927     A.U. after    9 cycles
 SCF Done:  E(UM062X) =  -382.394686238     A.U. after    8 cycles
 SCF Done:  E(UM062X) =  -382.394686975     A.U. after    8 cycles
 Optimization completed.
    -- Stationary point found.

                          Input orientation:
 ---------------------------------------------------------------------
 Center     Atomic      Atomic             Coordinates (Angstroms)
 Number     Number       Type             X           Y           Z
 ---------------------------------------------------------------------
      1          6           0       -1.131264    0.000000    0.000000
      2         15           0        1.131264    0.000000    0.000000
      3          1           0        1.200685   -1.415375    0.019342
      4          1           0       -1.413193    1.024038    0.221787
      5          1           0        1.200733    0.091427    1.412538
      6          1           0       -1.413179   -0.300806   -1.003675
      7          1           0       -1.446811   -0.704580    0.761699
 ---------------------------------------------------------------------

 Alpha  occ. eigenvalues --  -78.02537 -10.55530  -6.84921  -4.96463  -4.96444
 Alpha  occ. eigenvalues --   -4.96219  -0.78418  -0.68615  -0.48321  -0.48030
 Alpha  occ. eigenvalues --   -0.43033  -0.36436  -0.30961
 Alpha virt. eigenvalues --   -0.00407   0.01501   0.03980   0.04513   0.06303
 Alpha virt. eigenvalues --    0.06457   0.06643   0.07903   0.08026   0.13487
 Alpha virt. eigenvalues --    0.17880   0.18801   0.19004   0.26985   0.30264

  Beta  occ. eigenvalues --  -78.02537 -10.55530  -6.84921  -4.96463  -4.96444
  Beta  occ. eigenvalues --   -4.96219  -0.78418  -0.68615  -0.48321  -0.48030
  Beta  occ. eigenvalues --   -0.43033  -0.36436  -0.30961
  Beta virt. eigenvalues --   -0.00407   0.01501   0.03980   0.04513   0.06303
  Beta virt. eigenvalues --    0.06457   0.06643   0.07903   0.08026   0.13487
  Beta virt. eigenvalues --    0.17880   0.18801   0.19004   0.26985   0.30264

 Mulliken charges and spin densities:
               1          2
     1  C   -0.568128  -0.000000
     2  P    0.004660   0.000000
     3  H    0.013052  -0.000000
     4  H    0.178925   0.000000
     5  H    0.013054  -0.000000
     6  H    0.178929   0.000000
     7  H    0.179507   0.000000
 Sum of Mulliken charges =  -0.00000   0.00000

 Dipole moment (field-independent basis, Debye):
    X=             -0.6666    Y=             -0.4960    Z=              0.5365  Tot=              0.9891
 Quadrupole moment (field-independent basis, Debye-Ang):
   XX=            -23.1707   YY=            -22.0340   ZZ=            -22.1499
   XY=             -1.0977   XZ=              1.1874   YZ=              0.7380

 Normal termination of Gaussian 16 at Mon Apr 21 19:02:59 2025.
