 Gaussian 16, Revision A.03,
 Gaussian 16:  ES64L-G16RevA.03 25-Dec-2016

 --------------------------------------------
 #p opt UM062X/6-311+G** nosymm int=superfine
 --------------------------------------------

 -------------------
 Title Card Required
 -------------------
 Symbolic Z-matrix:
 Charge =  1 Multiplicity = 2

 SCF Done:  E(UM062X) =  -79.2713723024     A.U. after   12 cycles
 SCF Done:  E(UM062X) =  -79.3093422982     A.U. after   11 cycles
 SCF Done:  E(UM062X) =  -79.3193333687     A.U. after   18 cycles
 SCF Done:  E(UM062X) =  -79.3418910576     A.U. after   18 cycles
 SCF Done:  E(UM062X) =  -79.3450457328     A.U. after   12 cycles
 SCF Done:  E(UM062X) =  -79.3606684827     A.U. after   13 cycles
 SCF Done:  E(UM062X) =  -79.3630219451     A.U. after   13 cycles
 SCF Done:  E(UM062X) =  -79.3637496699     A.U. after   13 cycles
 SCF Done:  E(UM062X) =  -79.3639229812     A.U. after   12 cycles
 SCF Done:  E(UM062X) =  -79.3641284883     A.U. after   12 cycles
 SCF Done:  E(UM062X) =  -79.3672030941     A.U. after   12 cycles
 SCF Done:  E(UM062X) =  -79.3677897702     A.U. after   10 cycles
 SCF Done:  E(UM062X) =  -79.3687817193     A.U. after   12 cycles
 SCF Done:  E(UM062X) =  -79.3690180521     A.U. after   12 cycles
 SCF Done:  E(UM062X) =  -79.3692479828     A.U. after   11 cycles
 SCF Done:  E(UM062X) =  -79.3694192160     A.U. after   11 cycles
 SCF Done:  E(UM062X) =  -79.3695439707     A.U. after   10 cycles
 SCF Done:  E(UM062X) =  -79.3695908818     A.U. after   10 cycles
 SCF Done:  E(UM062X) =  -79.3696023600     A.U. after    9 cycles
 SCF Done:  E(UM062X) =  -79.3696053782     A.U. after    9 cycles
 Optimization completed.
    -- Stationary point found.

                          Input orientation:
 ---------------------------------------------------------------------
 Center     Atomic      Atomic             Coordinates (Angstroms)
 Number     Number       Type             X           Y           Z
 ---------------------------------------------------------------------
      1          6           0       -0.727603    0.000000    0.000000
      2          6           0        0.727603    0.000000    0.000000
      3          1           0        0.719717   -1.026226    0.568436
      4          1           0       -1.242487   -0.692630   -0.664207
      5          1           0        1.242474    0.692624    0.664223
      6          1           0        1.242125   -0.195096   -0.939776
      7          1           0       -0.719718    1.026216   -0.568457
      8          1           0       -1.242110    0.195113    0.939782
 ---------------------------------------------------------------------

 Alpha  occ. eigenvalues --  -10.84093 -10.84040  -1.18709  -0.98717  -0.82536
 Alpha  occ. eigenvalues --   -0.81049  -0.75719  -0.69719  -0.65444
 Alpha virt. eigenvalues --   -0.17301  -0.12726  -0.12280  -0.11957  -0.10881
 Alpha virt. eigenvalues --   -0.07783  -0.06451  -0.05695  -0.05223  -0.02137
 Alpha virt. eigenvalues --   -0.00546   0.02162   0.03671   0.04772   0.06353

  Beta  occ. eigenvalues --  -10.83914 -10.83860  -1.16038  -0.95788  -0.80294
  Beta  occ. eigenvalues --   -0.76634  -0.74429  -0.69112
  Beta virt. eigenvalues --   -0.43567  -0.17169  -0.12837  -0.11880  -0.11817
  Beta virt. eigenvalues --   -0.10458  -0.07804  -0.06468  -0.05394  -0.03454
  Beta virt. eigenvalues --   -0.01898  -0.00135   0.02478   0.04393   0.05547

 Mulliken charges and spin densities:
               1          2
     1  C   -0.393924   0.259271
     2  C   -0.393924   0.259272
     3  H    0.331596   0.246706
     4  H    0.281207  -0.002944
     5  H    0.281207  -0.002946
     6  H    0.281122  -0.003031
     7  H    0.331596   0.246706
     8  H    0.281121  -0.003033
 Sum of Mulliken charges =   1.00000   1.00000

 Dipole moment (field-independent basis, Debye):
    X=              0.0000    Y=             -0.0000    Z=             -0.0000  Tot=              0.0000
 Quadrupole moment (field-independent basis, Debye-Ang):
   XX=             -8.2191   YY=             -9.9058   ZZ=            -10.6184
   XY=             -0.7657   XZ=              0.4260   YZ=             -0.5716

 Normal termination of Gaussian 16 at Sat Nov 16 15:51:54 2024.
