 Gaussian 16, Revision A.03,
 Gaussian 16:  ES64L-G16RevA.03 25-Dec-2016

 --------------------------------------------
 #p opt UM062X/6-311+G** nosymm int=superfine
 --------------------------------------------

 -------------------
 Title Card Required
 -------------------
 Symbolic Z-matrix:
 Charge =  0 Multiplicity = 1

 SCF Done:  E(UM062X) =  -77.1334205422     A.U. after    9 cycles
 SCF Done:  E(UM062X) =  -77.1723386200     A.U. after    9 cycles
 SCF Done:  E(UM062X) =  -77.1991961264     A.U. after    9 cycles
 SCF Done:  E(UM062X) =  -77.1993410461     A.U. after    8 cycles
 Optimization completed.
    -- Stationary point found.

                          Input orientation:
 ---------------------------------------------------------------------
 Center     Atomic      Atomic             Coordinates (Angstroms)
 Number     Number       Type             X           Y           Z
 ---------------------------------------------------------------------
      1          6           0       -0.754130    0.000000    0.000000
      2          6           0        0.754130    0.000000    0.000000
      3          1           0       -1.825647    0.000017   -0.000017
      4          1           0        1.825637    0.000011   -0.000011
 ---------------------------------------------------------------------

 Alpha  occ. eigenvalues --  -10.62639 -10.62586  -0.79760  -0.68180  -0.55075
 Alpha  occ. eigenvalues --   -0.31825  -0.31825
 Alpha virt. eigenvalues --   -0.01267  -0.01267   0.01790   0.02394   0.08166
 Alpha virt. eigenvalues --    0.08166   0.09396   0.10479   0.11728   0.11728
 Alpha virt. eigenvalues --    0.18136   0.23273   0.31315   0.46158   0.58694

  Beta  occ. eigenvalues --  -10.62639 -10.62586  -0.79760  -0.68180  -0.55075
  Beta  occ. eigenvalues --   -0.31825  -0.31825
  Beta virt. eigenvalues --   -0.01267  -0.01267   0.01790   0.02394   0.08166
  Beta virt. eigenvalues --    0.08166   0.09396   0.10479   0.11728   0.11728
  Beta virt. eigenvalues --    0.18136   0.23273   0.31315   0.46158   0.58694

 Mulliken charges and spin densities:
               1          2
     1  C   -0.225276   0.000000
     2  C   -0.225276  -0.000000
     3  H    0.225277  -0.000000
     4  H    0.225275  -0.000000
 Sum of Mulliken charges =  -0.00000  -0.00000

 Dipole moment (field-independent basis, Debye):
    X=             -0.0000    Y=              0.0000    Z=             -0.0000  Tot=              0.0000
 Quadrupole moment (field-independent basis, Debye-Ang):
   XX=             -5.7370   YY=            -15.1371   ZZ=            -15.1371
   XY=             -0.0000   XZ=              0.0000   YZ=             -0.0000

 Normal termination of Gaussian 16 at Tue Dec  3 20:09:27 2024.
