 Gaussian 16, Revision A.03,
 Gaussian 16:  ES64L-G16RevA.03 25-Dec-2016

 ---------------------------------------------------------
 #p opt UM062X/6-311+G** nosymm int=superfine SCF=NoVarAcc
 ---------------------------------------------------------

 -------------------
 Title Card Required
 -------------------
 Symbolic Z-matrix:
 Charge =  0 Multiplicity = 1

 SCF Done:  E(UM062X) =  -76.8127544893     A.U. after   47 cycles
 SCF Done:  E(UM062X) =  -76.8127628425     A.U. after    9 cycles
 Optimization completed.
    -- Stationary point found.

                          Input orientation:
 ---------------------------------------------------------------------
 Center     Atomic      Atomic             Coordinates (Angstroms)
 Number     Number       Type             X           Y           Z
 ---------------------------------------------------------------------
      1          6           0       -7.932625    0.000000    0.000000
      2          6           0        7.932625    0.000000    0.000000
      3          1           0       -9.052820   -0.000007    0.000007
      4          1           0        9.052820    0.000005   -0.000005
 ---------------------------------------------------------------------

 Alpha  occ. eigenvalues --  -10.66775 -10.66775  -0.72555  -0.72555  -0.38741
 Alpha  occ. eigenvalues --   -0.38741  -0.19098
 Alpha virt. eigenvalues --   -0.17307  -0.09762  -0.09762   0.03269   0.03269
 Alpha virt. eigenvalues --    0.08066   0.08066   0.08167   0.08167   0.08891
 Alpha virt. eigenvalues --    0.08891   0.17311   0.17311   0.45367   0.45367

  Beta  occ. eigenvalues --  -10.66775 -10.66775  -0.72555  -0.72555  -0.38741
  Beta  occ. eigenvalues --   -0.38741  -0.19098
  Beta virt. eigenvalues --   -0.17307  -0.09762  -0.09762   0.03269   0.03269
  Beta virt. eigenvalues --    0.08066   0.08066   0.08167   0.08167   0.08891
  Beta virt. eigenvalues --    0.08891   0.17311   0.17311   0.45367   0.45367

 Mulliken charges and spin densities:
               1          2
     1  C   -0.129525   0.000000
     2  C   -0.129525  -0.000000
     3  H    0.129525   0.000000
     4  H    0.129525  -0.000000
 Sum of Mulliken charges =  -0.00000  -0.00000

 Dipole moment (field-independent basis, Debye):
    X=              0.0000    Y=             -0.0000    Z=              0.0000  Tot=              0.0000
 Quadrupole moment (field-independent basis, Debye-Ang):
   XX=             37.7605   YY=            -14.5903   ZZ=            -14.5899
   XY=              0.0001   XZ=             -0.0001   YZ=             -0.0000

 Normal termination of Gaussian 16 at Tue Dec  3 20:22:43 2024.
