 Gaussian 16, Revision A.03,
 Gaussian 16:  ES64L-G16RevA.03 25-Dec-2016

 --------------------------------------------
 #p opt UM062X/6-311+G** nosymm int=superfine
 --------------------------------------------

 -------------------
 Title Card Required
 -------------------
 Symbolic Z-matrix:
 Charge =  0 Multiplicity = 1

 SCF Done:  E(UM062X) =  -79.7042065066     A.U. after    9 cycles
 SCF Done:  E(UM062X) =  -79.7227088672     A.U. after    8 cycles
 SCF Done:  E(UM062X) =  -79.7258097047     A.U. after    8 cycles
 SCF Done:  E(UM062X) =  -79.7258129144     A.U. after    6 cycles
 Optimization completed.
    -- Stationary point found.

                          Input orientation:
 ---------------------------------------------------------------------
 Center     Atomic      Atomic             Coordinates (Angstroms)
 Number     Number       Type             X           Y           Z
 ---------------------------------------------------------------------
      1          6           0       -0.618473    0.000000    0.000000
      2          6           0        0.618536    0.000000    0.000000
      3          1           0        1.082531   -0.863788    0.499847
      4          1           0       -1.082467   -0.864775   -0.498154
      5          1           0        1.082531    0.864776    0.498151
      6          1           0        1.082536   -0.000960   -0.997989
      7          1           0       -1.082468    0.863787   -0.499849
      8          1           0       -1.082474    0.000958    0.997989
 ---------------------------------------------------------------------

 Alpha  occ. eigenvalues --  -10.50337 -10.50139  -0.91929  -0.68318  -0.53333
 Alpha  occ. eigenvalues --   -0.53332  -0.49341  -0.36510  -0.36510
 Alpha virt. eigenvalues --    0.02100   0.04202   0.05004   0.05004   0.08684
 Alpha virt. eigenvalues --    0.08932   0.08932   0.14213   0.19564   0.19564
 Alpha virt. eigenvalues --    0.19611   0.19611   0.24055   0.27943   0.37348

  Beta  occ. eigenvalues --  -10.50337 -10.50139  -0.91929  -0.68318  -0.53333
  Beta  occ. eigenvalues --   -0.53332  -0.49341  -0.36510  -0.36510
  Beta virt. eigenvalues --    0.02100   0.04202   0.05004   0.05004   0.08684
  Beta virt. eigenvalues --    0.08932   0.08932   0.14213   0.19564   0.19564
  Beta virt. eigenvalues --    0.19611   0.19611   0.24055   0.27943   0.37348

 Mulliken charges and spin densities:
               1          2
     1  C   -0.438094  -0.000000
     2  C   -0.438094   0.000000
     3  H    0.146032  -0.000000
     4  H    0.146032   0.000000
     5  H    0.146032  -0.000000
     6  H    0.146030  -0.000000
     7  H    0.146032   0.000000
     8  H    0.146030  -0.000000
 Sum of Mulliken charges =  -0.00000   0.00000

 Dipole moment (field-independent basis, Debye):
    X=              0.0000    Y=             -0.0000    Z=             -0.0000  Tot=              0.0000
 Quadrupole moment (field-independent basis, Debye-Ang):
   XX=            -15.6379   YY=            -14.9538   ZZ=            -14.9537
   XY=              0.0000   XZ=              0.0000   YZ=             -0.0001

 Normal termination of Gaussian 16 at Tue Nov 19 11:46:00 2024.
