 Gaussian 16, Revision A.03,
 Gaussian 16:  ES64L-G16RevA.03 25-Dec-2016

 --------------------------------------------
 #p opt UM062X/6-311+G** nosymm int=superfine
 --------------------------------------------

 -------------------
 Title Card Required
 -------------------
 Symbolic Z-matrix:
 Charge =  0 Multiplicity = 1

 SCF Done:  E(UM062X) =  -579.876101905     A.U. after   10 cycles
 SCF Done:  E(UM062X) =  -579.878807050     A.U. after   10 cycles
 SCF Done:  E(UM062X) =  -579.878811248     A.U. after   10 cycles
 Optimization completed.
    -- Stationary point found.

                          Input orientation:
 ---------------------------------------------------------------------
 Center     Atomic      Atomic             Coordinates (Angstroms)
 Number     Number       Type             X           Y           Z
 ---------------------------------------------------------------------
      1         14           0       -2.328705    0.000000    0.000000
      2         14           0        2.328705    0.000000    0.000000
      3          1           0       -3.852573   -0.000028   -0.000000
      4          1           0        3.852573    0.000040   -0.000000
 ---------------------------------------------------------------------

 Alpha  occ. eigenvalues --  -67.04526 -67.04526  -5.58960  -5.58958  -3.90073
 Alpha  occ. eigenvalues --   -3.90073  -3.89619  -3.89619  -3.89477  -3.89477
 Alpha  occ. eigenvalues --   -0.54961  -0.54773  -0.33331  -0.31933  -0.17544
 Alpha virt. eigenvalues --   -0.11123  -0.09049  -0.08410   0.02249   0.02928
 Alpha virt. eigenvalues --    0.04467   0.05624   0.05769   0.05905   0.06597
 Alpha virt. eigenvalues --    0.07037   0.08274   0.15143   0.28501   0.29754

  Beta  occ. eigenvalues --  -67.04526 -67.04526  -5.58960  -5.58958  -3.90073
  Beta  occ. eigenvalues --   -3.90073  -3.89619  -3.89619  -3.89477  -3.89477
  Beta  occ. eigenvalues --   -0.54961  -0.54773  -0.33331  -0.31933  -0.17544
  Beta virt. eigenvalues --   -0.11123  -0.09049  -0.08410   0.02249   0.02928
  Beta virt. eigenvalues --    0.04467   0.05624   0.05769   0.05905   0.06597
  Beta virt. eigenvalues --    0.07037   0.08274   0.15143   0.28501   0.29754

 Mulliken charges and spin densities:
               1          2
     1  Si   0.152123  -0.000000
     2  Si   0.152123   0.000000
     3  H   -0.152123   0.000000
     4  H   -0.152123  -0.000000
 Sum of Mulliken charges =  -0.00000   0.00000

 Dipole moment (field-independent basis, Debye):
    X=             -0.0000    Y=              0.0000    Z=             -0.0000  Tot=              0.0000
 Quadrupole moment (field-independent basis, Debye-Ang):
   XX=            -30.3311   YY=            -24.2551   ZZ=            -35.6332
   XY=             -0.0002   XZ=              0.0000   YZ=             -0.0008

 Normal termination of Gaussian 16 at Mon Apr 21 21:26:43 2025.
