 Gaussian 16, Revision A.03,
 Gaussian 16:  ES64L-G16RevA.03 25-Dec-2016

 --------------------------------------------
 #p opt UM062X/6-311+G** nosymm int=superfine
 --------------------------------------------

 -------------------
 Title Card Required
 -------------------
 Symbolic Z-matrix:
 Charge =  1 Multiplicity = 2

 SCF Done:  E(UM062X) =  -580.964409531     A.U. after   10 cycles
 SCF Done:  E(UM062X) =  -580.964524343     A.U. after    8 cycles
 SCF Done:  E(UM062X) =  -580.964556527     A.U. after    9 cycles
 SCF Done:  E(UM062X) =  -580.964189754     A.U. after   10 cycles
 SCF Done:  E(UM062X) =  -580.964561665     A.U. after    8 cycles
 SCF Done:  E(UM062X) =  -580.964561643     A.U. after    7 cycles
 SCF Done:  E(UM062X) =  -580.964561807     A.U. after    7 cycles
 Optimization completed.
    -- Stationary point found.

                          Input orientation:
 ---------------------------------------------------------------------
 Center     Atomic      Atomic             Coordinates (Angstroms)
 Number     Number       Type             X           Y           Z
 ---------------------------------------------------------------------
      1         14           0       -1.291295    0.000000    0.000000
      2         14           0        1.291295    0.000000    0.000000
      3          1           0       -1.996831   -1.285923   -0.000619
      4          1           0        1.996831    1.285923    0.000612
      5          1           0       -1.996834    1.285922    0.000622
      6          1           0        1.996834   -1.285921   -0.000634
 ---------------------------------------------------------------------

 Alpha  occ. eigenvalues --  -67.26296 -67.26295  -5.80779  -5.80776  -4.12455
 Alpha  occ. eigenvalues --   -4.12452  -4.11725  -4.11707  -4.11620  -4.11618
 Alpha  occ. eigenvalues --   -0.84149  -0.78879  -0.64797  -0.63246  -0.57160
 Alpha  occ. eigenvalues --   -0.45467
 Alpha virt. eigenvalues --   -0.28810  -0.22570  -0.15563  -0.13540  -0.11249
 Alpha virt. eigenvalues --   -0.11014  -0.09453  -0.08881  -0.08311  -0.07633
 Alpha virt. eigenvalues --   -0.06933  -0.05764  -0.01310   0.04117   0.09574

  Beta  occ. eigenvalues --  -67.26006 -67.26006  -5.80695  -5.80694  -4.11741
  Beta  occ. eigenvalues --   -4.11738  -4.11661  -4.11640  -4.11515  -4.11513
  Beta  occ. eigenvalues --   -0.82049  -0.77518  -0.64695  -0.63352  -0.56516
  Beta virt. eigenvalues --   -0.30612  -0.23835  -0.20239  -0.15463  -0.14544
  Beta virt. eigenvalues --   -0.12127  -0.10892  -0.09371  -0.09073  -0.07839
  Beta virt. eigenvalues --   -0.07095  -0.06645  -0.03901  -0.02757   0.04011

 Mulliken charges and spin densities:
               1          2
     1  Si   0.434372   0.553300
     2  Si   0.434372   0.553300
     3  H    0.032814  -0.026650
     4  H    0.032814  -0.026650
     5  H    0.032814  -0.026650
     6  H    0.032814  -0.026650
 Sum of Mulliken charges =   1.00000   1.00000

 Dipole moment (field-independent basis, Debye):
    X=             -0.0000    Y=             -0.0000    Z=              0.0000  Tot=              0.0000
 Quadrupole moment (field-independent basis, Debye-Ang):
   XX=            -12.0739   YY=            -23.4907   ZZ=            -24.0773
   XY=             -0.0000   XZ=              0.0000   YZ=              0.0003

 Normal termination of Gaussian 16 at Mon Apr 21 20:23:37 2025.
