 Gaussian 16, Revision A.03,
 Gaussian 16:  ES64L-G16RevA.03 25-Dec-2016

 ---------------------------------------------------
 #p UM062X/6-311+G** force int=superfine pop=saveNBO
 ---------------------------------------------------

 -------------------
 Title Card Required
 -------------------
 Symbolic Z-matrix:
 Charge =  0 Multiplicity = 1

                         Standard orientation:
 ---------------------------------------------------------------------
 Center     Atomic      Atomic             Coordinates (Angstroms)
 Number     Number       Type             X           Y           Z
 ---------------------------------------------------------------------
      1         14           0       -1.169819    0.000005   -0.000002
      2         14           0        1.169819    0.000003   -0.000011
      3          1           0        1.681802   -1.210207   -0.684156
      4          1           0       -1.681706   -1.197562    0.706126
      5          1           0        1.681901    1.197626   -0.705893
      6          1           0        1.681720    0.012538    1.390174
      7          1           0       -1.681808    1.210272    0.684039
      8          1           0       -1.681913   -0.012770   -1.390108
 ---------------------------------------------------------------------

 SCF Done:  E(UM062X) =  -582.526333015     A.U. after    9 cycles

 The electronic state is 1-A.
 Alpha  occ. eigenvalues --  -66.98810 -66.98810  -5.54084  -5.54076  -3.85232
 Alpha  occ. eigenvalues --   -3.85184  -3.85184  -3.85178  -3.85178  -3.85174
 Alpha  occ. eigenvalues --   -0.64468  -0.57751  -0.42203  -0.42202  -0.39569
 Alpha  occ. eigenvalues --   -0.39568  -0.34406
 Alpha virt. eigenvalues --    0.01371   0.01835   0.03299   0.03299   0.04286
 Alpha virt. eigenvalues --    0.05122   0.05122   0.05726   0.05726   0.07801
 Alpha virt. eigenvalues --    0.08849   0.08849   0.10694   0.15893   0.18254

  Beta  occ. eigenvalues --  -66.98810 -66.98810  -5.54084  -5.54076  -3.85232
  Beta  occ. eigenvalues --   -3.85184  -3.85184  -3.85178  -3.85178  -3.85174
  Beta  occ. eigenvalues --   -0.64468  -0.57751  -0.42203  -0.42202  -0.39569
  Beta  occ. eigenvalues --   -0.39568  -0.34406
  Beta virt. eigenvalues --    0.01371   0.01835   0.03299   0.03299   0.04286
  Beta virt. eigenvalues --    0.05122   0.05122   0.05726   0.05726   0.07801
  Beta virt. eigenvalues --    0.08849   0.08849   0.10694   0.15893   0.18254

 Mulliken charges and spin densities:
               1          2
     1  Si   0.300283   0.000000
     2  Si   0.300283  -0.000000
     3  H   -0.100094   0.000000
     4  H   -0.100096   0.000000
     5  H   -0.100094   0.000000
     6  H   -0.100095   0.000000
     7  H   -0.100094   0.000000
     8  H   -0.100093  -0.000000
 Sum of Mulliken charges =  -0.00000   0.00000

 Dipole moment (field-independent basis, Debye):
    X=              0.0000    Y=              0.0001    Z=             -0.0001  Tot=              0.0002
 Quadrupole moment (field-independent basis, Debye-Ang):
   XX=            -32.2865   YY=            -31.2875   ZZ=            -31.2875
   XY=             -0.0000   XZ=             -0.0002   YZ=              0.0000

 Summary of Natural Population Analysis:

                                       Natural Population
                Natural  -----------------------------------------------
    Atom  No    Charge         Core      Valence    Rydberg      Total
 -----------------------------------------------------------------------
     Si    1    0.18040      4.99946     1.80928    0.01086     6.81960
     Si    2    0.18040      4.99946     1.80928    0.01086     6.81960
      H    3   -0.06013      0.00000     0.55856    0.00158     0.56013
      H    4   -0.06013      0.00000     0.55856    0.00158     0.56013
      H    5   -0.06013      0.00000     0.55856    0.00158     0.56013
      H    6   -0.06013      0.00000     0.55856    0.00158     0.56013
      H    7   -0.06013      0.00000     0.55856    0.00158     0.56013
      H    8   -0.06013      0.00000     0.55856    0.00158     0.56013
 =======================================================================
   * Total *   -0.00000      9.99893     6.96990    0.03117    17.00000

 Optimization completed.
    -- Stationary point found.
 Normal termination of Gaussian 16 at Wed Apr 16 05:47:28 2025.
