 Gaussian 16, Revision A.03,
 Gaussian 16:  ES64L-G16RevA.03 25-Dec-2016

 --------------------------------------------
 #p opt UM062X/6-311+G** nosymm int=superfine
 --------------------------------------------

 -------------------
 Title Card Required
 -------------------
 Symbolic Z-matrix:
 Charge =  0 Multiplicity = 1

 SCF Done:  E(UM062X) =  -382.223304858     A.U. after   18 cycles
 SCF Done:  E(UM062X) =  -382.233986021     A.U. after   13 cycles
 SCF Done:  E(UM062X) =  -382.240733619     A.U. after   15 cycles
 SCF Done:  E(UM062X) =  -382.240857473     A.U. after   12 cycles
 SCF Done:  E(UM062X) =  -382.240916327     A.U. after   12 cycles
 SCF Done:  E(UM062X) =  -382.240991501     A.U. after   12 cycles
 SCF Done:  E(UM062X) =  -382.241024912     A.U. after    9 cycles
 SCF Done:  E(UM062X) =  -382.241029740     A.U. after   10 cycles
 SCF Done:  E(UM062X) =  -382.241030456     A.U. after    9 cycles
 SCF Done:  E(UM062X) =  -382.241031437     A.U. after   10 cycles
 SCF Done:  E(UM062X) =  -382.241032277     A.U. after    9 cycles
 SCF Done:  E(UM062X) =  -382.241032730     A.U. after    9 cycles
 SCF Done:  E(UM062X) =  -382.241032865     A.U. after    8 cycles
 Optimization completed.
    -- Stationary point found.

                          Input orientation:
 ---------------------------------------------------------------------
 Center     Atomic      Atomic             Coordinates (Angstroms)
 Number     Number       Type             X           Y           Z
 ---------------------------------------------------------------------
      1          6           0       -2.206264    0.000000    0.000000
      2         15           0        2.206264    0.000000    0.000000
      3          1           0        2.122583   -1.416986    0.021794
      4          1           0       -2.222691    1.054510    0.233671
      5          1           0        2.121859    0.072026    1.415250
      6          1           0       -2.222844   -0.323339   -1.030555
      7          1           0       -2.262663   -0.729375    0.794919
 ---------------------------------------------------------------------

 Alpha  occ. eigenvalues --  -78.02974 -10.59817  -6.85402  -4.96924  -4.96850
 Alpha  occ. eigenvalues --   -4.96669  -0.79224  -0.69363  -0.51430  -0.51390
 Alpha  occ. eigenvalues --   -0.43529  -0.34626  -0.22719
 Alpha virt. eigenvalues --   -0.13923   0.02103   0.03755   0.03976   0.04491
 Alpha virt. eigenvalues --    0.06118   0.06581   0.07220   0.07345   0.10967
 Alpha virt. eigenvalues --    0.16376   0.17975   0.18020   0.22544   0.30562

  Beta  occ. eigenvalues --  -78.02974 -10.59817  -6.85402  -4.96924  -4.96850
  Beta  occ. eigenvalues --   -4.96669  -0.79224  -0.69363  -0.51430  -0.51390
  Beta  occ. eigenvalues --   -0.43529  -0.34626  -0.22719
  Beta virt. eigenvalues --   -0.13923   0.02103   0.03755   0.03976   0.04491
  Beta virt. eigenvalues --    0.06118   0.06581   0.07220   0.07345   0.10967
  Beta virt. eigenvalues --    0.16376   0.17975   0.18020   0.22544   0.30562

 Mulliken charges and spin densities:
               1          2
     1  C   -0.484336  -0.000003
     2  P   -0.047964   0.000003
     3  H   -0.009254  -0.000000
     4  H    0.184381   0.000000
     5  H   -0.009254  -0.000000
     6  H    0.184346   0.000000
     7  H    0.182081   0.000000
 Sum of Mulliken charges =  -0.00000   0.00000

 Dipole moment (field-independent basis, Debye):
    X=             -1.8175    Y=             -0.5814    Z=              0.6213  Tot=              2.0068
 Quadrupole moment (field-independent basis, Debye-Ang):
   XX=            -22.6211   YY=            -22.4400   ZZ=            -22.5335
   XY=             -1.3644   XZ=              1.4567   YZ=              0.7046

 Normal termination of Gaussian 16 at Mon Apr 21 19:09:52 2025.
