 Gaussian 16, Revision A.03,
 Gaussian 16:  ES64L-G16RevA.03 25-Dec-2016

 --------------------------------------------
 #p opt UM062X/6-311+G** nosymm int=superfine
 --------------------------------------------

 -------------------
 Title Card Required
 -------------------
 Symbolic Z-matrix:
 Charge = -1 Multiplicity = 2

 SCF Done:  E(UM062X) =  -53.2121707202     A.U. after   11 cycles
 SCF Done:  E(UM062X) =  -53.2149385925     A.U. after   10 cycles
 SCF Done:  E(UM062X) =  -53.2155357356     A.U. after   10 cycles
 SCF Done:  E(UM062X) =  -53.2155364614     A.U. after    8 cycles
 Optimization completed.
    -- Stationary point found.

                          Input orientation:
 ---------------------------------------------------------------------
 Center     Atomic      Atomic             Coordinates (Angstroms)
 Number     Number       Type             X           Y           Z
 ---------------------------------------------------------------------
      1          5           0       -1.715672    0.000000    0.000000
      2          5           0        1.715672    0.000000    0.000000
      3          1           0        1.806734   -1.196032   -0.000013
      4          1           0       -1.806353   -0.598035    1.035819
      5          1           0        1.806498    0.598053   -1.035797
      6          1           0        1.806303    0.598021    1.035830
      7          1           0       -1.806741    1.196032    0.000000
      8          1           0       -1.806441   -0.598040   -1.035809
 ---------------------------------------------------------------------

 Alpha  occ. eigenvalues --   -6.83465  -6.83464  -0.39363  -0.38146  -0.21006
 Alpha  occ. eigenvalues --   -0.21006  -0.20351  -0.20351   0.00422
 Alpha virt. eigenvalues --    0.13685   0.17140   0.17705   0.17705   0.18703
 Alpha virt. eigenvalues --    0.18703   0.20718   0.22736   0.23134   0.32942
 Alpha virt. eigenvalues --    0.32943   0.35612   0.35614   0.38422   0.39536

  Beta  occ. eigenvalues --   -6.83424  -6.83424  -0.37388  -0.36614  -0.20762
  Beta  occ. eigenvalues --   -0.20762  -0.20188  -0.20188
  Beta virt. eigenvalues --    0.13094   0.14219   0.15568   0.16150   0.16150
  Beta virt. eigenvalues --    0.18271   0.18271   0.22835   0.23418   0.26610
  Beta virt. eigenvalues --    0.32142   0.32142   0.35247   0.35249   0.38284

 Mulliken charges and spin densities:
               1          2
     1  B   -0.314829   0.585412
     2  B   -0.314829   0.585412
     3  H   -0.061756  -0.028496
     4  H   -0.061706  -0.028458
     5  H   -0.061712  -0.028458
     6  H   -0.061703  -0.028458
     7  H   -0.061756  -0.028496
     8  H   -0.061709  -0.028458
 Sum of Mulliken charges =  -1.00000   1.00000

 Dipole moment (field-independent basis, Debye):
    X=              0.0000    Y=             -0.0000    Z=              0.0001  Tot=              0.0001
 Quadrupole moment (field-independent basis, Debye-Ang):
   XX=            -38.8664   YY=            -24.1991   ZZ=            -24.1987
   XY=              0.0002   XZ=              0.0000   YZ=              0.0000

 Normal termination of Gaussian 16 at Mon Apr 21 16:51:40 2025.
