 Gaussian 16, Revision A.03,
 Gaussian 16:  ES64L-G16RevA.03 25-Dec-2016

 --------------------------------------------
 #p opt UM062X/6-311+G** nosymm int=superfine
 --------------------------------------------

 -------------------
 Title Card Required
 -------------------
 Symbolic Z-matrix:
 Charge =  0 Multiplicity = 1

 SCF Done:  E(UM062X) =  -76.4008597982     A.U. after   10 cycles
 SCF Done:  E(UM062X) =  -76.6036484830     A.U. after    9 cycles
 SCF Done:  E(UM062X) =  -76.7023675742     A.U. after   10 cycles
 SCF Done:  E(UM062X) =  -76.7026699611     A.U. after    8 cycles
 SCF Done:  E(UM062X) =  -76.7026715858     A.U. after    7 cycles
 Optimization completed.
    -- Stationary point found.

                          Input orientation:
 ---------------------------------------------------------------------
 Center     Atomic      Atomic             Coordinates (Angstroms)
 Number     Number       Type             X           Y           Z
 ---------------------------------------------------------------------
      1          6           0       -0.412976    0.000000    0.000000
      2          6           0        0.412976    0.000000    0.000000
      3          1           0       -1.469636   -0.000000    0.000000
      4          1           0        1.469634    0.000000   -0.000000
 ---------------------------------------------------------------------

 Alpha  occ. eigenvalues --  -10.49455 -10.43338  -0.88436  -0.58669  -0.54998
 Alpha  occ. eigenvalues --   -0.45475  -0.45475
 Alpha virt. eigenvalues --    0.02956   0.03725   0.06816   0.06816   0.08309
 Alpha virt. eigenvalues --    0.08309   0.09877   0.17101   0.23369   0.25220
 Alpha virt. eigenvalues --    0.25456   0.25456   0.44371   0.49526   0.51535

  Beta  occ. eigenvalues --  -10.49455 -10.43338  -0.88436  -0.58669  -0.54998
  Beta  occ. eigenvalues --   -0.45475  -0.45475
  Beta virt. eigenvalues --    0.02956   0.03725   0.06816   0.06816   0.08309
  Beta virt. eigenvalues --    0.08309   0.09877   0.17101   0.23369   0.25220
  Beta virt. eigenvalues --    0.25456   0.25456   0.44371   0.49526   0.51535

 Mulliken charges and spin densities:
               1          2
     1  C   -0.097582   0.000000
     2  C   -0.097582  -0.000000
     3  H    0.097583   0.000000
     4  H    0.097582  -0.000000
 Sum of Mulliken charges =  -0.00000   0.00000

 Dipole moment (field-independent basis, Debye):
    X=             -0.0000    Y=              0.0000    Z=              0.0000  Tot=              0.0000
 Quadrupole moment (field-independent basis, Debye-Ang):
   XX=             -7.9537   YY=            -11.7344   ZZ=            -11.7344
   XY=              0.0000   XZ=             -0.0000   YZ=             -0.0000

 Normal termination of Gaussian 16 at Tue Dec  3 19:54:26 2024.
