 Gaussian 16, Revision A.03,
 Gaussian 16:  ES64L-G16RevA.03 25-Dec-2016

 --------------------------------------------
 #p opt UM062X/6-311+G** nosymm int=superfine
 --------------------------------------------

 -------------------
 Title Card Required
 -------------------
 Symbolic Z-matrix:
 Charge =  0 Multiplicity = 1

 SCF Done:  E(UM062X) =  -83.1202882635     A.U. after   10 cycles
 SCF Done:  E(UM062X) =  -83.1362449733     A.U. after    9 cycles
 SCF Done:  E(UM062X) =  -83.1399271201     A.U. after    9 cycles
 SCF Done:  E(UM062X) =  -83.1399554836     A.U. after    7 cycles
 Optimization completed.
    -- Stationary point found.

                          Input orientation:
 ---------------------------------------------------------------------
 Center     Atomic      Atomic             Coordinates (Angstroms)
 Number     Number       Type             X           Y           Z
 ---------------------------------------------------------------------
      1          5           0       -2.102429    0.000000    0.000000
      2          7           0        2.102429    0.000000    0.000000
      3          1           0        2.467007   -0.945084    0.000002
      4          1           0       -2.111776   -0.593890    1.028616
      5          1           0        2.466902    0.472591   -0.818489
      6          1           0        2.466889    0.472590    0.818495
      7          1           0       -2.111773    1.187748    0.000013
      8          1           0       -2.111793   -0.593869   -1.028627
 ---------------------------------------------------------------------

 Alpha  occ. eigenvalues --  -14.72729  -7.04445  -0.96025  -0.57705  -0.53854
 Alpha  occ. eigenvalues --   -0.53854  -0.40111  -0.40111  -0.34076
 Alpha virt. eigenvalues --   -0.02344   0.02682   0.04748   0.04748   0.04906
 Alpha virt. eigenvalues --    0.08549   0.10613   0.10613   0.16868   0.18043
 Alpha virt. eigenvalues --    0.18043   0.18975   0.18975   0.22005   0.27318

  Beta  occ. eigenvalues --  -14.72729  -7.04445  -0.96025  -0.57705  -0.53854
  Beta  occ. eigenvalues --   -0.53854  -0.40111  -0.40111  -0.34076
  Beta virt. eigenvalues --   -0.02344   0.02682   0.04748   0.04748   0.04906
  Beta virt. eigenvalues --    0.08549   0.10613   0.10613   0.16868   0.18043
  Beta virt. eigenvalues --    0.18043   0.18975   0.18975   0.22005   0.27318

 Mulliken charges and spin densities:
               1          2
     1  B    0.022939  -0.000000
     2  N   -0.730451   0.000000
     3  H    0.244416  -0.000000
     4  H   -0.008576   0.000000
     5  H    0.244416  -0.000000
     6  H    0.244416  -0.000000
     7  H   -0.008584   0.000000
     8  H   -0.008576   0.000000
 Sum of Mulliken charges =  -0.00000  -0.00000

 Dipole moment (field-independent basis, Debye):
    X=              1.8914    Y=              0.0002    Z=              0.0000  Tot=              1.8914
 Quadrupole moment (field-independent basis, Debye-Ang):
   XX=             -9.4038   YY=            -15.6242   ZZ=            -15.6242
   XY=              0.0001   XZ=             -0.0000   YZ=              0.0000

 Normal termination of Gaussian 16 at Mon Apr 21 17:40:28 2025.
