 Gaussian 16, Revision A.03,
 Gaussian 16:  ES64L-G16RevA.03 25-Dec-2016

 --------------------------------------------
 #p opt UM062X/6-311+G** nosymm int=superfine
 --------------------------------------------

 -------------------
 Title Card Required
 -------------------
 Symbolic Z-matrix:
 Charge =  0 Multiplicity = 1

 SCF Done:  E(UM062X) =  -95.5900007056     A.U. after   14 cycles
 SCF Done:  E(UM062X) =  -95.6058001882     A.U. after   11 cycles
 SCF Done:  E(UM062X) =  -95.6171484976     A.U. after   13 cycles
 SCF Done:  E(UM062X) =  -95.6176229321     A.U. after   12 cycles
 SCF Done:  E(UM062X) =  -95.6180086880     A.U. after   12 cycles
 SCF Done:  E(UM062X) =  -95.6181434249     A.U. after   12 cycles
 SCF Done:  E(UM062X) =  -95.6181703886     A.U. after   10 cycles
 SCF Done:  E(UM062X) =  -95.6181752225     A.U. after   11 cycles
 SCF Done:  E(UM062X) =  -95.6181766558     A.U. after    9 cycles
 SCF Done:  E(UM062X) =  -95.6181785568     A.U. after   11 cycles
 SCF Done:  E(UM062X) =  -95.6181799578     A.U. after    9 cycles
 SCF Done:  E(UM062X) =  -95.6181804316     A.U. after   11 cycles
 Optimization completed.
    -- Stationary point found.

                          Input orientation:
 ---------------------------------------------------------------------
 Center     Atomic      Atomic             Coordinates (Angstroms)
 Number     Number       Type             X           Y           Z
 ---------------------------------------------------------------------
      1          6           0       -1.780542    0.000000    0.000000
      2          7           0        1.780542    0.000000    0.000000
      3          1           0        1.731135   -1.015212    0.139256
      4          1           0       -1.776796    1.080369    0.009930
      5          1           0        1.731463    0.368391    0.956230
      6          1           0       -1.776755   -0.524982   -0.944291
      7          1           0       -1.908192   -0.548326    0.922501
 ---------------------------------------------------------------------

 Alpha  occ. eigenvalues --  -14.74888 -10.62037  -0.90181  -0.80847  -0.53033
 Alpha  occ. eigenvalues --   -0.52842  -0.50672  -0.35939  -0.25305
 Alpha virt. eigenvalues --   -0.13778   0.01748   0.04659   0.05031   0.07068
 Alpha virt. eigenvalues --    0.09937   0.13099   0.15896   0.16750   0.16944
 Alpha virt. eigenvalues --    0.18456   0.20633   0.22195   0.27536   0.41129

  Beta  occ. eigenvalues --  -14.74888 -10.62037  -0.90181  -0.80847  -0.53033
  Beta  occ. eigenvalues --   -0.52842  -0.50672  -0.35939  -0.25305
  Beta virt. eigenvalues --   -0.13778   0.01748   0.04659   0.05031   0.07068
  Beta virt. eigenvalues --    0.09937   0.13099   0.15896   0.16750   0.16944
  Beta virt. eigenvalues --    0.18456   0.20633   0.22195   0.27536   0.41129

 Mulliken charges and spin densities:
               1          2
     1  C   -0.431485   0.000000
     2  N   -0.581230  -0.000000
     3  H    0.211226   0.000000
     4  H    0.200750   0.000000
     5  H    0.211228   0.000000
     6  H    0.200792   0.000000
     7  H    0.188719   0.000000
 Sum of Mulliken charges =  -0.00000   0.00000

 Dipole moment (field-independent basis, Debye):
    X=             -3.2563    Y=             -0.9953    Z=              1.6858  Tot=              3.7995
 Quadrupole moment (field-independent basis, Debye-Ang):
   XX=            -15.5988   YY=            -13.4365   ZZ=            -14.2378
   XY=             -1.8311   XZ=              3.1028   YZ=              0.7267

 Normal termination of Gaussian 16 at Mon Apr 21 18:16:45 2025.
