 Gaussian 16, Revision A.03,
 Gaussian 16:  ES64L-G16RevA.03 25-Dec-2016

 --------------------------------------------
 #p opt UM062X/6-311+G** nosymm int=superfine
 --------------------------------------------

 -------------------
 Title Card Required
 -------------------
 Symbolic Z-matrix:
 Charge =  0 Multiplicity = 1

 SCF Done:  E(UM062X) =  -79.0805638384     A.U. after   10 cycles
 SCF Done:  E(UM062X) =  -79.1467383875     A.U. after    9 cycles
 SCF Done:  E(UM062X) =  -79.2034986259     A.U. after    9 cycles
 SCF Done:  E(UM062X) =  -79.2071452481     A.U. after    8 cycles
 SCF Done:  E(UM062X) =  -79.2071841889     A.U. after    7 cycles
 Optimization completed.
    -- Stationary point found.

                          Input orientation:
 ---------------------------------------------------------------------
 Center     Atomic      Atomic             Coordinates (Angstroms)
 Number     Number       Type             X           Y           Z
 ---------------------------------------------------------------------
      1          6           0       -0.465764    0.000000    0.000000
      2          6           0        0.465811    0.000000    0.000000
      3          1           0        1.025595   -0.842655    0.487602
      4          1           0       -1.025527   -0.843661   -0.485938
      5          1           0        1.025575    0.843663    0.485933
      6          1           0        1.025582   -0.000904   -0.973598
      7          1           0       -1.025547    0.842652   -0.487608
      8          1           0       -1.025534    0.000901    0.973596
 ---------------------------------------------------------------------

 Alpha  occ. eigenvalues --  -10.51355 -10.48974  -1.00248  -0.66495  -0.59839
 Alpha  occ. eigenvalues --   -0.59838  -0.55488  -0.31060  -0.31058
 Alpha virt. eigenvalues --    0.01825   0.03723   0.03723   0.04067   0.08516
 Alpha virt. eigenvalues --    0.09081   0.09081   0.14254   0.16315   0.16315
 Alpha virt. eigenvalues --    0.21180   0.21181   0.23542   0.27255   0.41779

  Beta  occ. eigenvalues --  -10.51355 -10.48974  -1.00248  -0.66495  -0.59839
  Beta  occ. eigenvalues --   -0.59838  -0.55488  -0.31060  -0.31058
  Beta virt. eigenvalues --    0.01825   0.03723   0.03723   0.04067   0.08516
  Beta virt. eigenvalues --    0.09081   0.09081   0.14254   0.16315   0.16315
  Beta virt. eigenvalues --    0.21180   0.21181   0.23542   0.27255   0.41779

 Mulliken charges and spin densities:
               1          2
     1  C   -0.400088  -0.000000
     2  C   -0.400088   0.000000
     3  H    0.133367  -0.000000
     4  H    0.133360  -0.000000
     5  H    0.133360  -0.000000
     6  H    0.133361  -0.000000
     7  H    0.133367  -0.000000
     8  H    0.133361  -0.000000
 Sum of Mulliken charges =  -0.00000   0.00000

 Dipole moment (field-independent basis, Debye):
    X=              0.0000    Y=             -0.0000    Z=             -0.0000  Tot=              0.0000
 Quadrupole moment (field-independent basis, Debye-Ang):
   XX=            -15.7587   YY=            -14.9724   ZZ=            -14.9726
   XY=             -0.0001   XZ=              0.0000   YZ=             -0.0002

 Normal termination of Gaussian 16 at Tue Nov 19 11:33:24 2024.
