 Gaussian 16, Revision A.03,
 Gaussian 16:  ES64L-G16RevA.03 25-Dec-2016

 --------------------------------------------
 #p opt UM062X/6-311+G** nosymm int=superfine
 --------------------------------------------

 -------------------
 Title Card Required
 -------------------
 Symbolic Z-matrix:
 Charge =  0 Multiplicity = 1

 SCF Done:  E(UM062X) =  -51.7825341918     A.U. after   10 cycles
 SCF Done:  E(UM062X) =  -51.7880242572     A.U. after    9 cycles
 SCF Done:  E(UM062X) =  -51.7913923765     A.U. after   11 cycles
 SCF Done:  E(UM062X) =  -51.7913957877     A.U. after   11 cycles
 SCF Done:  E(UM062X) =  -51.7913950240     A.U. after    8 cycles
 SCF Done:  E(UM062X) =  -51.7913952709     A.U. after   11 cycles
 SCF Done:  E(UM062X) =  -51.7913957406     A.U. after    9 cycles
 Optimization completed.
    -- Stationary point found.

                          Input orientation:
 ---------------------------------------------------------------------
 Center     Atomic      Atomic             Coordinates (Angstroms)
 Number     Number       Type             X           Y           Z
 ---------------------------------------------------------------------
      1          5           0       -2.170607    0.000000    0.000000
      2          5           0        2.170607    0.000000    0.000000
      3          1           0       -2.624467   -1.088678   -0.000707
      4          1           0        2.624467    1.088658   -0.006561
      5          1           0       -2.624469    1.088677   -0.000642
      6          1           0        2.624469   -1.088665    0.005214
 ---------------------------------------------------------------------

 Alpha  occ. eigenvalues --   -7.11616  -7.11615  -0.58024  -0.57810  -0.45398
 Alpha  occ. eigenvalues --   -0.45349  -0.19413
 Alpha virt. eigenvalues --   -0.08274  -0.05165  -0.04333   0.02243   0.03096
 Alpha virt. eigenvalues --    0.03842   0.05353   0.06152   0.07156   0.08421
 Alpha virt. eigenvalues --    0.09965   0.15159   0.15740   0.17199   0.23455

  Beta  occ. eigenvalues --   -7.11616  -7.11615  -0.58024  -0.57810  -0.45398
  Beta  occ. eigenvalues --   -0.45349  -0.19413
  Beta virt. eigenvalues --   -0.08274  -0.05165  -0.04333   0.02243   0.03096
  Beta virt. eigenvalues --    0.03842   0.05353   0.06152   0.07156   0.08421
  Beta virt. eigenvalues --    0.09965   0.15159   0.15740   0.17199   0.23455

 Mulliken charges and spin densities:
               1          2
     1  B   -0.062781   0.000001
     2  B   -0.062781  -0.000001
     3  H    0.031390   0.000000
     4  H    0.031390  -0.000000
     5  H    0.031390   0.000000
     6  H    0.031390  -0.000000
 Sum of Mulliken charges =  -0.00000   0.00000

 Dipole moment (field-independent basis, Debye):
    X=              0.0000    Y=             -0.0000    Z=             -0.0016  Tot=              0.0016
 Quadrupole moment (field-independent basis, Debye-Ang):
   XX=            -10.2793   YY=            -16.9713   ZZ=            -14.6419
   XY=              0.0000   XZ=             -0.0000   YZ=              0.0063

 Normal termination of Gaussian 16 at Mon Apr 21 17:14:28 2025.
