 Gaussian 16, Revision A.03,
 Gaussian 16:  ES64L-G16RevA.03 25-Dec-2016

 --------------------------------------------
 #p opt UM062X/6-311+G** nosymm int=superfine
 --------------------------------------------

 -------------------
 Title Card Required
 -------------------
 Symbolic Z-matrix:
 Charge =  0 Multiplicity = 1

 SCF Done:  E(UM062X) =  -797.379374609     A.U. after   16 cycles
 SCF Done:  E(UM062X) =  -797.379386604     A.U. after   14 cycles
 SCF Done:  E(UM062X) =  -797.379389203     A.U. after   13 cycles
 SCF Done:  E(UM062X) =  -797.379389493     A.U. after    9 cycles
 SCF Done:  E(UM062X) =  -797.379390515     A.U. after   12 cycles
 SCF Done:  E(UM062X) =  -797.379390382     A.U. after   13 cycles
 SCF Done:  E(UM062X) =  -797.379392450     A.U. after   13 cycles
 SCF Done:  E(UM062X) =  -797.379392466     A.U. after   12 cycles
 Optimization completed.
    -- Stationary point found.

                          Input orientation:
 ---------------------------------------------------------------------
 Center     Atomic      Atomic             Coordinates (Angstroms)
 Number     Number       Type             X           Y           Z
 ---------------------------------------------------------------------
      1         16           0       -2.418191    0.000000    0.000000
      2         16           0        2.418191    0.000000    0.000000
      3          1           0       -2.253093   -1.305270   -0.285187
      4          1           0        2.256297    0.294472    1.303613
 ---------------------------------------------------------------------

 Alpha  occ. eigenvalues --  -89.94300 -89.94299  -8.30567  -8.30566  -6.22707
 Alpha  occ. eigenvalues --   -6.22706  -6.22466  -6.22465  -6.21896  -6.21896
 Alpha  occ. eigenvalues --   -0.81341  -0.81162  -0.47334  -0.47327  -0.33364
 Alpha  occ. eigenvalues --   -0.33311  -0.29828
 Alpha virt. eigenvalues --   -0.22715   0.01777   0.02988   0.04429   0.04740
 Alpha virt. eigenvalues --    0.06490   0.06660   0.07090   0.07350   0.08298
 Alpha virt. eigenvalues --    0.12721   0.31627   0.31796   0.32430   0.35239

  Beta  occ. eigenvalues --  -89.94300 -89.94299  -8.30567  -8.30566  -6.22707
  Beta  occ. eigenvalues --   -6.22706  -6.22466  -6.22465  -6.21896  -6.21896
  Beta  occ. eigenvalues --   -0.81341  -0.81162  -0.47334  -0.47327  -0.33364
  Beta  occ. eigenvalues --   -0.33311  -0.29828
  Beta virt. eigenvalues --   -0.22715   0.01777   0.02988   0.04429   0.04740
  Beta virt. eigenvalues --    0.06490   0.06660   0.07090   0.07350   0.08298
  Beta virt. eigenvalues --    0.12721   0.31627   0.31796   0.32430   0.35239

 Mulliken charges and spin densities:
               1          2
     1  S   -0.080283   0.000000
     2  S   -0.080402   0.000000
     3  H    0.080348   0.000000
     4  H    0.080338   0.000000
 Sum of Mulliken charges =   0.00000   0.00000

 Dipole moment (field-independent basis, Debye):
    X=              0.0018    Y=             -0.8382    Z=              0.8442  Tot=              1.1897
 Quadrupole moment (field-independent basis, Debye-Ang):
   XX=            -26.1828   YY=            -28.0937   ZZ=            -28.1171
   XY=              3.0461   XZ=              3.0278   YZ=              1.6920

 Normal termination of Gaussian 16 at Mon Apr 21 23:03:37 2025.
