 Gaussian 16, Revision A.03,
 Gaussian 16:  ES64L-G16RevA.03 25-Dec-2016

 ---------------------------------------
 #p UM062X/6-311+G** force int=superfine
 ---------------------------------------

 -------------------
 Title Card Required
 -------------------
 Symbolic Z-matrix:
 Charge =  1 Multiplicity = 2

                         Standard orientation:
 ---------------------------------------------------------------------
 Center     Atomic      Atomic             Coordinates (Angstroms)
 Number     Number       Type             X           Y           Z
 ---------------------------------------------------------------------
      1          6           0        1.012937   -0.000002    0.000050
      2          6           0       -1.012937   -0.000008   -0.000049
      3          1           0       -1.147893    0.083845    1.073847
      4          1           0        1.147203    0.972057    0.464368
      5          1           0       -1.147408   -0.971987   -0.464472
      6          1           0       -1.147188    0.888160   -0.609681
      7          1           0        1.147903   -0.083932   -1.073839
      8          1           0        1.147382   -0.888080    0.609770
 ---------------------------------------------------------------------

 SCF Done:  E(UM062X) =  -79.3690113311     A.U. after    9 cycles

 The electronic state is 2-A.
 Alpha  occ. eigenvalues --  -10.86081 -10.86071  -1.10715  -1.01451  -0.78801
 Alpha  occ. eigenvalues --   -0.78800  -0.73663  -0.73663  -0.63251
 Alpha virt. eigenvalues --   -0.23761  -0.16503  -0.11192  -0.11192  -0.09842
 Alpha virt. eigenvalues --   -0.07272  -0.06420  -0.06419  -0.05486  -0.05484
 Alpha virt. eigenvalues --   -0.01907   0.01589   0.01592   0.04295   0.07392

  Beta  occ. eigenvalues --  -10.85863 -10.85863  -1.07187  -0.98479  -0.77811
  Beta  occ. eigenvalues --   -0.77810  -0.72863  -0.72862
  Beta virt. eigenvalues --   -0.39685  -0.17408  -0.16117  -0.11143  -0.11143
  Beta virt. eigenvalues --   -0.08091  -0.07448  -0.06642  -0.06641  -0.05061
  Beta virt. eigenvalues --   -0.05058  -0.00989   0.02248   0.02251   0.04806

 Mulliken charges and spin densities:
               1          2
     1  C   -0.318445   0.548117
     2  C   -0.318445   0.548117
     3  H    0.272825  -0.016060
     4  H    0.272806  -0.016027
     5  H    0.272815  -0.016031
     6  H    0.272805  -0.016026
     7  H    0.272826  -0.016060
     8  H    0.272813  -0.016030
 Sum of Mulliken charges =   1.00000   1.00000

 Dipole moment (field-independent basis, Debye):
    X=              0.0000    Y=              0.0000    Z=             -0.0000  Tot=              0.0000
 Quadrupole moment (field-independent basis, Debye-Ang):
   XX=             -6.3920   YY=            -10.7646   ZZ=            -10.7648
   XY=             -0.0000   XZ=             -0.0004   YZ=             -0.0000

 Normal termination of Gaussian 16 at Wed Nov 13 13:43:49 2024.
