 Gaussian 16, Revision A.03,
 Gaussian 16:  ES64L-G16RevA.03 25-Dec-2016

 --------------------------------------------
 #p opt UM062X/6-311+G** nosymm int=superfine
 --------------------------------------------

 -------------------
 Title Card Required
 -------------------
 Symbolic Z-matrix:
 Charge =  1 Multiplicity = 2

 SCF Done:  E(UM062X) =  -76.6050827764     A.U. after   11 cycles
 SCF Done:  E(UM062X) =  -76.6433487427     A.U. after   13 cycles
 SCF Done:  E(UM062X) =  -76.7032523960     A.U. after   13 cycles
 SCF Done:  E(UM062X) =  -76.7098192377     A.U. after   11 cycles
 SCF Done:  E(UM062X) =  -76.7098490643     A.U. after   14 cycles
 Optimization completed.
    -- Stationary point found.

                          Input orientation:
 ---------------------------------------------------------------------
 Center     Atomic      Atomic             Coordinates (Angstroms)
 Number     Number       Type             X           Y           Z
 ---------------------------------------------------------------------
      1          6           0       -0.869880    0.000000    0.000000
      2          6           0        0.869880    0.000000    0.000000
      3          1           0       -1.967767   -0.000011    0.000008
      4          1           0        1.967742   -0.000010    0.000007
 ---------------------------------------------------------------------

 Alpha  occ. eigenvalues --  -11.00289 -11.00257  -1.09334  -0.99345  -0.83491
 Alpha  occ. eigenvalues --   -0.62868  -0.60781
 Alpha virt. eigenvalues --   -0.36915  -0.34928  -0.29693  -0.14168  -0.11447
 Alpha virt. eigenvalues --   -0.10449  -0.08988  -0.08755  -0.05334  -0.05028
 Alpha virt. eigenvalues --    0.01182   0.03621   0.07095   0.22972   0.31342

  Beta  occ. eigenvalues --  -11.00035 -11.00013  -1.05609  -0.97551  -0.82555
  Beta  occ. eigenvalues --   -0.58848
  Beta virt. eigenvalues --   -0.40353  -0.33202  -0.28615  -0.27601  -0.15178
  Beta virt. eigenvalues --   -0.11771  -0.10935  -0.09362  -0.09197  -0.05302
  Beta virt. eigenvalues --   -0.05028   0.00259   0.03718   0.07352   0.23590

 Mulliken charges and spin densities:
               1          2
     1  C    0.134384   0.522070
     2  C    0.134381   0.522069
     3  H    0.365622  -0.022070
     4  H    0.365612  -0.022069
 Sum of Mulliken charges =   1.00000   1.00000

 Dipole moment (field-independent basis, Debye):
    X=             -0.0001    Y=             -0.0000    Z=              0.0000  Tot=              0.0001
 Quadrupole moment (field-independent basis, Debye-Ang):
   XX=              3.5823   YY=            -10.9112   ZZ=            -12.7306
   XY=              0.0000   XZ=             -0.0000   YZ=             -0.5275

 Normal termination of Gaussian 16 at Tue Nov 19 13:17:05 2024.
