 Gaussian 16, Revision A.03,
 Gaussian 16:  ES64L-G16RevA.03 25-Dec-2016

 --------------------------------------------
 #p opt UM062X/6-311+G** nosymm int=superfine
 --------------------------------------------

 -------------------
 Title Card Required
 -------------------
 Symbolic Z-matrix:
 Charge =  0 Multiplicity = 1

 SCF Done:  E(UM062X) =  -111.689249095     A.U. after   16 cycles
 SCF Done:  E(UM062X) =  -111.708637789     A.U. after   15 cycles
 SCF Done:  E(UM062X) =  -111.717583139     A.U. after   14 cycles
 SCF Done:  E(UM062X) =  -111.718613518     A.U. after   12 cycles
 SCF Done:  E(UM062X) =  -111.719952263     A.U. after   13 cycles
 SCF Done:  E(UM062X) =  -111.720308593     A.U. after   13 cycles
 SCF Done:  E(UM062X) =  -111.720398136     A.U. after   11 cycles
 SCF Done:  E(UM062X) =  -111.720420182     A.U. after   10 cycles
 SCF Done:  E(UM062X) =  -111.720424863     A.U. after    9 cycles
 SCF Done:  E(UM062X) =  -111.720425198     A.U. after    9 cycles
 Optimization completed.
    -- Stationary point found.

                          Input orientation:
 ---------------------------------------------------------------------
 Center     Atomic      Atomic             Coordinates (Angstroms)
 Number     Number       Type             X           Y           Z
 ---------------------------------------------------------------------
      1          7           0       -1.236540    0.000000    0.000000
      2          7           0        1.236540    0.000000    0.000000
      3          1           0       -1.203020   -0.821318   -0.614142
      4          1           0        1.203086    0.416979   -0.936941
      5          1           0       -1.202791   -0.418535    0.936237
      6          1           0        1.202740    0.822319    0.612779
 ---------------------------------------------------------------------

 Alpha  occ. eigenvalues --  -14.79994 -14.79991  -0.95810  -0.92836  -0.55304
 Alpha  occ. eigenvalues --   -0.53411  -0.41148  -0.39390  -0.33251
 Alpha virt. eigenvalues --   -0.11207   0.04596   0.07254   0.08791   0.11470
 Alpha virt. eigenvalues --    0.13240   0.13796   0.15544   0.15976   0.20190
 Alpha virt. eigenvalues --    0.21492   0.27057   0.27903   0.51413   0.51765

  Beta  occ. eigenvalues --  -14.79994 -14.79991  -0.95810  -0.92836  -0.55304
  Beta  occ. eigenvalues --   -0.53411  -0.41148  -0.39390  -0.33251
  Beta virt. eigenvalues --   -0.11207   0.04596   0.07254   0.08791   0.11470
  Beta virt. eigenvalues --    0.13240   0.13796   0.15544   0.15976   0.20190
  Beta virt. eigenvalues --    0.21492   0.27057   0.27903   0.51413   0.51765

 Mulliken charges and spin densities:
               1          2
     1  N   -0.511972  -0.000000
     2  N   -0.511976   0.000000
     3  H    0.255950   0.000000
     4  H    0.255950  -0.000000
     5  H    0.256023   0.000000
     6  H    0.256025  -0.000000
 Sum of Mulliken charges =  -0.00000   0.00000

 Dipole moment (field-independent basis, Debye):
    X=              0.0000    Y=             -0.0008    Z=             -0.0031  Tot=              0.0032
 Quadrupole moment (field-independent basis, Debye-Ang):
   XX=            -15.5114   YY=            -14.0738   ZZ=            -11.3496
   XY=              5.4573   XZ=             -1.4228   YZ=              0.7619

 Normal termination of Gaussian 16 at Thu May 15 14:36:45 2025.
