 Gaussian 16, Revision A.03,
 Gaussian 16:  ES64L-G16RevA.03 25-Dec-2016

 --------------------------------------------
 #p opt UM062X/6-311+G** nosymm int=superfine
 --------------------------------------------

 -------------------
 Title Card Required
 -------------------
 Symbolic Z-matrix:
 Charge =  0 Multiplicity = 1

 SCF Done:  E(UM062X) =  -76.9156910496     A.U. after   10 cycles
 SCF Done:  E(UM062X) =  -76.9603501533     A.U. after    9 cycles
 SCF Done:  E(UM062X) =  -77.0285407849     A.U. after   10 cycles
 SCF Done:  E(UM062X) =  -77.0594799501     A.U. after   10 cycles
 SCF Done:  E(UM062X) =  -77.0596985219     A.U. after    8 cycles
 Optimization completed.
    -- Stationary point found.

                          Input orientation:
 ---------------------------------------------------------------------
 Center     Atomic      Atomic             Coordinates (Angstroms)
 Number     Number       Type             X           Y           Z
 ---------------------------------------------------------------------
      1          6           0       -0.873833    0.000000    0.000000
      2          6           0        0.873833    0.000000    0.000000
      3          1           0       -1.951884   -0.000000    0.000000
      4          1           0        1.951846   -0.000000   -0.000000
 ---------------------------------------------------------------------

 Alpha  occ. eigenvalues --  -10.66549 -10.66521  -0.77317  -0.70018  -0.52442
 Alpha  occ. eigenvalues --   -0.29863  -0.29863
 Alpha virt. eigenvalues --   -0.05382  -0.05382  -0.01289   0.02290   0.04888
 Alpha virt. eigenvalues --    0.08481   0.08481   0.09604   0.10955   0.10955
 Alpha virt. eigenvalues --    0.17490   0.22350   0.26768   0.46853   0.58311

  Beta  occ. eigenvalues --  -10.66549 -10.66521  -0.77317  -0.70018  -0.52442
  Beta  occ. eigenvalues --   -0.29863  -0.29863
  Beta virt. eigenvalues --   -0.05382  -0.05382  -0.01289   0.02290   0.04888
  Beta virt. eigenvalues --    0.08481   0.08481   0.09604   0.10955   0.10955
  Beta virt. eigenvalues --    0.17490   0.22350   0.26768   0.46853   0.58311

 Mulliken charges and spin densities:
               1          2
     1  C   -0.250991  -0.000000
     2  C   -0.250992   0.000000
     3  H    0.250997   0.000000
     4  H    0.250987  -0.000000
 Sum of Mulliken charges =  -0.00000  -0.00000

 Dipole moment (field-independent basis, Debye):
    X=             -0.0001    Y=             -0.0000    Z=              0.0000  Tot=              0.0001
 Quadrupole moment (field-independent basis, Debye-Ang):
   XX=             -4.7668   YY=            -15.9245   ZZ=            -15.9245
   XY=              0.0000   XZ=             -0.0000   YZ=             -0.0000

 Normal termination of Gaussian 16 at Tue Dec  3 20:16:33 2024.
