 Gaussian 16, Revision A.03,
 Gaussian 16:  ES64L-G16RevA.03 25-Dec-2016

 --------------------------------------------
 #p opt UM062X/6-311+G** nosymm int=superfine
 --------------------------------------------

 -------------------
 Title Card Required
 -------------------
 Symbolic Z-matrix:
 Charge =  0 Multiplicity = 3

 SCF Done:  E(UM062X) =  -50.4648715806     A.U. after   11 cycles
 SCF Done:  E(UM062X) =  -50.4658240461     A.U. after   10 cycles
 SCF Done:  E(UM062X) =  -50.4658321723     A.U. after   11 cycles
 Optimization completed.
    -- Stationary point found.

                          Input orientation:
 ---------------------------------------------------------------------
 Center     Atomic      Atomic             Coordinates (Angstroms)
 Number     Number       Type             X           Y           Z
 ---------------------------------------------------------------------
      1          5           0       -2.228410    0.000000    0.000000
      2          5           0        2.228410    0.000000    0.000000
      3          1           0       -3.434639   -0.000082    0.000000
      4          1           0        3.434639    0.000082   -0.000000
 ---------------------------------------------------------------------

 Alpha  occ. eigenvalues --   -7.14513  -7.14513  -0.56956  -0.56864  -0.33053
 Alpha  occ. eigenvalues --   -0.31787  -0.17393
 Alpha virt. eigenvalues --   -0.10862  -0.06351  -0.05799   0.02749   0.02935
 Alpha virt. eigenvalues --    0.05436   0.06719   0.07055   0.07473   0.08032
 Alpha virt. eigenvalues --    0.11130   0.15941   0.21487   0.33333   0.38437

  Beta  occ. eigenvalues --   -7.13622  -7.13622  -0.53666  -0.53576  -0.22802
  Beta virt. eigenvalues --   -0.13058  -0.04413  -0.03887  -0.03555  -0.02976
  Beta virt. eigenvalues --    0.01969   0.02380   0.07038   0.07377   0.07994
  Beta virt. eigenvalues --    0.08214   0.08784   0.09654   0.15515   0.22854

 Mulliken charges and spin densities:
               1          2
     1  B   -0.055944   0.932062
     2  B   -0.055944   0.932062
     3  H    0.055944   0.067938
     4  H    0.055944   0.067938
 Sum of Mulliken charges =  -0.00000   2.00000

 Dipole moment (field-independent basis, Debye):
    X=             -0.0000    Y=             -0.0000    Z=             -0.0000  Tot=              0.0000
 Quadrupole moment (field-independent basis, Debye-Ang):
   XX=             -6.4500   YY=            -13.6771   ZZ=            -17.6387
   XY=              0.0000   XZ=             -0.0000   YZ=             -0.0000

 1\1\GINC-NODE06\FOpt\UM062X\6-311+G(d,p)\B2H2(3)\SZHAO\21-Apr-2025\0\\
 #p opt UM062X/6-311+G** nosymm int=superfine\\Title Card Required\\0,3
 \B,-2.22841047,0.,0.\B,2.22841047,0.,0.\H,-3.4346389704,-0.0000823119,
 0.0000000006\H,3.4346389715,0.0000823119,-0.0000000006\\Version=ES64L-
 G16RevA.03\HF=-50.4658322\S2=2.025932\S2-1=0.\S2A=2.000021\RMSD=4.758e
 -10\RMSF=4.739e-07\Dipole=0.,0.,0.\Quadrupole=4.5639183,-0.809304,-3.7
 546144,0.0000354,0.,-0.0000219\PG=C*V [C*(H1B1B1H1)]\\@

 Normal termination of Gaussian 16 at Mon Apr 21 17:30:09 2025.
