 Gaussian 16, Revision A.03,
 Gaussian 16:  ES64L-G16RevA.03 25-Dec-2016

 ---------------------------------------
 #p UM062X/6-311+G** force int=superfine
 ---------------------------------------

 -------------------
 Title Card Required
 -------------------
 Symbolic Z-matrix:
 Charge =  1 Multiplicity = 2

                         Standard orientation:
 ---------------------------------------------------------------------
 Center     Atomic      Atomic             Coordinates (Angstroms)
 Number     Number       Type             X           Y           Z
 ---------------------------------------------------------------------
      1          6           0       -0.000000    0.855339    0.000000
      2          6           0       -0.000000   -0.855339    0.000000
      3          1           0       -0.959339    1.361552    0.000000
      4          1           0        0.959302    1.361683    0.000000
      5          1           0        0.959339   -1.361552    0.000000
      6          1           0       -0.959302   -1.361683    0.000000
 ---------------------------------------------------------------------

 SCF Done:  E(UM062X) =  -78.1393571604     A.U. after    9 cycles

 The electronic state is 2-AU.
 Alpha  occ. eigenvalues --  -10.91325 -10.91296  -1.11179  -0.99051  -0.82132
 Alpha  occ. eigenvalues --   -0.75723  -0.73425  -0.60609
 Alpha virt. eigenvalues --   -0.33688  -0.15375  -0.14451  -0.11443  -0.08932
 Alpha virt. eigenvalues --   -0.07452  -0.07240  -0.07200  -0.04665  -0.04520
 Alpha virt. eigenvalues --   -0.01619  -0.01508   0.02832   0.09849   0.18779

  Beta  occ. eigenvalues --  -10.91099 -10.91079  -1.07742  -0.96972  -0.81358
  Beta  occ. eigenvalues --   -0.75372  -0.72241
  Beta virt. eigenvalues --   -0.38217  -0.25691  -0.16063  -0.14158  -0.11796
  Beta virt. eigenvalues --   -0.08934  -0.08135  -0.07260  -0.05905  -0.04548
  Beta virt. eigenvalues --   -0.04018  -0.01064  -0.01013   0.02309   0.10384

 Mulliken charges and spin densities:
               1          2
     1  C   -0.061757   0.539625
     2  C   -0.061757   0.539625
     3  H    0.280872  -0.019813
     4  H    0.280885  -0.019812
     5  H    0.280872  -0.019813
     6  H    0.280885  -0.019812
 Sum of Mulliken charges =   1.00000   1.00000

 Dipole moment (field-independent basis, Debye):
    X=             -0.0000    Y=             -0.0000    Z=              0.0000  Tot=              0.0000
 Quadrupole moment (field-independent basis, Debye-Ang):
   XX=             -8.3363   YY=             -4.0330   ZZ=            -12.0649
   XY=              0.0004   XZ=              0.0000   YZ=              0.0000

 Normal termination of Gaussian 16 at Tue Nov 19 11:55:15 2024.
