 Gaussian 16, Revision A.03,
 Gaussian 16:  ES64L-G16RevA.03 25-Dec-2016

 ---------------------------------------------------
 #p UM062X/6-311+G** force int=superfine pop=saveNBO
 ---------------------------------------------------

 -------------------
 Title Card Required
 -------------------
 Symbolic Z-matrix:
 Charge =  0 Multiplicity = 1

                         Standard orientation:
 ---------------------------------------------------------------------
 Center     Atomic      Atomic             Coordinates (Angstroms)
 Number     Number       Type             X           Y           Z
 ---------------------------------------------------------------------
      1          6           0        0.000000    0.000000   -1.875340
      2         16           0        0.000000    0.000000    0.703252
 ---------------------------------------------------------------------

 SCF Done:  E(UM062X) =  -435.927091803     A.U. after   15 cycles

 The electronic state is 1-SG.
 Alpha  occ. eigenvalues --  -89.94887 -10.80956  -8.30570  -6.22696  -6.22167
 Alpha  occ. eigenvalues --   -6.22167  -0.76161  -0.68560  -0.35735  -0.31640
 Alpha  occ. eigenvalues --   -0.31640
 Alpha virt. eigenvalues --   -0.16371  -0.16371  -0.11146   0.03480   0.05320
 Alpha virt. eigenvalues --    0.06065   0.06065   0.08707   0.09004   0.09004
 Alpha virt. eigenvalues --    0.15243   0.35467   0.35875   0.35875   0.52940

  Beta  occ. eigenvalues --  -89.94887 -10.80956  -8.30570  -6.22696  -6.22167
  Beta  occ. eigenvalues --   -6.22167  -0.76161  -0.68560  -0.35735  -0.31640
  Beta  occ. eigenvalues --   -0.31640
  Beta virt. eigenvalues --   -0.16371  -0.16371  -0.11146   0.03480   0.05320
  Beta virt. eigenvalues --    0.06065   0.06065   0.08707   0.09004   0.09004
  Beta virt. eigenvalues --    0.15243   0.35467   0.35875   0.35875   0.52940

 Mulliken charges and spin densities:
               1          2
     1  C    0.165925  -0.000000
     2  S   -0.165925   0.000000
 Sum of Mulliken charges =  -0.00000   0.00000

 Dipole moment (field-independent basis, Debye):
    X=              0.0000    Y=              0.0000    Z=             -1.9154  Tot=              1.9154
 Quadrupole moment (field-independent basis, Debye-Ang):
   XX=            -20.6605   YY=            -20.6605   ZZ=            -16.0366
   XY=              0.0000   XZ=              0.0000   YZ=              0.0000

 Summary of Natural Population Analysis:

                                       Natural Population
                Natural  -----------------------------------------------
    Atom  No    Charge         Core      Valence    Rydberg      Total
 -----------------------------------------------------------------------
      C    1    0.13854      1.00000     1.86009    0.00137     2.86146
      S    2   -0.13854      4.99999     3.13734    0.00121     8.13854
 =======================================================================
   * Total *   -0.00000      5.99999     4.99743    0.00258    11.00000

 Normal termination of Gaussian 16 at Mon Apr 21 19:46:33 2025.
