 Gaussian 16, Revision A.03,
 Gaussian 16:  ES64L-G16RevA.03 25-Dec-2016

 ---------------------------------------
 #p UM062X/6-311+G** force int=superfine
 ---------------------------------------

 -------------------
 Title Card Required
 -------------------
 Symbolic Z-matrix:
 Charge =  1 Multiplicity = 2

                         Standard orientation:
 ---------------------------------------------------------------------
 Center     Atomic      Atomic             Coordinates (Angstroms)
 Number     Number       Type             X           Y           Z
 ---------------------------------------------------------------------
      1          6           0        0.000000    0.000000    0.764251
      2          6           0        0.000000    0.000000   -0.764251
      3          1           0        0.000000    0.000000    1.854502
      4          1           0        0.000000    0.000000   -1.854498
 ---------------------------------------------------------------------

 SCF Done:  E(UM062X) =  -76.8141433947     A.U. after   10 cycles

 Unable to determine electronic state:  an orbital has unidentified symmetry.
 Alpha  occ. eigenvalues --  -10.98400 -10.98344  -1.13796  -0.98632  -0.86605
 Alpha  occ. eigenvalues --   -0.66296  -0.64038
 Alpha virt. eigenvalues --   -0.33721  -0.31710  -0.21902  -0.14297  -0.10951
 Alpha virt. eigenvalues --   -0.10273  -0.09457  -0.09214  -0.05214  -0.04867
 Alpha virt. eigenvalues --    0.01883   0.04168   0.09843   0.21261   0.31271

  Beta  occ. eigenvalues --  -10.98160 -10.98119  -1.09590  -0.96938  -0.85933
  Beta  occ. eigenvalues --   -0.61878
  Beta virt. eigenvalues --   -0.42418  -0.30008  -0.26072  -0.19881  -0.15411
  Beta virt. eigenvalues --   -0.11281  -0.10448  -0.09803  -0.09598  -0.05018
  Beta virt. eigenvalues --   -0.04635   0.01195   0.04299   0.10332   0.22146

 Mulliken charges and spin densities:
               1          2
     1  C    0.152946   0.520732
     2  C    0.152945   0.520733
     3  H    0.347056  -0.020733
     4  H    0.347054  -0.020732
 Sum of Mulliken charges =   1.00000   1.00000

 Dipole moment (field-independent basis, Debye):
    X=              0.0000    Y=              0.0000    Z=              0.0000  Tot=              0.0000
 Quadrupole moment (field-independent basis, Debye-Ang):
   XX=            -12.3403   YY=            -10.3377   ZZ=              1.7061
   XY=              0.0000   XZ=              0.0000   YZ=              0.0000

 Normal termination of Gaussian 16 at Tue Nov 19 13:34:48 2024.
