 Gaussian 16, Revision A.03,
 Gaussian 16:  ES64L-G16RevA.03 25-Dec-2016

 --------------------------------------------
 #p opt UM062X/6-311+G** nosymm int=superfine
 --------------------------------------------

 -------------------
 Title Card Required
 -------------------
 Symbolic Z-matrix:
 Charge =  1 Multiplicity = 2

 SCF Done:  E(UM062X) =  -379.543326042     A.U. after   19 cycles
 SCF Done:  E(UM062X) =  -379.543358223     A.U. after   12 cycles
 Optimization completed.
    -- Stationary point found.

                          Input orientation:
 ---------------------------------------------------------------------
 Center     Atomic      Atomic             Coordinates (Angstroms)
 Number     Number       Type             X           Y           Z
 ---------------------------------------------------------------------
      1          6           0       -0.919427    0.000000    0.000000
      2         15           0        0.919427    0.000000    0.000000
      3          1           0       -2.011441    0.000000    0.000000
 ---------------------------------------------------------------------

 Alpha  occ. eigenvalues --  -78.39754 -10.93444  -7.21187  -5.33165  -5.32333
 Alpha  occ. eigenvalues --   -5.32013  -1.07369  -0.91245  -0.71447  -0.61733
 Alpha  occ. eigenvalues --   -0.59899
 Alpha virt. eigenvalues --   -0.35106  -0.33204  -0.20672  -0.14419  -0.10305
 Alpha virt. eigenvalues --   -0.10128  -0.09740  -0.08960  -0.05208  -0.04953
 Alpha virt. eigenvalues --   -0.00124   0.04778   0.13228   0.13309   0.13360

  Beta  occ. eigenvalues --  -78.39667 -10.92947  -7.21198  -5.32561  -5.32409
  Beta  occ. eigenvalues --   -5.32330  -1.02995  -0.89793  -0.70391  -0.57696
  Beta virt. eigenvalues --   -0.41284  -0.31089  -0.28069  -0.19297  -0.15312
  Beta virt. eigenvalues --   -0.10461  -0.09873  -0.09826  -0.08970  -0.05080
  Beta virt. eigenvalues --   -0.04993  -0.01094   0.05448   0.11024   0.13081

 Mulliken charges and spin densities:
               1          2
     1  C    0.013770   0.864700
     2  P    0.673095   0.166604
     3  H    0.313135  -0.031304
 Sum of Mulliken charges =   1.00000   1.00000

 Dipole moment (field-independent basis, Debye):
    X=              0.3148    Y=              0.0000    Z=              0.0000  Tot=              0.3148
 Quadrupole moment (field-independent basis, Debye-Ang):
   XX=             -6.4151   YY=            -16.4021   ZZ=            -16.3681
   XY=             -0.0000   XZ=             -0.0000   YZ=             -1.3584

 Normal termination of Gaussian 16 at Mon Apr 21 19:23:10 2025.
