 Gaussian 16, Revision A.03,
 Gaussian 16:  ES64L-G16RevA.03 25-Dec-2016

 --------------------------------------------
 #p opt UM062X/6-311+G** nosymm int=superfine
 --------------------------------------------

 -------------------
 Title Card Required
 -------------------
 Symbolic Z-matrix:
 Charge =  0 Multiplicity = 1

 SCF Done:  E(UM062X) =  -382.286972277     A.U. after   12 cycles
 SCF Done:  E(UM062X) =  -382.295933944     A.U. after   11 cycles
 SCF Done:  E(UM062X) =  -382.300023206     A.U. after   11 cycles
 SCF Done:  E(UM062X) =  -382.300058261     A.U. after    9 cycles
 SCF Done:  E(UM062X) =  -382.300079462     A.U. after    9 cycles
 SCF Done:  E(UM062X) =  -382.300087411     A.U. after    9 cycles
 SCF Done:  E(UM062X) =  -382.300088154     A.U. after    8 cycles
 SCF Done:  E(UM062X) =  -382.300088298     A.U. after    7 cycles
 Optimization completed.
    -- Stationary point found.

                          Input orientation:
 ---------------------------------------------------------------------
 Center     Atomic      Atomic             Coordinates (Angstroms)
 Number     Number       Type             X           Y           Z
 ---------------------------------------------------------------------
      1          6           0       -1.606264    0.000000    0.000000
      2         15           0        1.606264    0.000000    0.000000
      3          1           0        1.558998   -1.418038    0.032041
      4          1           0       -1.722927    1.047953    0.236517
      5          1           0        1.559103    0.084335    1.415874
      6          1           0       -1.722907   -0.314787   -1.027159
      7          1           0       -1.740244   -0.729283    0.786462
 ---------------------------------------------------------------------

 Alpha  occ. eigenvalues --  -78.03315 -10.58583  -6.85658  -4.97186  -4.97117
 Alpha  occ. eigenvalues --   -4.96930  -0.78012  -0.69414  -0.49935  -0.49874
 Alpha  occ. eigenvalues --   -0.43619  -0.34741  -0.26079
 Alpha virt. eigenvalues --   -0.09311   0.01985   0.04000   0.04150   0.04626
 Alpha virt. eigenvalues --    0.06390   0.06928   0.07187   0.07379   0.12092
 Alpha virt. eigenvalues --    0.17522   0.18699   0.18877   0.24197   0.30061

  Beta  occ. eigenvalues --  -78.03315 -10.58583  -6.85658  -4.97186  -4.97117
  Beta  occ. eigenvalues --   -4.96930  -0.78012  -0.69414  -0.49935  -0.49874
  Beta  occ. eigenvalues --   -0.43619  -0.34741  -0.26079
  Beta virt. eigenvalues --   -0.09311   0.01985   0.04000   0.04150   0.04626
  Beta virt. eigenvalues --    0.06390   0.06928   0.07187   0.07379   0.12092
  Beta virt. eigenvalues --    0.17522   0.18699   0.18877   0.24197   0.30061

 Mulliken charges and spin densities:
               1          2
     1  C   -0.538859  -0.000000
     2  P   -0.034472   0.000000
     3  H    0.007199  -0.000000
     4  H    0.186935   0.000000
     5  H    0.007212  -0.000000
     6  H    0.186961   0.000000
     7  H    0.185023   0.000000
 Sum of Mulliken charges =  -0.00000   0.00000

 Dipole moment (field-independent basis, Debye):
    X=             -1.0729    Y=             -0.5437    Z=              0.5904  Tot=              1.3399
 Quadrupole moment (field-independent basis, Debye-Ang):
   XX=            -22.4352   YY=            -22.2659   ZZ=            -22.3816
   XY=             -1.1327   XZ=              1.2300   YZ=              0.7036

 Normal termination of Gaussian 16 at Mon Apr 21 19:05:16 2025.
