 Gaussian 16, Revision A.03,
 Gaussian 16:  ES64L-G16RevA.03 25-Dec-2016

 --------------------------------------------
 #p opt UM062X/6-311+G** nosymm int=superfine
 --------------------------------------------

 -------------------
 Title Card Required
 -------------------
 Symbolic Z-matrix:
 Charge =  0 Multiplicity = 1

 SCF Done:  E(UM062X) =  -94.2587641946     A.U. after   10 cycles

 Alpha  occ. eigenvalues --  -14.81621 -10.62571  -0.87978  -0.77285  -0.49357
 Alpha  occ. eigenvalues --   -0.44897  -0.33370  -0.32484
 Alpha virt. eigenvalues --   -0.11405  -0.09860   0.01222   0.05329   0.06192
 Alpha virt. eigenvalues --    0.07408   0.13502   0.13710   0.15432   0.17129
 Alpha virt. eigenvalues --    0.18013   0.18033   0.21268   0.43146   0.47592

  Beta  occ. eigenvalues --  -14.81621 -10.62571  -0.87978  -0.77285  -0.49357
  Beta  occ. eigenvalues --   -0.44897  -0.33370  -0.32484
  Beta virt. eigenvalues --   -0.11405  -0.09860   0.01222   0.05329   0.06192
  Beta virt. eigenvalues --    0.07408   0.13502   0.13710   0.15432   0.17129
  Beta virt. eigenvalues --    0.18013   0.18033   0.21268   0.43146   0.47592

 Mulliken charges and spin densities:
               1          2
     1  C   -0.295746   0.000000
     2  N   -0.241209  -0.000000
     3  H    0.142320  -0.000000
     4  H    0.252380   0.000000
     5  H    0.142255  -0.000000
 Sum of Mulliken charges =  -0.00000  -0.00000

 Dipole moment (field-independent basis, Debye):
    X=             -4.1132    Y=              0.0031    Z=             -0.0003  Tot=              4.1132
 Quadrupole moment (field-independent basis, Debye-Ang):
   XX=            -13.4494   YY=            -12.2563   ZZ=            -14.8823
   XY=             -0.0073   XZ=              0.0004   YZ=             -0.0794

 Optimization completed.
    -- Stationary point found.

                          Input orientation:
 ---------------------------------------------------------------------
 Center     Atomic      Atomic             Coordinates (Angstroms)
 Number     Number       Type             X           Y           Z
 ---------------------------------------------------------------------
      1          6           0       -2.006637    0.000000    0.000000
      2          7           0        2.006637    0.000000    0.000000
      3          1           0       -2.699985   -0.862656    0.025982
      4          1           0        0.965485   -0.000657    0.000013
      5          1           0       -2.696292    0.865615   -0.026213
 ---------------------------------------------------------------------

 Normal termination of Gaussian 16 at Mon Apr 21 21:07:28 2025.
