 Gaussian 16, Revision A.03,
 Gaussian 16:  ES64L-G16RevA.03 25-Dec-2016

 --------------------------------------------
 #p opt UM062X/6-311+G** nosymm int=superfine
 --------------------------------------------

 -------------------
 Title Card Required
 -------------------
 Symbolic Z-matrix:
 Charge =  0 Multiplicity = 1

 SCF Done:  E(UM062X) =  -114.086698301     A.U. after   17 cycles
 SCF Done:  E(UM062X) =  -114.089183157     A.U. after   10 cycles
 SCF Done:  E(UM062X) =  -114.089968782     A.U. after    9 cycles
 SCF Done:  E(UM062X) =  -114.089972883     A.U. after    8 cycles
 Optimization completed.
    -- Stationary point found.

                          Input orientation:
 ---------------------------------------------------------------------
 Center     Atomic      Atomic             Coordinates (Angstroms)
 Number     Number       Type             X           Y           Z
 ---------------------------------------------------------------------
      1          6           0       -1.798311    0.000000    0.000000
      2          8           0        1.798311    0.000000    0.000000
      3          1           0       -2.480978   -0.870165    0.000002
      4          1           0       -2.480983    0.870161    0.000002
 ---------------------------------------------------------------------

 Alpha  occ. eigenvalues --  -19.74315 -10.62815  -1.04097  -0.77227  -0.49528
 Alpha  occ. eigenvalues --   -0.42993  -0.42988  -0.32919
 Alpha virt. eigenvalues --   -0.17150  -0.09663   0.01690   0.05994   0.07885
 Alpha virt. eigenvalues --    0.08298   0.15812   0.16690   0.18461   0.19632
 Alpha virt. eigenvalues --    0.21785   0.25702   0.43597   0.47200   0.57603

  Beta  occ. eigenvalues --  -19.74315 -10.62815  -1.04097  -0.77227  -0.49528
  Beta  occ. eigenvalues --   -0.42993  -0.42988  -0.32919
  Beta virt. eigenvalues --   -0.17150  -0.09663   0.01690   0.05994   0.07885
  Beta virt. eigenvalues --    0.08298   0.15812   0.16690   0.18461   0.19632
  Beta virt. eigenvalues --    0.21785   0.25702   0.43597   0.47200   0.57603

 Mulliken charges and spin densities:
               1          2
     1  C   -0.264721  -0.000000
     2  O   -0.022368   0.000000
     3  H    0.143544  -0.000000
     4  H    0.143544   0.000000
 Sum of Mulliken charges =   0.00000   0.00000

 Dipole moment (field-independent basis, Debye):
    X=             -2.7813    Y=             -0.0000    Z=              0.0000  Tot=              2.7813
 Quadrupole moment (field-independent basis, Debye-Ang):
   XX=             -5.2823   YY=            -13.1049   ZZ=            -12.4945
   XY=              0.0000   XZ=             -0.0000   YZ=             -0.0000

 Normal termination of Gaussian 16 at Mon Apr 21 18:51:19 2025.
