 Gaussian 16, Revision A.03,
 Gaussian 16:  ES64L-G16RevA.03 25-Dec-2016

 --------------------------------------------
 #p opt UM062X/6-311+G** nosymm int=superfine
 --------------------------------------------

 -------------------
 Title Card Required
 -------------------
 Symbolic Z-matrix:
 Charge =  0 Multiplicity = 1

 SCF Done:  E(UM062X) =  -684.903451954     A.U. after   12 cycles

 Alpha  occ. eigenvalues --  -78.04891 -78.04891  -6.87321  -6.87321  -4.98863
 Alpha  occ. eigenvalues --   -4.98862  -4.98747  -4.98747  -4.98565  -4.98564
 Alpha  occ. eigenvalues --   -0.71162  -0.70987  -0.45132  -0.45085  -0.36265
 Alpha  occ. eigenvalues --   -0.36221  -0.23386
 Alpha virt. eigenvalues --   -0.16150   0.01481   0.02810   0.03186   0.03999
 Alpha virt. eigenvalues --    0.04814   0.05792   0.05980   0.06052   0.06072
 Alpha virt. eigenvalues --    0.07820   0.12359   0.18019   0.29277   0.30002

  Beta  occ. eigenvalues --  -78.04891 -78.04891  -6.87321  -6.87321  -4.98863
  Beta  occ. eigenvalues --   -4.98862  -4.98747  -4.98747  -4.98565  -4.98564
  Beta  occ. eigenvalues --   -0.71162  -0.70987  -0.45132  -0.45085  -0.36265
  Beta  occ. eigenvalues --   -0.36221  -0.23386
  Beta virt. eigenvalues --   -0.16150   0.01481   0.02810   0.03186   0.03999
  Beta virt. eigenvalues --    0.04814   0.05792   0.05980   0.06052   0.06072
  Beta virt. eigenvalues --    0.07820   0.12359   0.18019   0.29277   0.30002

 Mulliken charges and spin densities:
               1          2
     1  P    0.013093  -0.000000
     2  P    0.013435   0.000000
     3  H   -0.006271  -0.000000
     4  H   -0.006302   0.000000
     5  H   -0.006976  -0.000000
     6  H   -0.006978   0.000000
 Sum of Mulliken charges =  -0.00000  -0.00000

 Dipole moment (field-independent basis, Debye):
    X=             -0.0022    Y=             -0.0066    Z=             -0.1464  Tot=              0.1466
 Quadrupole moment (field-independent basis, Debye-Ang):
   XX=            -29.4348   YY=            -31.2328   ZZ=            -28.5330
   XY=             -4.8521   XZ=              0.1906   YZ=              0.1079

 Optimization completed.
    -- Stationary point found.

                          Input orientation:
 ---------------------------------------------------------------------
 Center     Atomic      Atomic             Coordinates (Angstroms)
 Number     Number       Type             X           Y           Z
 ---------------------------------------------------------------------
      1         15           0       -2.517217    0.000000    0.000000
      2         15           0        2.517217    0.000000    0.000000
      3          1           0        2.393183   -1.021501    0.976960
      4          1           0       -2.400142    1.097068    0.892345
      5          1           0        2.403670   -0.936626   -1.060034
      6          1           0       -2.405008    0.849524   -1.131040
 ---------------------------------------------------------------------

 Normal termination of Gaussian 16 at Mon Apr 21 22:58:17 2025.
