 Gaussian 16, Revision A.03,
 Gaussian 16:  ES64L-G16RevA.03 25-Dec-2016

 --------------------------------------------
 #p opt UM062X/6-311+G** nosymm int=superfine
 --------------------------------------------

 -------------------
 Title Card Required
 -------------------
 Symbolic Z-matrix:
 Charge =  1 Multiplicity = 2

 SCF Done:  E(UM062X) =  -79.3200555410     A.U. after   10 cycles
 SCF Done:  E(UM062X) =  -79.3209562782     A.U. after    9 cycles
 SCF Done:  E(UM062X) =  -79.3209603530     A.U. after    8 cycles
 Optimization completed.
    -- Stationary point found.

                          Input orientation:
 ---------------------------------------------------------------------
 Center     Atomic      Atomic             Coordinates (Angstroms)
 Number     Number       Type             X           Y           Z
 ---------------------------------------------------------------------
      1          6           0       -1.883207    0.000000    0.000000
      2          6           0        1.883207    0.000000    0.000000
      3          1           0        1.913812   -0.937631    0.542679
      4          1           0       -1.912200   -0.938732   -0.540859
      5          1           0        1.913128    0.938824    0.540650
      6          1           0        1.912295   -0.001166   -1.083388
      7          1           0       -1.913861    0.937733   -0.542501
      8          1           0       -1.913170    0.000943    1.083365
 ---------------------------------------------------------------------

 Alpha  occ. eigenvalues --  -10.83880 -10.83879  -1.02436  -1.01987  -0.73442
 Alpha  occ. eigenvalues --   -0.73441  -0.73273  -0.73272  -0.48369
 Alpha virt. eigenvalues --   -0.37369  -0.12966  -0.10196  -0.09632  -0.09632
 Alpha virt. eigenvalues --   -0.06233  -0.06233  -0.04424  -0.03071  -0.00437
 Alpha virt. eigenvalues --   -0.00434   0.01312   0.01314   0.03035   0.08451

  Beta  occ. eigenvalues --  -10.83665 -10.83665  -0.99773  -0.99480  -0.72929
  Beta  occ. eigenvalues --   -0.72928  -0.72740  -0.72739
  Beta virt. eigenvalues --   -0.32728  -0.26576  -0.16211  -0.11030  -0.11030
  Beta virt. eigenvalues --   -0.10194  -0.06251  -0.06251  -0.05049  -0.02130
  Beta virt. eigenvalues --   -0.00740  -0.00737   0.01584   0.01586   0.02906

 Mulliken charges and spin densities:
               1          2
     1  C   -0.256513   0.557922
     2  C   -0.256515   0.557922
     3  H    0.252197  -0.019297
     4  H    0.252156  -0.019302
     5  H    0.252178  -0.019302
     6  H    0.252140  -0.019322
     7  H    0.252197  -0.019298
     8  H    0.252160  -0.019323
 Sum of Mulliken charges =   1.00000   1.00000

 Dipole moment (field-independent basis, Debye):
    X=             -0.0000    Y=             -0.0000    Z=             -0.0001  Tot=              0.0001
 Quadrupole moment (field-independent basis, Debye-Ang):
   XX=              5.7948   YY=            -11.1052   ZZ=            -11.1054
   XY=             -0.0017   XZ=              0.0009   YZ=              0.0000

 Normal termination of Gaussian 16 at Wed Nov 13 12:52:33 2024.
