 Gaussian 16, Revision A.03,
 Gaussian 16:  ES64L-G16RevA.03 25-Dec-2016

 --------------------------------------------
 #p opt UM062X/6-311+G** nosymm int=superfine
 --------------------------------------------

 -------------------
 Title Card Required
 -------------------
 Symbolic Z-matrix:
 Charge =  0 Multiplicity = 1

 SCF Done:  E(UM062X) =  -95.5712496295     A.U. after   19 cycles
 SCF Done:  E(UM062X) =  -95.5859654493     A.U. after   17 cycles
 SCF Done:  E(UM062X) =  -95.5961199041     A.U. after   14 cycles
 SCF Done:  E(UM062X) =  -95.5965036036     A.U. after   13 cycles
 SCF Done:  E(UM062X) =  -95.5969692790     A.U. after   13 cycles
 SCF Done:  E(UM062X) =  -95.5973541017     A.U. after   13 cycles
 SCF Done:  E(UM062X) =  -95.5974899856     A.U. after   13 cycles
 SCF Done:  E(UM062X) =  -95.5975322276     A.U. after   12 cycles
 SCF Done:  E(UM062X) =  -95.5975362353     A.U. after   11 cycles
 SCF Done:  E(UM062X) =  -95.5975365980     A.U. after   10 cycles
 SCF Done:  E(UM062X) =  -95.5975379461     A.U. after   11 cycles
 SCF Done:  E(UM062X) =  -95.5975387597     A.U. after   11 cycles
 SCF Done:  E(UM062X) =  -95.5975391625     A.U. after   11 cycles
 Optimization completed.
    -- Stationary point found.

                          Input orientation:
 ---------------------------------------------------------------------
 Center     Atomic      Atomic             Coordinates (Angstroms)
 Number     Number       Type             X           Y           Z
 ---------------------------------------------------------------------
      1          6           0       -2.080542    0.000000    0.000000
      2          7           0        2.080542    0.000000    0.000000
      3          1           0        2.024172   -1.014633    0.141315
      4          1           0       -2.049672    1.079957    0.014651
      5          1           0        2.024971    0.371792    0.954629
      6          1           0       -2.049112   -0.525829   -0.943393
      7          1           0       -2.201726   -0.550234    0.922183
 ---------------------------------------------------------------------

 Alpha  occ. eigenvalues --  -14.74684 -10.62168  -0.90142  -0.81198  -0.53374
 Alpha  occ. eigenvalues --   -0.53248  -0.50664  -0.35884  -0.24068
 Alpha virt. eigenvalues --   -0.15371   0.01746   0.04533   0.04808   0.06978
 Alpha virt. eigenvalues --    0.09947   0.12954   0.15775   0.16654   0.16713
 Alpha virt. eigenvalues --    0.17403   0.20370   0.21803   0.26712   0.41005

  Beta  occ. eigenvalues --  -14.74684 -10.62168  -0.90142  -0.81198  -0.53374
  Beta  occ. eigenvalues --   -0.53248  -0.50664  -0.35884  -0.24068
  Beta virt. eigenvalues --   -0.15371   0.01746   0.04533   0.04808   0.06978
  Beta virt. eigenvalues --    0.09947   0.12954   0.15775   0.16654   0.16713
  Beta virt. eigenvalues --    0.17403   0.20370   0.21803   0.26712   0.41005

 Mulliken charges and spin densities:
               1          2
     1  C   -0.422484  -0.000000
     2  N   -0.579420   0.000000
     3  H    0.209613  -0.000000
     4  H    0.197076   0.000000
     5  H    0.209619  -0.000000
     6  H    0.197157   0.000000
     7  H    0.188438   0.000000
 Sum of Mulliken charges =  -0.00000   0.00000

 Dipole moment (field-independent basis, Debye):
    X=             -3.6566    Y=             -1.0049    Z=              1.7133  Tot=              4.1613
 Quadrupole moment (field-independent basis, Debye-Ang):
   XX=            -16.0026   YY=            -13.4619   ZZ=            -14.2763
   XY=             -2.0981   XZ=              3.5806   YZ=              0.7289

 Normal termination of Gaussian 16 at Mon Apr 21 18:19:22 2025.
