 Gaussian 16, Revision A.03,
 Gaussian 16:  ES64L-G16RevA.03 25-Dec-2016

 --------------------------------------------
 #p opt UM062X/6-311+G** nosymm int=superfine
 --------------------------------------------

 -------------------
 Title Card Required
 -------------------
 Symbolic Z-matrix:
 Charge =  0 Multiplicity = 1

 SCF Done:  E(UM062X) =  -76.8640742512     A.U. after   10 cycles
 SCF Done:  E(UM062X) =  -76.9078365498     A.U. after    9 cycles
 SCF Done:  E(UM062X) =  -76.9787273921     A.U. after   10 cycles
 SCF Done:  E(UM062X) =  -77.0259366817     A.U. after   10 cycles
 SCF Done:  E(UM062X) =  -77.0260141959     A.U. after    8 cycles
 Optimization completed.
    -- Stationary point found.

                          Input orientation:
 ---------------------------------------------------------------------
 Center     Atomic      Atomic             Coordinates (Angstroms)
 Number     Number       Type             X           Y           Z
 ---------------------------------------------------------------------
      1          6           0       -0.903758    0.000000    0.000000
      2          6           0        0.903758    0.000000    0.000000
      3          1           0       -1.983565    0.000000   -0.000000
      4          1           0        1.983515   -0.000000   -0.000000
 ---------------------------------------------------------------------

 Alpha  occ. eigenvalues --  -10.67260 -10.67235  -0.76913  -0.70380  -0.51695
 Alpha  occ. eigenvalues --   -0.29469  -0.29469
 Alpha virt. eigenvalues --   -0.06248  -0.06248  -0.02835   0.02274   0.04197
 Alpha virt. eigenvalues --    0.08544   0.08544   0.09670   0.10842   0.10842
 Alpha virt. eigenvalues --    0.17353   0.22123   0.26023   0.46902   0.58029

  Beta  occ. eigenvalues --  -10.67260 -10.67235  -0.76913  -0.70380  -0.51695
  Beta  occ. eigenvalues --   -0.29469  -0.29469
  Beta virt. eigenvalues --   -0.06248  -0.06248  -0.02835   0.02274   0.04197
  Beta virt. eigenvalues --    0.08544   0.08544   0.09670   0.10842   0.10842
  Beta virt. eigenvalues --    0.17353   0.22123   0.26023   0.46902   0.58029

 Mulliken charges and spin densities:
               1          2
     1  C   -0.256098  -0.000000
     2  C   -0.256099   0.000000
     3  H    0.256105   0.000000
     4  H    0.256091   0.000000
 Sum of Mulliken charges =  -0.00000   0.00000

 Dipole moment (field-independent basis, Debye):
    X=             -0.0001    Y=              0.0000    Z=             -0.0000  Tot=              0.0001
 Quadrupole moment (field-independent basis, Debye-Ang):
   XX=             -4.5212   YY=            -16.0880   ZZ=            -16.0880
   XY=             -0.0000   XZ=              0.0000   YZ=             -0.0000

 Normal termination of Gaussian 16 at Tue Dec  3 20:20:23 2024.
