 Gaussian 16, Revision A.03,
 Gaussian 16:  ES64L-G16RevA.03 25-Dec-2016

 --------------------------------------------
 #p opt UM062X/6-311+G** nosymm int=superfine
 --------------------------------------------

 -------------------
 Title Card Required
 -------------------
 Symbolic Z-matrix:
 Charge =  1 Multiplicity = 2

 SCF Done:  E(UM062X) =  -76.5856567605     A.U. after   17 cycles
 SCF Done:  E(UM062X) =  -76.5860039084     A.U. after   91 cycles
 Optimization completed.
    -- Stationary point found.

                          Input orientation:
 ---------------------------------------------------------------------
 Center     Atomic      Atomic             Coordinates (Angstroms)
 Number     Number       Type             X           Y           Z
 ---------------------------------------------------------------------
      1          6           0       -1.757160    0.000000    0.000000
      2          6           0        1.757160    0.000000    0.000000
      3          1           0       -2.875032   -0.000000    0.000000
      4          1           0        2.875031   -0.000000    0.000000
 ---------------------------------------------------------------------

 Alpha  occ. eigenvalues --  -10.94762 -10.94761  -0.98454  -0.98231  -0.64766
 Alpha  occ. eigenvalues --   -0.62570  -0.48721
 Alpha virt. eigenvalues --   -0.40475  -0.33723  -0.33159  -0.12529  -0.11465
 Alpha virt. eigenvalues --   -0.07825  -0.07338  -0.05350  -0.04872  -0.04501
 Alpha virt. eigenvalues --   -0.01548  -0.00428   0.05964   0.23951   0.30469

  Beta  occ. eigenvalues --  -10.94354 -10.94353  -0.96057  -0.95938  -0.63439
  Beta  occ. eigenvalues --   -0.61158
  Beta virt. eigenvalues --   -0.31929  -0.31234  -0.30353  -0.29577  -0.13022
  Beta virt. eigenvalues --   -0.11385  -0.07292  -0.06555  -0.06131  -0.04156
  Beta virt. eigenvalues --   -0.03235  -0.02132   0.01201   0.07472   0.23248

 Mulliken charges and spin densities:
               1          2
     1  C    0.263458   0.516510
     2  C    0.263458   0.516511
     3  H    0.236542  -0.016510
     4  H    0.236542  -0.016510
 Sum of Mulliken charges =   1.00000   1.00000

 Dipole moment (field-independent basis, Debye):
    X=             -0.0000    Y=             -0.0000    Z=             -0.0000  Tot=              0.0000
 Quadrupole moment (field-independent basis, Debye-Ang):
   XX=             18.6348   YY=            -11.3032   ZZ=             -9.7156
   XY=              0.0000   XZ=              0.0000   YZ=             -0.6253

 Normal termination of Gaussian 16 at Tue Dec  3 11:30:28 2024.
