 Gaussian 16, Revision A.03,
 Gaussian 16:  ES64L-G16RevA.03 25-Dec-2016

 ----------------------------------------------------------------------
 #p opt UM062X/6-311+G** nosymm int=superfine SCF=(MaxCycle=200,NoVarAc
 c,noincfock) guess=read
 ----------------------------------------------------------------------

 -------------------
 Title Card Required
 -------------------
 Symbolic Z-matrix:
 Charge =  1 Multiplicity = 2

 SCF Done:  E(UM062X) =  -80.1681336785     A.U. after   16 cycles
 SCF Done:  E(UM062X) =  -80.1688460392     A.U. after   14 cycles
 SCF Done:  E(UM062X) =  -80.1778860994     A.U. after   16 cycles
 SCF Done:  E(UM062X) =  -80.1847925301     A.U. after   16 cycles
 SCF Done:  E(UM062X) =  -80.1852582937     A.U. after   14 cycles
 SCF Done:  E(UM062X) =  -80.1853263096     A.U. after   13 cycles
 SCF Done:  E(UM062X) =  -80.1853232597     A.U. after   11 cycles
 SCF Done:  E(UM062X) =  -80.1853374350     A.U. after   12 cycles
 Optimization completed.
    -- Stationary point found.

                          Input orientation:
 ---------------------------------------------------------------------
 Center     Atomic      Atomic             Coordinates (Angstroms)
 Number     Number       Type             X           Y           Z
 ---------------------------------------------------------------------
      1          5           0       -1.177734    0.000000    0.000000
      2          7           0        1.177734    0.000000    0.000000
      3          1           0       -2.113481   -0.746679    0.000003
      4          1           0        1.468774   -1.001984    0.000000
 ---------------------------------------------------------------------

 Alpha  occ. eigenvalues --  -15.07908  -7.50470  -1.18659  -0.84449  -0.72230
 Alpha  occ. eigenvalues --   -0.65207  -0.65147
 Alpha virt. eigenvalues --   -0.35580  -0.31147  -0.29877  -0.14865  -0.11165
 Alpha virt. eigenvalues --   -0.09479  -0.09162  -0.05127  -0.04713  -0.01260
 Alpha virt. eigenvalues --   -0.00631   0.04112   0.06337   0.13686   0.16512

  Beta  occ. eigenvalues --  -15.05949  -7.51475  -1.07824  -0.86944  -0.70165
  Beta  occ. eigenvalues --   -0.61295
  Beta virt. eigenvalues --   -0.36580  -0.34931  -0.27802  -0.24780  -0.15124
  Beta virt. eigenvalues --   -0.11341  -0.10121  -0.09600  -0.05474  -0.04965
  Beta virt. eigenvalues --   -0.00752   0.00013   0.03304   0.04178   0.14760

 Mulliken charges and spin densities:
               1          2
     1  B    0.584040  -0.613366
     2  N   -0.037821   1.781158
     3  H    0.194196  -0.103514
     4  H    0.259585  -0.064278
 Sum of Mulliken charges =   1.00000   1.00000

 Dipole moment (field-independent basis, Debye):
    X=             -3.7414    Y=             -2.0551    Z=              0.0000  Tot=              4.2687
 Quadrupole moment (field-independent basis, Debye-Ang):
   XX=              0.3174   YY=             -9.0708   ZZ=            -10.1824
   XY=             -2.2386   XZ=             -0.0000   YZ=             -0.0000

 Normal termination of Gaussian 16 at Mon Apr 21 22:34:57 2025.
