 Gaussian 16, Revision A.03,
 Gaussian 16:  ES64L-G16RevA.03 25-Dec-2016

 --------------------------------------------
 #p opt UM062X/6-311+G** nosymm int=superfine
 --------------------------------------------

 -------------------
 Title Card Required
 -------------------
 Symbolic Z-matrix:
 Charge =  0 Multiplicity = 1

 SCF Done:  E(UM062X) =  -150.172863615     A.U. after    9 cycles
 SCF Done:  E(UM062X) =  -150.228011487     A.U. after   10 cycles
 SCF Done:  E(UM062X) =  -150.248764819     A.U. after   59 cycles
 SCF Done:  E(UM062X) =  -150.249004184     A.U. after    9 cycles
 SCF Done:  E(UM062X) =  -150.249004279     A.U. after    9 cycles
 Optimization completed.
    -- Stationary point found.

                          Input orientation:
 ---------------------------------------------------------------------
 Center     Atomic      Atomic             Coordinates (Angstroms)
 Number     Number       Type             X           Y           Z
 ---------------------------------------------------------------------
      1          8           0        0.000000    0.593562   -0.052800
      2          8           0        0.000000   -0.593562   -0.052800
 ---------------------------------------------------------------------

 Alpha  occ. eigenvalues --  -19.79093 -19.79031  -1.44687  -0.91687  -0.63293
 Alpha  occ. eigenvalues --   -0.63116  -0.60929  -0.34375
 Alpha virt. eigenvalues --   -0.11904   0.10870   0.10986   0.14065   0.14950
 Alpha virt. eigenvalues --    0.20623   0.22000   0.22331   0.35341   0.35904
 Alpha virt. eigenvalues --    0.98376   0.98423   0.99751   1.02064   1.06661

  Beta  occ. eigenvalues --  -19.79093 -19.79031  -1.44687  -0.91687  -0.63293
  Beta  occ. eigenvalues --   -0.63116  -0.60929  -0.34375
  Beta virt. eigenvalues --   -0.11904   0.10870   0.10986   0.14065   0.14950
  Beta virt. eigenvalues --    0.20623   0.22000   0.22331   0.35341   0.35904
  Beta virt. eigenvalues --    0.98376   0.98423   0.99751   1.02064   1.06661

 Mulliken charges and spin densities:
               1          2
     1  O   -0.000000  -0.000000
     2  O    0.000000   0.000000
 Sum of Mulliken charges =  -0.00000   0.00000

 Dipole moment (field-independent basis, Debye):
    X=             -0.0000    Y=             -0.0000    Z=              0.0000  Tot=              0.0000
 Quadrupole moment (field-independent basis, Debye-Ang):
   XX=             -9.3366   YY=            -10.9036   ZZ=            -10.9012
   XY=              0.0000   XZ=             -0.5155   YZ=              0.0000

 Normal termination of Gaussian 16 at Wed Apr 16 04:29:55 2025.
