 Gaussian 16, Revision A.03,
 Gaussian 16:  ES64L-G16RevA.03 25-Dec-2016

 --------------------------------------------
 #p opt UM062X/6-311+G** nosymm int=superfine
 --------------------------------------------

 -------------------
 Title Card Required
 -------------------
 Symbolic Z-matrix:
 Charge =  1 Multiplicity = 2

 SCF Done:  E(UM062X) =  -79.3247810438     A.U. after   10 cycles
 SCF Done:  E(UM062X) =  -79.3253610905     A.U. after    9 cycles
 SCF Done:  E(UM062X) =  -79.3253623503     A.U. after    8 cycles
 Optimization completed.
    -- Stationary point found.

                          Input orientation:
 ---------------------------------------------------------------------
 Center     Atomic      Atomic             Coordinates (Angstroms)
 Number     Number       Type             X           Y           Z
 ---------------------------------------------------------------------
      1          6           0       -1.769073    0.000000    0.000000
      2          6           0        1.769073    0.000000    0.000000
      3          1           0        1.804517   -0.937645    0.542683
      4          1           0       -1.803055   -0.938747   -0.540864
      5          1           0        1.803902    0.938839    0.540653
      6          1           0        1.803134   -0.001163   -1.083406
      7          1           0       -1.804562    0.937743   -0.542511
      8          1           0       -1.803932    0.000939    1.083381
 ---------------------------------------------------------------------

 Alpha  occ. eigenvalues --  -10.84281 -10.84280  -1.02874  -1.02226  -0.73805
 Alpha  occ. eigenvalues --   -0.73804  -0.73536  -0.73536  -0.49543
 Alpha virt. eigenvalues --   -0.36966  -0.13260  -0.10216  -0.09871  -0.09871
 Alpha virt. eigenvalues --   -0.06244  -0.06244  -0.04580  -0.03202  -0.00919
 Alpha virt. eigenvalues --   -0.00916   0.01275   0.01277   0.03589   0.08148

  Beta  occ. eigenvalues --  -10.84073 -10.84073  -1.00181  -0.99752  -0.73299
  Beta  occ. eigenvalues --   -0.73298  -0.73014  -0.73014
  Beta virt. eigenvalues --   -0.32730  -0.26409  -0.15790  -0.11122  -0.11121
  Beta virt. eigenvalues --   -0.10142  -0.06303  -0.06302  -0.05010  -0.02276
  Beta virt. eigenvalues --   -0.01266  -0.01263   0.01558   0.01560   0.03844

 Mulliken charges and spin densities:
               1          2
     1  C   -0.262992   0.560149
     2  C   -0.262994   0.560149
     3  H    0.254354  -0.020043
     4  H    0.254312  -0.020049
     5  H    0.254335  -0.020047
     6  H    0.254304  -0.020058
     7  H    0.254355  -0.020043
     8  H    0.254326  -0.020058
 Sum of Mulliken charges =   1.00000   1.00000

 Dipole moment (field-independent basis, Debye):
    X=             -0.0000    Y=             -0.0000    Z=             -0.0001  Tot=              0.0001
 Quadrupole moment (field-independent basis, Debye-Ang):
   XX=              3.9024   YY=            -11.0881   ZZ=            -11.0883
   XY=             -0.0016   XZ=              0.0008   YZ=             -0.0000

 Normal termination of Gaussian 16 at Wed Nov 13 12:49:03 2024.
