 Gaussian 16, Revision A.03,
 Gaussian 16:  ES64L-G16RevA.03 25-Dec-2016

 --------------------------------------------
 #p opt UM062X/6-311+G** nosymm int=superfine
 --------------------------------------------

 -------------------
 Title Card Required
 -------------------
 Symbolic Z-matrix:
 Charge =  0 Multiplicity = 1

 SCF Done:  E(UM062X) =  -110.380550986     A.U. after   11 cycles
 SCF Done:  E(UM062X) =  -110.393709190     A.U. after   12 cycles
 SCF Done:  E(UM062X) =  -110.395313658     A.U. after   11 cycles
 SCF Done:  E(UM062X) =  -110.395314496     A.U. after    8 cycles
 Optimization completed.
    -- Stationary point found.

                          Input orientation:
 ---------------------------------------------------------------------
 Center     Atomic      Atomic             Coordinates (Angstroms)
 Number     Number       Type             X           Y           Z
 ---------------------------------------------------------------------
      1          7           0       -1.015428    0.000000    0.000000
      2          7           0        1.015428    0.000000    0.000000
      3          1           0       -0.994454   -1.033299    0.000000
      4          1           0        0.994454    1.033299    0.000000
 ---------------------------------------------------------------------

 Alpha  occ. eigenvalues --  -14.87857 -14.87846  -0.96352  -0.88144  -0.50324
 Alpha  occ. eigenvalues --   -0.47191  -0.38779  -0.34593
 Alpha virt. eigenvalues --   -0.15594  -0.06713   0.05790   0.08039   0.10932
 Alpha virt. eigenvalues --    0.12320   0.13097   0.14956   0.16269   0.18904
 Alpha virt. eigenvalues --    0.21070   0.25694   0.53723   0.56821   0.75920

  Beta  occ. eigenvalues --  -14.87857 -14.87846  -0.96352  -0.88144  -0.50324
  Beta  occ. eigenvalues --   -0.47191  -0.38779  -0.34593
  Beta virt. eigenvalues --   -0.15594  -0.06713   0.05790   0.08039   0.10932
  Beta virt. eigenvalues --    0.12320   0.13097   0.14956   0.16269   0.18904
  Beta virt. eigenvalues --    0.21070   0.25694   0.53723   0.56821   0.75920

 Mulliken charges and spin densities:
               1          2
     1  N   -0.249635   0.000000
     2  N   -0.249635  -0.000000
     3  H    0.249635  -0.000000
     4  H    0.249635   0.000000
 Sum of Mulliken charges =  -0.00000  -0.00000

 Dipole moment (field-independent basis, Debye):
    X=             -0.0000    Y=             -0.0000    Z=              0.0000  Tot=              0.0000
 Quadrupole moment (field-independent basis, Debye-Ang):
   XX=            -13.6744   YY=            -10.7360   ZZ=            -13.8782
   XY=              3.9739   XZ=              0.0000   YZ=              0.0000

 Normal termination of Gaussian 16 at Thu May 15 15:34:40 2025.
