 Gaussian 16, Revision A.03,
 Gaussian 16:  ES64L-G16RevA.03 25-Dec-2016

 --------------------------------------------
 #p opt UM062X/6-311+G** nosymm int=superfine
 --------------------------------------------

 -------------------
 Title Card Required
 -------------------
 Symbolic Z-matrix:
 Charge =  1 Multiplicity = 2

 SCF Done:  E(UM062X) =  -76.5152687412     A.U. after   12 cycles
 SCF Done:  E(UM062X) =  -76.5521016142     A.U. after   13 cycles
 SCF Done:  E(UM062X) =  -76.6119275332     A.U. after   12 cycles
 SCF Done:  E(UM062X) =  -76.6500355276     A.U. after   11 cycles
 SCF Done:  E(UM062X) =  -76.6500660250     A.U. after   11 cycles
 Optimization completed.
    -- Stationary point found.

                          Input orientation:
 ---------------------------------------------------------------------
 Center     Atomic      Atomic             Coordinates (Angstroms)
 Number     Number       Type             X           Y           Z
 ---------------------------------------------------------------------
      1          6           0       -0.932014    0.000000    0.000000
      2          6           0        0.932014    0.000000    0.000000
      3          1           0       -2.034889   -0.000000   -0.000000
      4          1           0        2.034864    0.000000    0.000000
 ---------------------------------------------------------------------

 Alpha  occ. eigenvalues --  -11.00948 -11.00923  -1.07469  -0.99613  -0.81436
 Alpha  occ. eigenvalues --   -0.61259  -0.59234
 Alpha virt. eigenvalues --   -0.38306  -0.36333  -0.34027  -0.14106  -0.11788
 Alpha virt. eigenvalues --   -0.10136  -0.08778  -0.08552  -0.05366  -0.05079
 Alpha virt. eigenvalues --    0.00630   0.03227   0.06225   0.23702   0.31017

  Beta  occ. eigenvalues --  -11.00683 -11.00666  -1.04016  -0.97756  -0.80381
  Beta  occ. eigenvalues --   -0.57372
  Beta virt. eigenvalues --   -0.39334  -0.34588  -0.32003  -0.29682  -0.15041
  Beta virt. eigenvalues --   -0.12107  -0.10713  -0.09138  -0.08992  -0.05385
  Beta virt. eigenvalues --   -0.05154  -0.00340   0.03315   0.06357   0.24030

 Mulliken charges and spin densities:
               1          2
     1  C    0.125961   0.522756
     2  C    0.125960   0.522755
     3  H    0.374045  -0.022756
     4  H    0.374035  -0.022755
 Sum of Mulliken charges =   1.00000   1.00000

 Dipole moment (field-independent basis, Debye):
    X=             -0.0001    Y=             -0.0000    Z=              0.0000  Tot=              0.0001
 Quadrupole moment (field-independent basis, Debye-Ang):
   XX=              4.7604   YY=            -13.1266   ZZ=            -10.9832
   XY=              0.0000   XZ=              0.0000   YZ=             -0.0729

 Normal termination of Gaussian 16 at Tue Nov 19 13:25:18 2024.
