 Gaussian 16, Revision A.03,
 Gaussian 16:  ES64L-G16RevA.03 25-Dec-2016

 --------------------------------------------
 #p opt UM062X/6-311+G** nosymm int=superfine
 --------------------------------------------

 -------------------
 Title Card Required
 -------------------
 Symbolic Z-matrix:
 Charge =  0 Multiplicity = 1

 SCF Done:  E(UM062X) =  -81.9318208659     A.U. after   10 cycles
 SCF Done:  E(UM062X) =  -81.9336684335     A.U. after    9 cycles
 SCF Done:  E(UM062X) =  -81.9341032539     A.U. after   10 cycles
 SCF Done:  E(UM062X) =  -81.9228408923     A.U. after   11 cycles
 SCF Done:  E(UM062X) =  -81.9342840330     A.U. after   10 cycles
 SCF Done:  E(UM062X) =  -81.9347855212     A.U. after   10 cycles
 SCF Done:  E(UM062X) =  -81.9306549186     A.U. after   11 cycles
 SCF Done:  E(UM062X) =  -81.9209602945     A.U. after   10 cycles
 SCF Done:  E(UM062X) =  -81.9147009433     A.U. after   10 cycles
 SCF Done:  E(UM062X) =  -81.9199466643     A.U. after    9 cycles
 SCF Done:  E(UM062X) =  -81.9340574589     A.U. after    9 cycles
 SCF Done:  E(UM062X) =  -81.9345486839     A.U. after    9 cycles
 SCF Done:  E(UM062X) =  -81.9347615782     A.U. after   10 cycles
 SCF Done:  E(UM062X) =  -81.9348048433     A.U. after    6 cycles
 SCF Done:  E(UM062X) =  -81.9356406732     A.U. after   12 cycles
 SCF Done:  E(UM062X) =  -81.9369962071     A.U. after   10 cycles
 SCF Done:  E(UM062X) =  -81.9370202100     A.U. after    9 cycles
 SCF Done:  E(UM062X) =  -81.9370218606     A.U. after    8 cycles
 SCF Done:  E(UM062X) =  -81.9370244113     A.U. after    8 cycles
 SCF Done:  E(UM062X) =  -81.9370245215     A.U. after    7 cycles
 Optimization completed.
    -- Stationary point found.

                          Input orientation:
 ---------------------------------------------------------------------
 Center     Atomic      Atomic             Coordinates (Angstroms)
 Number     Number       Type             X           Y           Z
 ---------------------------------------------------------------------
      1          5           0       -0.945399    0.000000    0.000000
      2          7           0        0.945399    0.000000    0.000000
      3          1           0       -1.435758   -1.071287   -0.040680
      4          1           0        1.296622    0.833156    0.456767
      5          1           0       -1.435756    1.071267   -0.041246
      6          1           0        1.296612   -0.832914    0.457218
 ---------------------------------------------------------------------

 Alpha  occ. eigenvalues --  -14.73187  -7.11054  -0.90963  -0.58403  -0.53279
 Alpha  occ. eigenvalues --   -0.44062  -0.40538  -0.31621
 Alpha virt. eigenvalues --   -0.02971   0.01325   0.02500   0.03549   0.05912
 Alpha virt. eigenvalues --    0.11145   0.13473   0.14199   0.15987   0.16327
 Alpha virt. eigenvalues --    0.20138   0.20615   0.23079   0.25791   0.36018

  Beta  occ. eigenvalues --  -14.73187  -7.11054  -0.90963  -0.58403  -0.53279
  Beta  occ. eigenvalues --   -0.44062  -0.40538  -0.31621
  Beta virt. eigenvalues --   -0.02971   0.01325   0.02500   0.03549   0.05912
  Beta virt. eigenvalues --    0.11145   0.13473   0.14199   0.15987   0.16327
  Beta virt. eigenvalues --    0.20138   0.20615   0.23079   0.25791   0.36018

 Mulliken charges and spin densities:
               1          2
     1  B    0.185724   0.000000
     2  N   -0.715900   0.000000
     3  H    0.021226  -0.000000
     4  H    0.243863  -0.000000
     5  H    0.021225  -0.000000
     6  H    0.243862  -0.000000
 Sum of Mulliken charges =  -0.00000   0.00000

 Dipole moment (field-independent basis, Debye):
    X=             -0.8860    Y=              0.0003    Z=              1.2918  Tot=              1.5664
 Quadrupole moment (field-independent basis, Debye-Ang):
   XX=            -14.0541   YY=            -13.1646   ZZ=            -14.9380
   XY=              0.0006   XZ=              2.0334   YZ=             -0.0005

 Normal termination of Gaussian 16 at Mon Apr 21 17:45:55 2025.
