 Gaussian 16, Revision A.03,
 Gaussian 16:  ES64L-G16RevA.03 25-Dec-2016

 --------------------------------------------
 #p opt UM062X/6-311+G** nosymm int=superfine
 --------------------------------------------

 -------------------
 Title Card Required
 -------------------
 Symbolic Z-matrix:
 Charge =  0 Multiplicity = 1

 SCF Done:  E(UM062X) =  -51.8402765989     A.U. after    9 cycles
 SCF Done:  E(UM062X) =  -51.8445666133     A.U. after    8 cycles
 SCF Done:  E(UM062X) =  -51.8466963997     A.U. after   10 cycles
 SCF Done:  E(UM062X) =  -51.8466972794     A.U. after    8 cycles
 SCF Done:  E(UM062X) =  -51.8466641140     A.U. after    9 cycles
 SCF Done:  E(UM062X) =  -51.8466978721     A.U. after    9 cycles
 Optimization completed.
    -- Stationary point found.

                          Input orientation:
 ---------------------------------------------------------------------
 Center     Atomic      Atomic             Coordinates (Angstroms)
 Number     Number       Type             X           Y           Z
 ---------------------------------------------------------------------
      1          5           0       -1.645607    0.000000    0.000000
      2          5           0        1.645607    0.000000    0.000000
      3          1           0       -2.135496   -1.073943   -0.000520
      4          1           0        2.135496    1.073925   -0.006264
      5          1           0       -2.135496    1.073943    0.000723
      6          1           0        2.135496   -1.073924    0.006432
 ---------------------------------------------------------------------

 Alpha  occ. eigenvalues --   -7.10771  -7.10769  -0.57602  -0.56826  -0.44329
 Alpha  occ. eigenvalues --   -0.44005  -0.22534
 Alpha virt. eigenvalues --   -0.05310  -0.03507  -0.02976   0.02311   0.03661
 Alpha virt. eigenvalues --    0.03865   0.05686   0.06278   0.07549   0.07796
 Alpha virt. eigenvalues --    0.10322   0.15762   0.16965   0.17232   0.25361

  Beta  occ. eigenvalues --   -7.10771  -7.10769  -0.57602  -0.56826  -0.44329
  Beta  occ. eigenvalues --   -0.44005  -0.22534
  Beta virt. eigenvalues --   -0.05310  -0.03507  -0.02976   0.02311   0.03661
  Beta virt. eigenvalues --    0.03865   0.05686   0.06278   0.07549   0.07796
  Beta virt. eigenvalues --    0.10322   0.15762   0.16965   0.17232   0.25361

 Mulliken charges and spin densities:
               1          2
     1  B   -0.050696   0.000000
     2  B   -0.050696  -0.000000
     3  H    0.025348  -0.000000
     4  H    0.025348   0.000000
     5  H    0.025348   0.000000
     6  H    0.025348   0.000000
 Sum of Mulliken charges =  -0.00000  -0.00000

 Dipole moment (field-independent basis, Debye):
    X=              0.0000    Y=              0.0000    Z=              0.0001  Tot=              0.0001
 Quadrupole moment (field-independent basis, Debye-Ang):
   XX=            -13.3376   YY=            -16.9017   ZZ=            -14.1932
   XY=             -0.0000   XZ=              0.0001   YZ=              0.0072

 Normal termination of Gaussian 16 at Mon Apr 21 17:13:59 2025.
