 Gaussian 16, Revision A.03,
 Gaussian 16:  ES64L-G16RevA.03 25-Dec-2016

 ---------------------------------------
 #p UM062X/6-311+G** force int=superfine
 ---------------------------------------

 -------------------
 Title Card Required
 -------------------
 Symbolic Z-matrix:
 Charge =  0 Multiplicity = 1

                         Standard orientation:
 ---------------------------------------------------------------------
 Center     Atomic      Atomic             Coordinates (Angstroms)
 Number     Number       Type             X           Y           Z
 ---------------------------------------------------------------------
      1          6           0        0.000000    0.669501    0.000000
      2          6           0       -0.000000   -0.669501    0.000000
      3          1           0        0.924515    1.235191    0.000000
      4          1           0       -0.924385    1.235303    0.000000
      5          1           0       -0.924515   -1.235191    0.000000
      6          1           0        0.924385   -1.235303    0.000000
 ---------------------------------------------------------------------

 SCF Done:  E(UM062X) =  -78.5633632387     A.U. after    8 cycles

 The electronic state is 1-AG.
 Alpha  occ. eigenvalues --  -10.54062 -10.53955  -0.85874  -0.66419  -0.54270
 Alpha  occ. eigenvalues --   -0.48492  -0.42019  -0.33350
 Alpha virt. eigenvalues --    0.02553   0.03398   0.04069   0.05129   0.07744
 Alpha virt. eigenvalues --    0.08181   0.09726   0.13384   0.16040   0.17347
 Alpha virt. eigenvalues --    0.20053   0.23086   0.31305   0.35775   0.43893

  Beta  occ. eigenvalues --  -10.54062 -10.53955  -0.85874  -0.66419  -0.54270
  Beta  occ. eigenvalues --   -0.48492  -0.42019  -0.33350
  Beta virt. eigenvalues --    0.02553   0.03398   0.04069   0.05129   0.07744
  Beta virt. eigenvalues --    0.08181   0.09726   0.13384   0.16040   0.17347
  Beta virt. eigenvalues --    0.20053   0.23086   0.31305   0.35775   0.43893

 Mulliken charges and spin densities:
               1          2
     1  C   -0.297535  -0.000000
     2  C   -0.297535  -0.000000
     3  H    0.148760   0.000000
     4  H    0.148774   0.000000
     5  H    0.148760   0.000000
     6  H    0.148774   0.000000
 Sum of Mulliken charges =   0.00000   0.00000

 Dipole moment (field-independent basis, Debye):
    X=              0.0000    Y=             -0.0000    Z=              0.0000  Tot=              0.0000
 Quadrupole moment (field-independent basis, Debye-Ang):
   XX=            -12.3093   YY=            -12.2467   ZZ=            -15.9507
   XY=             -0.0003   XZ=             -0.0000   YZ=             -0.0000

 Normal termination of Gaussian 16 at Tue Nov 19 11:44:18 2024.
