 Gaussian 16, Revision A.03,
 Gaussian 16:  ES64L-G16RevA.03 25-Dec-2016

 --------------------------------------------
 #p opt UM062X/6-311+G** nosymm int=superfine
 --------------------------------------------

 -------------------
 Title Card Required
 -------------------
 Symbolic Z-matrix:
 Charge =  0 Multiplicity = 1

 SCF Done:  E(UM062X) =  -380.954072472     A.U. after   21 cycles
 SCF Done:  E(UM062X) =  -380.955983012     A.U. after   14 cycles
 SCF Done:  E(UM062X) =  -380.957119870     A.U. after   13 cycles
 SCF Done:  E(UM062X) =  -380.957165720     A.U. after   14 cycles
 SCF Done:  E(UM062X) =  -380.957107547     A.U. after   15 cycles
 SCF Done:  E(UM062X) =  -380.957198825     A.U. after   17 cycles
 SCF Done:  E(UM062X) =  -380.957201217     A.U. after   12 cycles
 SCF Done:  E(UM062X) =  -380.957207207     A.U. after   12 cycles
 SCF Done:  E(UM062X) =  -380.957214579     A.U. after   15 cycles
 SCF Done:  E(UM062X) =  -380.957215490     A.U. after   12 cycles
 SCF Done:  E(UM062X) =  -380.957215525     A.U. after   12 cycles
 Optimization completed.
    -- Stationary point found.

                          Input orientation:
 ---------------------------------------------------------------------
 Center     Atomic      Atomic             Coordinates (Angstroms)
 Number     Number       Type             X           Y           Z
 ---------------------------------------------------------------------
      1          6           0       -1.555452    0.000000    0.000000
      2         15           0        1.555452    0.000000    0.000000
      3          1           0       -2.222307   -0.874874    0.000111
      4          1           0        1.352942   -1.406143    0.000185
      5          1           0       -2.188477    0.899282   -0.000099
 ---------------------------------------------------------------------

 Alpha  occ. eigenvalues --  -78.04204 -10.64366  -6.86343  -4.98265  -4.97580
 Alpha  occ. eigenvalues --   -4.97207  -0.78084  -0.64910  -0.51248  -0.37697
 Alpha  occ. eigenvalues --   -0.34351  -0.23756
 Alpha virt. eigenvalues --   -0.10814  -0.08941   0.01331   0.04225   0.04775
 Alpha virt. eigenvalues --    0.06271   0.06945   0.07285   0.09012   0.11549
 Alpha virt. eigenvalues --    0.13717   0.17295   0.18457   0.31023   0.34201

  Beta  occ. eigenvalues --  -78.04204 -10.64366  -6.86343  -4.98265  -4.97580
  Beta  occ. eigenvalues --   -4.97207  -0.78084  -0.64910  -0.51248  -0.37697
  Beta  occ. eigenvalues --   -0.34351  -0.23756
  Beta virt. eigenvalues --   -0.10814  -0.08941   0.01331   0.04225   0.04775
  Beta virt. eigenvalues --    0.06271   0.06945   0.07285   0.09012   0.11549
  Beta virt. eigenvalues --    0.13717   0.17295   0.18457   0.31023   0.34201

 Mulliken charges and spin densities:
               1          2
     1  C   -0.339713  -0.000000
     2  P    0.043865   0.000000
     3  H    0.163242   0.000000
     4  H   -0.031055  -0.000000
     5  H    0.163660   0.000000
 Sum of Mulliken charges =   0.00000   0.00000

 Dipole moment (field-independent basis, Debye):
    X=             -2.6881    Y=             -0.5908    Z=              0.0001  Tot=              2.7523
 Quadrupole moment (field-independent basis, Debye-Ang):
   XX=            -14.5459   YY=            -21.2355   ZZ=            -25.5722
   XY=             -1.5229   XZ=              0.0002   YZ=             -0.0006

 Normal termination of Gaussian 16 at Mon Apr 21 19:15:38 2025.
