 Gaussian 16, Revision A.03,
 Gaussian 16:  ES64L-G16RevA.03 25-Dec-2016

 --------------------------------------------
 #p opt UM062X/6-311+G** nosymm int=superfine
 --------------------------------------------

 -------------------
 Title Card Required
 -------------------
 Symbolic Z-matrix:
 Charge =  1 Multiplicity = 2

 SCF Done:  E(UM062X) =  -79.3624362083     A.U. after   10 cycles
 SCF Done:  E(UM062X) =  -79.3638001182     A.U. after    8 cycles
 SCF Done:  E(UM062X) =  -79.3638131516     A.U. after    7 cycles
 Optimization completed.
    -- Stationary point found.

                          Input orientation:
 ---------------------------------------------------------------------
 Center     Atomic      Atomic             Coordinates (Angstroms)
 Number     Number       Type             X           Y           Z
 ---------------------------------------------------------------------
      1          6           0       -1.141338    0.000000    0.000000
      2          6           0        1.141338    0.000000    0.000000
      3          1           0        1.241739   -0.934698    0.540928
      4          1           0       -1.241072   -0.935814   -0.539124
      5          1           0        1.241437    0.935870    0.538959
      6          1           0        1.241095   -0.001116   -1.080000
      7          1           0       -1.241758    0.934751   -0.540833
      8          1           0       -1.241440    0.000949    1.079968
 ---------------------------------------------------------------------

 Alpha  occ. eigenvalues --  -10.85903 -10.85896  -1.08064  -1.02154  -0.77348
 Alpha  occ. eigenvalues --   -0.77348  -0.74138  -0.74138  -0.59596
 Alpha virt. eigenvalues --   -0.28745  -0.15874  -0.10857  -0.10857  -0.09945
 Alpha virt. eigenvalues --   -0.06757  -0.06281  -0.06281  -0.04723  -0.04721
 Alpha virt. eigenvalues --   -0.02466   0.01676   0.01678   0.04956   0.07314

  Beta  occ. eigenvalues --  -10.85695 -10.85695  -1.04743  -0.99478  -0.76503
  Beta  occ. eigenvalues --   -0.76503  -0.73455  -0.73454
  Beta virt. eigenvalues --   -0.36864  -0.20604  -0.15837  -0.11079  -0.11079
  Beta virt. eigenvalues --   -0.09067  -0.06848  -0.06592  -0.06592  -0.04394
  Beta virt. eigenvalues --   -0.04392  -0.01680   0.02205   0.02207   0.05383

 Mulliken charges and spin densities:
               1          2
     1  C   -0.302840   0.564755
     2  C   -0.302840   0.564755
     3  H    0.267627  -0.021593
     4  H    0.267599  -0.021575
     5  H    0.267614  -0.021583
     6  H    0.267600  -0.021578
     7  H    0.267627  -0.021594
     8  H    0.267613  -0.021586
 Sum of Mulliken charges =   1.00000   1.00000

 Dipole moment (field-independent basis, Debye):
    X=             -0.0000    Y=             -0.0000    Z=             -0.0000  Tot=              0.0000
 Quadrupole moment (field-independent basis, Debye-Ang):
   XX=             -5.0951   YY=            -10.8616   ZZ=            -10.8617
   XY=             -0.0007   XZ=              0.0004   YZ=             -0.0000

 Normal termination of Gaussian 16 at Wed Nov 13 13:23:39 2024.
