 Gaussian 16, Revision A.03,
 Gaussian 16:  ES64L-G16RevA.03 25-Dec-2016

 --------------------------------------------
 #p opt UM062X/6-311+G** nosymm int=superfine
 --------------------------------------------

 -------------------
 Title Card Required
 -------------------
 Symbolic Z-matrix:
 Charge =  0 Multiplicity = 1

 SCF Done:  E(UM062X) =  -438.652716552     A.U. after   11 cycles
 SCF Done:  E(UM062X) =  -438.654965718     A.U. after   10 cycles
 SCF Done:  E(UM062X) =  -438.655169333     A.U. after    9 cycles
 SCF Done:  E(UM062X) =  -438.655169825     A.U. after    8 cycles
 Optimization completed.
    -- Stationary point found.

                          Input orientation:
 ---------------------------------------------------------------------
 Center     Atomic      Atomic             Coordinates (Angstroms)
 Number     Number       Type             X           Y           Z
 ---------------------------------------------------------------------
      1          6           0       -1.060220    0.000000    0.000000
      2         16           0        1.060220    0.000000    0.000000
      3          1           0        1.136719   -1.339689   -0.001606
      4          1           0       -1.306207    1.055677    0.002418
      5          1           0       -1.358781   -0.504496   -0.911129
      6          1           0       -1.358749   -0.508596    0.908861
 ---------------------------------------------------------------------

 Alpha  occ. eigenvalues --  -89.89441 -10.58748  -8.25785  -6.17896  -6.17728
 Alpha  occ. eigenvalues --   -6.17251  -0.83574  -0.74853  -0.50903  -0.50405
 Alpha  occ. eigenvalues --   -0.44186  -0.37374  -0.29784
 Alpha virt. eigenvalues --   -0.00639   0.02463   0.04624   0.05402   0.06476
 Alpha virt. eigenvalues --    0.07241   0.07984   0.08703   0.11788   0.13720
 Alpha virt. eigenvalues --    0.17842   0.18357   0.25021   0.32779   0.34690

  Beta  occ. eigenvalues --  -89.89441 -10.58748  -8.25785  -6.17896  -6.17728
  Beta  occ. eigenvalues --   -6.17251  -0.83574  -0.74853  -0.50903  -0.50405
  Beta  occ. eigenvalues --   -0.44186  -0.37374  -0.29784
  Beta virt. eigenvalues --   -0.00639   0.02463   0.04624   0.05402   0.06476
  Beta virt. eigenvalues --    0.07241   0.07984   0.08703   0.11788   0.13720
  Beta virt. eigenvalues --    0.17842   0.18357   0.25021   0.32779   0.34690

 Mulliken charges and spin densities:
               1          2
     1  C   -0.574142   0.000000
     2  S   -0.080138  -0.000000
     3  H    0.065682   0.000000
     4  H    0.194612   0.000000
     5  H    0.197011   0.000000
     6  H    0.196973   0.000000
 Sum of Mulliken charges =  -0.00000   0.00000

 Dipole moment (field-independent basis, Debye):
    X=             -1.8148    Y=             -0.9263    Z=             -0.0011  Tot=              2.0375
 Quadrupole moment (field-independent basis, Debye-Ang):
   XX=            -21.1906   YY=            -19.2661   ZZ=            -23.1148
   XY=             -1.5235   XZ=             -0.0019   YZ=              0.0046

 Normal termination of Gaussian 16 at Mon Apr 21 19:34:48 2025.
