 Gaussian 16, Revision A.03,
 Gaussian 16:  ES64L-G16RevA.03 25-Dec-2016

 --------------------------------------------
 #p opt UM062X/6-311+G** nosymm int=superfine
 --------------------------------------------

 -------------------
 Title Card Required
 -------------------
 Symbolic Z-matrix:
 Charge =  0 Multiplicity = 1

 SCF Done:  E(UM062X) =  -474.388161803     A.U. after   19 cycles
 SCF Done:  E(UM062X) =  -474.401316744     A.U. after   18 cycles
 SCF Done:  E(UM062X) =  -474.410207503     A.U. after   19 cycles
 SCF Done:  E(UM062X) =  -474.412789534     A.U. after   19 cycles
 SCF Done:  E(UM062X) =  -474.414147383     A.U. after   17 cycles
 SCF Done:  E(UM062X) =  -474.414909005     A.U. after   18 cycles
 SCF Done:  E(UM062X) =  -474.414965029     A.U. after  125 cycles
 SCF Done:  E(UM062X) =  -474.414978806     A.U. after   13 cycles
 SCF Done:  E(UM062X) =  -474.414980494     A.U. after   16 cycles
 SCF Done:  E(UM062X) =  -474.414980813     A.U. after   14 cycles
 SCF Done:  E(UM062X) =  -474.414980819     A.U. after   15 cycles
 Optimization completed.
    -- Stationary point found.

                          Input orientation:
 ---------------------------------------------------------------------
 Center     Atomic      Atomic             Coordinates (Angstroms)
 Number     Number       Type             X           Y           Z
 ---------------------------------------------------------------------
      1          8           0       -1.461006   -0.000125    0.000039
      2         16           0        1.461006    0.000139   -0.000069
      3          1           0       -1.459362   -0.572959    0.782855
      4          1           0        1.297047   -0.295300   -1.303093
 ---------------------------------------------------------------------

 Alpha  occ. eigenvalues --  -89.97798 -19.67516  -8.33880  -6.26101  -6.25725
 Alpha  occ. eigenvalues --   -6.25165  -1.08619  -0.83553  -0.52660  -0.49410
 Alpha  occ. eigenvalues --   -0.39880  -0.36593  -0.35369
 Alpha virt. eigenvalues --   -0.19724   0.01629   0.03985   0.04677   0.05562
 Alpha virt. eigenvalues --    0.07214   0.14285   0.19412   0.19966   0.21305
 Alpha virt. eigenvalues --    0.26072   0.31048   0.33999   0.35368   0.39623

  Beta  occ. eigenvalues --  -89.97798 -19.67516  -8.33880  -6.26101  -6.25725
  Beta  occ. eigenvalues --   -6.25165  -1.08619  -0.83553  -0.52660  -0.49410
  Beta  occ. eigenvalues --   -0.39880  -0.36593  -0.35369
  Beta virt. eigenvalues --   -0.19724   0.01629   0.03985   0.04677   0.05562
  Beta virt. eigenvalues --    0.07214   0.14285   0.19412   0.19966   0.21305
  Beta virt. eigenvalues --    0.26072   0.31048   0.33999   0.35368   0.39623

 Mulliken charges and spin densities:
               1          2
     1  O   -0.417084   0.000000
     2  S    0.056506  -0.000000
     3  H    0.248552  -0.000000
     4  H    0.112026  -0.000000
 Sum of Mulliken charges =  -0.00000   0.00000

 Dipole moment (field-independent basis, Debye):
    X=              2.0658    Y=             -1.2743    Z=              0.2407  Tot=              2.4391
 Quadrupole moment (field-independent basis, Debye-Ang):
   XX=            -18.1803   YY=            -21.5852   ZZ=            -17.0930
   XY=              1.2465   XZ=             -3.9239   YZ=             -0.3074

 Normal termination of Gaussian 16 at Mon Apr 21 22:46:01 2025.
