 Gaussian 16, Revision A.03,
 Gaussian 16:  ES64L-G16RevA.03 25-Dec-2016

 --------------------------------------------
 #p opt UM062X/6-311+G** nosymm int=superfine
 --------------------------------------------

 -------------------
 Title Card Required
 -------------------
 Symbolic Z-matrix:
 Charge =  0 Multiplicity = 1

 SCF Done:  E(UM062X) =  -51.9605844646     A.U. after    8 cycles
 SCF Done:  E(UM062X) =  -51.9612473027     A.U. after    8 cycles
 SCF Done:  E(UM062X) =  -51.9614450534     A.U. after    9 cycles
 SCF Done:  E(UM062X) =  -51.9614520961     A.U. after    8 cycles
 SCF Done:  E(UM062X) =  -51.9618685576     A.U. after    9 cycles
 SCF Done:  E(UM062X) =  -51.9517494164     A.U. after   10 cycles
 SCF Done:  E(UM062X) =  -51.9635749200     A.U. after    9 cycles
 SCF Done:  E(UM062X) =  -51.9652217944     A.U. after   11 cycles
 SCF Done:  E(UM062X) =  -51.9639435034     A.U. after   10 cycles
 SCF Done:  E(UM062X) =  -51.9665200577     A.U. after   10 cycles
 SCF Done:  E(UM062X) =  -51.9666546105     A.U. after    9 cycles
 SCF Done:  E(UM062X) =  -51.9666556453     A.U. after    9 cycles
 SCF Done:  E(UM062X) =  -51.9666592403     A.U. after    8 cycles
 Optimization completed.
    -- Stationary point found.

                          Input orientation:
 ---------------------------------------------------------------------
 Center     Atomic      Atomic             Coordinates (Angstroms)
 Number     Number       Type             X           Y           Z
 ---------------------------------------------------------------------
      1          5           0       -1.070607    0.000000    0.000000
      2          5           0        1.070607    0.000000    0.000000
      3          1           0       -1.655108   -0.732861   -0.729483
      4          1           0        1.654384    0.729729   -0.733222
      5          1           0       -1.651409    0.733988    0.731440
      6          1           0        1.652133   -0.730208    0.734611
 ---------------------------------------------------------------------

 Alpha  occ. eigenvalues --   -7.07455  -7.07441  -0.58758  -0.54388  -0.41792
 Alpha  occ. eigenvalues --   -0.41790  -0.30986
 Alpha virt. eigenvalues --   -0.03458  -0.03453   0.02312   0.02877   0.04908
 Alpha virt. eigenvalues --    0.04909   0.06880   0.07660   0.07661   0.10915
 Alpha virt. eigenvalues --    0.14301   0.16369   0.19774   0.21727   0.21733

  Beta  occ. eigenvalues --   -7.07455  -7.07441  -0.58758  -0.54388  -0.41792
  Beta  occ. eigenvalues --   -0.41790  -0.30986
  Beta virt. eigenvalues --   -0.03458  -0.03453   0.02312   0.02877   0.04908
  Beta virt. eigenvalues --    0.04909   0.06880   0.07660   0.07661   0.10915
  Beta virt. eigenvalues --    0.14301   0.16369   0.19774   0.21727   0.21733

 Mulliken charges and spin densities:
               1          2
     1  B   -0.030186  -0.000000
     2  B   -0.030185   0.000000
     3  H    0.015128  -0.000000
     4  H    0.015113  -0.000000
     5  H    0.015058   0.000000
     6  H    0.015072   0.000000
 Sum of Mulliken charges =  -0.00000  -0.00000

 Dipole moment (field-independent basis, Debye):
    X=              0.0000    Y=              0.0000    Z=             -0.0001  Tot=              0.0001
 Quadrupole moment (field-independent basis, Debye-Ang):
   XX=            -16.6536   YY=            -14.9995   ZZ=            -15.0018
   XY=              0.0013   XZ=              0.0006   YZ=             -0.0000

 Normal termination of Gaussian 16 at Mon Apr 21 17:07:55 2025.
