 Gaussian 16, Revision A.03,
 Gaussian 16:  ES64L-G16RevA.03 25-Dec-2016

 ---------------------------------------------------
 #p UM062X/6-311+G** force int=superfine pop=saveNBO
 ---------------------------------------------------

 -------------------
 Title Card Required
 -------------------
 Symbolic Z-matrix:
 Charge = -1 Multiplicity = 2

                         Standard orientation:
 ---------------------------------------------------------------------
 Center     Atomic      Atomic             Coordinates (Angstroms)
 Number     Number       Type             X           Y           Z
 ---------------------------------------------------------------------
      1          5           0       -0.000000    0.822274   -0.000001
      2          5           0       -0.000000   -0.822274   -0.000001
      3          1           0        1.015835    1.492844    0.000238
      4          1           0       -1.015835   -1.492844    0.000238
      5          1           0       -1.015834    1.492846   -0.000234
      6          1           0        1.015834   -1.492846   -0.000234
 ---------------------------------------------------------------------

 SCF Done:  E(UM062X) =  -52.0435997180     A.U. after   11 cycles

 The electronic state is 2-A.
 Alpha  occ. eigenvalues --   -6.78448  -6.78384  -0.38219  -0.29582  -0.19704
 Alpha  occ. eigenvalues --   -0.13593  -0.12126  -0.01642
 Alpha virt. eigenvalues --    0.15692   0.17012   0.19167   0.19239   0.19293
 Alpha virt. eigenvalues --    0.22031   0.22721   0.26907   0.28017   0.34573
 Alpha virt. eigenvalues --    0.36271   0.39433   0.43985   0.45555   0.52344

  Beta  occ. eigenvalues --   -6.78413  -6.78356  -0.35785  -0.28454  -0.19176
  Beta  occ. eigenvalues --   -0.13544  -0.11376
  Beta virt. eigenvalues --    0.11661   0.15021   0.15569   0.17656   0.18018
  Beta virt. eigenvalues --    0.18876   0.19081   0.23241   0.23372   0.31583
  Beta virt. eigenvalues --    0.33824   0.36279   0.38572   0.43938   0.45654

 Mulliken charges and spin densities:
               1          2
     1  B   -0.335132   0.544788
     2  B   -0.335132   0.544788
     3  H   -0.082434  -0.022394
     4  H   -0.082434  -0.022394
     5  H   -0.082434  -0.022394
     6  H   -0.082434  -0.022394
 Sum of Mulliken charges =  -1.00000   1.00000

 Dipole moment (field-independent basis, Debye):
    X=              0.0000    Y=             -0.0000    Z=              0.0000  Tot=              0.0000
 Quadrupole moment (field-independent basis, Debye-Ang):
   XX=            -23.1331   YY=            -28.2766   ZZ=            -21.1123
   XY=             -0.0000   XZ=              0.0000   YZ=              0.0000

 Summary of Natural Population Analysis:

                                       Natural Population
                Natural  -----------------------------------------------
    Atom  No    Charge         Core      Valence    Rydberg      Total
 -----------------------------------------------------------------------
      B    1    0.13700      0.99969     1.35964    0.00368     2.36300
      B    2    0.13700      0.99969     1.35964    0.00368     2.36300
      H    3   -0.06850      0.00000     0.56743    0.00107     0.56850
      H    4   -0.06850      0.00000     0.56743    0.00107     0.56850
      H    5   -0.06850      0.00000     0.56743    0.00107     0.56850
      H    6   -0.06850      0.00000     0.56743    0.00107     0.56850
 =======================================================================
   * Total *   -0.00000      1.99937     4.98899    0.01164     7.00000

 Optimization completed.
    -- Stationary point found.
 Normal termination of Gaussian 16 at Wed Apr 16 00:01:52 2025.
