 Gaussian 16, Revision A.03,
 Gaussian 16:  ES64L-G16RevA.03 25-Dec-2016

 --------------------------------------------
 #p opt UM062X/6-311+G** nosymm int=superfine
 --------------------------------------------

 -------------------
 Title Card Required
 -------------------
 Symbolic Z-matrix:
 Charge =  0 Multiplicity = 1

 SCF Done:  E(UM062X) =  -114.341451593     A.U. after   11 cycles
 SCF Done:  E(UM062X) =  -114.344262718     A.U. after   10 cycles
 SCF Done:  E(UM062X) =  -114.344951161     A.U. after   10 cycles
 SCF Done:  E(UM062X) =  -114.344956456     A.U. after    9 cycles
 SCF Done:  E(UM062X) =  -114.344953788     A.U. after    9 cycles
 SCF Done:  E(UM062X) =  -114.344952276     A.U. after   10 cycles
 SCF Done:  E(UM062X) =  -114.344956093     A.U. after    9 cycles
 SCF Done:  E(UM062X) =  -114.344956448     A.U. after    8 cycles
 Optimization completed.
    -- Stationary point found.

                          Input orientation:
 ---------------------------------------------------------------------
 Center     Atomic      Atomic             Coordinates (Angstroms)
 Number     Number       Type             X           Y           Z
 ---------------------------------------------------------------------
      1          6           0       -0.823311    0.000000    0.000000
      2          8           0        0.823311    0.000000    0.000000
      3          1           0       -1.289612   -0.976281    0.000088
      4          1           0       -1.289612    0.976281    0.000088
 ---------------------------------------------------------------------

 Alpha  occ. eigenvalues --  -19.67002 -10.69556  -1.03222  -0.78801  -0.57981
 Alpha  occ. eigenvalues --   -0.45797  -0.37475  -0.36590
 Alpha virt. eigenvalues --   -0.10204   0.00954   0.03371   0.04246   0.06647
 Alpha virt. eigenvalues --    0.11704   0.14717   0.19243   0.21380   0.24044
 Alpha virt. eigenvalues --    0.26511   0.32955   0.41247   0.47847   0.54495

  Beta  occ. eigenvalues --  -19.67002 -10.69556  -1.03222  -0.78801  -0.57981
  Beta  occ. eigenvalues --   -0.45797  -0.37475  -0.36590
  Beta virt. eigenvalues --   -0.10204   0.00954   0.03371   0.04246   0.06647
  Beta virt. eigenvalues --    0.11704   0.14717   0.19243   0.21380   0.24044
  Beta virt. eigenvalues --    0.26511   0.32955   0.41247   0.47847   0.54495

 Mulliken charges and spin densities:
               1          2
     1  C   -0.084304  -0.000000
     2  O   -0.312717   0.000000
     3  H    0.198510   0.000000
     4  H    0.198510   0.000000
 Sum of Mulliken charges =  -0.00000  -0.00000

 Dipole moment (field-independent basis, Debye):
    X=             -3.9446    Y=             -0.0000    Z=              0.0002  Tot=              3.9446
 Quadrupole moment (field-independent basis, Debye-Ang):
   XX=            -11.0893   YY=            -11.3507   ZZ=            -12.8388
   XY=             -0.0000   XZ=             -0.0001   YZ=              0.0000

 Normal termination of Gaussian 16 at Mon Apr 21 18:48:05 2025.
