 Gaussian 16, Revision A.03,
 Gaussian 16:  ES64L-G16RevA.03 25-Dec-2016

 --------------------------------------------
 #p opt UM062X/6-311+G** nosymm int=superfine
 --------------------------------------------

 -------------------
 Title Card Required
 -------------------
 Symbolic Z-matrix:
 Charge =  0 Multiplicity = 1

 SCF Done:  E(UM062X) =  -581.211904767     A.U. after    9 cycles
 SCF Done:  E(UM062X) =  -581.212240366     A.U. after    8 cycles
 SCF Done:  E(UM062X) =  -581.212340330     A.U. after    9 cycles
 SCF Done:  E(UM062X) =  -581.212273959     A.U. after    9 cycles
 SCF Done:  E(UM062X) =  -581.212340520     A.U. after    9 cycles
 SCF Done:  E(UM062X) =  -581.212344842     A.U. after    8 cycles
 Optimization completed.
    -- Stationary point found.

                          Input orientation:
 ---------------------------------------------------------------------
 Center     Atomic      Atomic             Coordinates (Angstroms)
 Number     Number       Type             X           Y           Z
 ---------------------------------------------------------------------
      1         14           0       -1.337518    0.000000    0.000000
      2         14           0        1.337518    0.000000    0.000000
      3          1           0       -2.079619   -1.269626    0.000807
      4          1           0        2.079619    1.269626   -0.000688
      5          1           0       -2.079655    1.269604    0.000074
      6          1           0        2.079655   -1.269604    0.000210
 ---------------------------------------------------------------------

 Alpha  occ. eigenvalues --  -67.03077 -67.03077  -5.57669  -5.57668  -3.88894
 Alpha  occ. eigenvalues --   -3.88891  -3.88725  -3.88713  -3.88664  -3.88662
 Alpha  occ. eigenvalues --   -0.61321  -0.57595  -0.43975  -0.42887  -0.34456
 Alpha  occ. eigenvalues --   -0.22047
 Alpha virt. eigenvalues --   -0.07150  -0.03094   0.02213   0.03148   0.03683
 Alpha virt. eigenvalues --    0.04417   0.04858   0.05297   0.05538   0.07050
 Alpha virt. eigenvalues --    0.07401   0.07761   0.11971   0.20971   0.26392

  Beta  occ. eigenvalues --  -67.03077 -67.03077  -5.57669  -5.57668  -3.88894
  Beta  occ. eigenvalues --   -3.88891  -3.88725  -3.88713  -3.88664  -3.88662
  Beta  occ. eigenvalues --   -0.61321  -0.57595  -0.43975  -0.42887  -0.34456
  Beta  occ. eigenvalues --   -0.22047
  Beta virt. eigenvalues --   -0.07150  -0.03094   0.02213   0.03148   0.03683
  Beta virt. eigenvalues --    0.04417   0.04858   0.05297   0.05538   0.07050
  Beta virt. eigenvalues --    0.07401   0.07761   0.11971   0.20971   0.26392

 Mulliken charges and spin densities:
               1          2
     1  Si   0.111556   0.000000
     2  Si   0.111556  -0.000000
     3  H   -0.055779  -0.000000
     4  H   -0.055779   0.000000
     5  H   -0.055777  -0.000000
     6  H   -0.055777   0.000000
 Sum of Mulliken charges =  -0.00000   0.00000

 Dipole moment (field-independent basis, Debye):
    X=              0.0000    Y=              0.0000    Z=              0.0000  Tot=              0.0000
 Quadrupole moment (field-independent basis, Debye-Ang):
   XX=            -26.5939   YY=            -29.4886   ZZ=            -34.1147
   XY=             -0.0001   XZ=             -0.0004   YZ=             -0.0015

 Normal termination of Gaussian 16 at Mon Apr 21 20:29:39 2025.
