 Gaussian 16, Revision A.03,
 Gaussian 16:  ES64L-G16RevA.03 25-Dec-2016

 ---------------------------------------------------
 #p UM062X/6-311+G** force int=superfine pop=saveNBO
 ---------------------------------------------------

 -------------------
 Title Card Required
 -------------------
 Symbolic Z-matrix:
 Charge =  0 Multiplicity = 1

                         Standard orientation:
 ---------------------------------------------------------------------
 Center     Atomic      Atomic             Coordinates (Angstroms)
 Number     Number       Type             X           Y           Z
 ---------------------------------------------------------------------
      1          6           0        0.000000    0.000000   -1.838976
      2         16           0        0.000000    0.000000    0.689616
 ---------------------------------------------------------------------

 SCF Done:  E(UM062X) =  -435.938137569     A.U. after   15 cycles

 The electronic state is 1-SG.
 Alpha  occ. eigenvalues --  -89.95019 -10.80718  -8.30697  -6.22797  -6.22309
 Alpha  occ. eigenvalues --   -6.22309  -0.76482  -0.68254  -0.35994  -0.31873
 Alpha  occ. eigenvalues --   -0.31873
 Alpha virt. eigenvalues --   -0.16113  -0.16113  -0.10448   0.03530   0.05326
 Alpha virt. eigenvalues --    0.06058   0.06058   0.08696   0.09059   0.09059
 Alpha virt. eigenvalues --    0.15327   0.35159   0.35842   0.35842   0.52993

  Beta  occ. eigenvalues --  -89.95019 -10.80718  -8.30697  -6.22797  -6.22309
  Beta  occ. eigenvalues --   -6.22309  -0.76482  -0.68254  -0.35994  -0.31873
  Beta  occ. eigenvalues --   -0.31873
  Beta virt. eigenvalues --   -0.16113  -0.16113  -0.10448   0.03530   0.05326
  Beta virt. eigenvalues --    0.06058   0.06058   0.08696   0.09059   0.09059
  Beta virt. eigenvalues --    0.15327   0.35159   0.35842   0.35842   0.52993

 Mulliken charges and spin densities:
               1          2
     1  C    0.160438   0.000000
     2  S   -0.160438  -0.000000
 Sum of Mulliken charges =   0.00000  -0.00000

 Dipole moment (field-independent basis, Debye):
    X=              0.0000    Y=              0.0000    Z=             -1.7913  Tot=              1.7913
 Quadrupole moment (field-independent basis, Debye-Ang):
   XX=            -20.6109   YY=            -20.6109   ZZ=            -16.2936
   XY=              0.0000   XZ=              0.0000   YZ=              0.0000

 Summary of Natural Population Analysis:

                                       Natural Population
                Natural  -----------------------------------------------
    Atom  No    Charge         Core      Valence    Rydberg      Total
 -----------------------------------------------------------------------
      C    1    0.13435      1.00000     1.86409    0.00157     2.86565
      S    2   -0.13435      4.99999     3.13294    0.00142     8.13435
 =======================================================================
   * Total *   -0.00000      5.99998     4.99703    0.00299    11.00000

 Normal termination of Gaussian 16 at Mon Apr 21 19:45:44 2025.
