 Gaussian 16, Revision A.03,
 Gaussian 16:  ES64L-G16RevA.03 25-Dec-2016

 --------------------------------------------
 #p opt UM062X/6-311+G** nosymm int=superfine
 --------------------------------------------

 -------------------
 Title Card Required
 -------------------
 Symbolic Z-matrix:
 Charge =  0 Multiplicity = 1

 SCF Done:  E(UM062X) =  -114.118225209     A.U. after   16 cycles
 SCF Done:  E(UM062X) =  -114.118983164     A.U. after   10 cycles
 SCF Done:  E(UM062X) =  -114.119173590     A.U. after    9 cycles
 SCF Done:  E(UM062X) =  -114.119181906     A.U. after   13 cycles
 Optimization completed.
    -- Stationary point found.

                          Input orientation:
 ---------------------------------------------------------------------
 Center     Atomic      Atomic             Coordinates (Angstroms)
 Number     Number       Type             X           Y           Z
 ---------------------------------------------------------------------
      1          6           0       -1.323311    0.000000    0.000000
      2          8           0        1.323311    0.000000    0.000000
      3          1           0       -1.954951   -0.898426   -0.000054
      4          1           0       -1.954955    0.898423   -0.000053
 ---------------------------------------------------------------------

 Alpha  occ. eigenvalues --  -19.68188 -10.67671  -0.98766  -0.80442  -0.54037
 Alpha  occ. eigenvalues --   -0.37393  -0.37391  -0.36005
 Alpha virt. eigenvalues --   -0.12472  -0.11730   0.00802   0.05207   0.06989
 Alpha virt. eigenvalues --    0.07451   0.15554   0.16229   0.19405   0.22275
 Alpha virt. eigenvalues --    0.25206   0.30914   0.41802   0.44158   0.55030

  Beta  occ. eigenvalues --  -19.68188 -10.67671  -0.98766  -0.80442  -0.54037
  Beta  occ. eigenvalues --   -0.37393  -0.37391  -0.36005
  Beta virt. eigenvalues --   -0.12472  -0.11730   0.00802   0.05207   0.06989
  Beta virt. eigenvalues --    0.07451   0.15554   0.16229   0.19405   0.22275
  Beta virt. eigenvalues --    0.25206   0.30914   0.41802   0.44158   0.55030

 Mulliken charges and spin densities:
               1          2
     1  C   -0.196690   0.000000
     2  O   -0.153262   0.000000
     3  H    0.174976  -0.000000
     4  H    0.174976  -0.000000
 Sum of Mulliken charges =  -0.00000  -0.00000

 Dipole moment (field-independent basis, Debye):
    X=             -4.4715    Y=             -0.0000    Z=             -0.0001  Tot=              4.4715
 Quadrupole moment (field-independent basis, Debye-Ang):
   XX=             -7.4063   YY=            -12.6389   ZZ=            -12.5162
   XY=             -0.0000   XZ=             -0.0000   YZ=             -0.0000

 Normal termination of Gaussian 16 at Mon Apr 21 18:49:23 2025.
