 Gaussian 16, Revision A.03,
 Gaussian 16:  ES64L-G16RevA.03 25-Dec-2016

 --------------------------------------------
 #p opt UM062X/6-311+G** nosymm int=superfine
 --------------------------------------------

 -------------------
 Title Card Required
 -------------------
 Symbolic Z-matrix:
 Charge = -1 Multiplicity = 2

 SCF Done:  E(UM062X) =  -51.9355223441     A.U. after   11 cycles
 SCF Done:  E(UM062X) =  -51.9382333445     A.U. after    9 cycles
 SCF Done:  E(UM062X) =  -51.9392870058     A.U. after   10 cycles
 SCF Done:  E(UM062X) =  -51.9392948891     A.U. after   10 cycles
 SCF Done:  E(UM062X) =  -51.9392536070     A.U. after   12 cycles
 SCF Done:  E(UM062X) =  -51.9392920334     A.U. after   11 cycles
 SCF Done:  E(UM062X) =  -51.9392947668     A.U. after   10 cycles
 SCF Done:  E(UM062X) =  -51.9392952786     A.U. after    9 cycles
 Optimization completed.
    -- Stationary point found.

                          Input orientation:
 ---------------------------------------------------------------------
 Center     Atomic      Atomic             Coordinates (Angstroms)
 Number     Number       Type             X           Y           Z
 ---------------------------------------------------------------------
      1          5           0       -1.272274    0.000000    0.000000
      2          5           0        1.272274    0.000000    0.000000
      3          1           0       -1.841173   -1.053456    0.000270
      4          1           0        1.841173    1.053456   -0.000234
      5          1           0       -1.841173    1.053456   -0.000259
      6          1           0        1.841173   -1.053456    0.000246
 ---------------------------------------------------------------------

 Alpha  occ. eigenvalues --   -6.86235  -6.86228  -0.37153  -0.34769  -0.21961
 Alpha  occ. eigenvalues --   -0.20633  -0.05889   0.01189
 Alpha virt. eigenvalues --    0.14765   0.15575   0.16757   0.19197   0.19258
 Alpha virt. eigenvalues --    0.22467   0.22659   0.24486   0.25811   0.26335
 Alpha virt. eigenvalues --    0.33093   0.34896   0.36142   0.42411   0.50141

  Beta  occ. eigenvalues --   -6.86205  -6.86201  -0.35484  -0.33529  -0.21794
  Beta  occ. eigenvalues --   -0.20587  -0.04776
  Beta virt. eigenvalues --    0.10956   0.13864   0.14676   0.14817   0.16357
  Beta virt. eigenvalues --    0.17921   0.18914   0.20099   0.22397   0.26011
  Beta virt. eigenvalues --    0.28130   0.32137   0.34953   0.34998   0.42241

 Mulliken charges and spin densities:
               1          2
     1  B   -0.403402   0.545116
     2  B   -0.403402   0.545116
     3  H   -0.048299  -0.022558
     4  H   -0.048299  -0.022558
     5  H   -0.048299  -0.022558
     6  H   -0.048299  -0.022558
 Sum of Mulliken charges =  -1.00000   1.00000

 Dipole moment (field-independent basis, Debye):
    X=              0.0000    Y=             -0.0000    Z=              0.0000  Tot=              0.0000
 Quadrupole moment (field-independent basis, Debye-Ang):
   XX=            -31.1370   YY=            -23.4006   ZZ=            -25.0656
   XY=             -0.0000   XZ=             -0.0000   YZ=             -0.0004

 Normal termination of Gaussian 16 at Mon Apr 21 17:22:40 2025.
