 Gaussian 16, Revision A.03,
 Gaussian 16:  ES64L-G16RevA.03 25-Dec-2016

 --------------------------------------------
 #p opt UM062X/6-311+G** nosymm int=superfine
 --------------------------------------------

 -------------------
 Title Card Required
 -------------------
 Symbolic Z-matrix:
 Charge =  1 Multiplicity = 2

 SCF Done:  E(UM062X) =  -79.3228770999     A.U. after   10 cycles
 SCF Done:  E(UM062X) =  -79.3235700088     A.U. after    9 cycles
 SCF Done:  E(UM062X) =  -79.3235725554     A.U. after    8 cycles
 Optimization completed.
    -- Stationary point found.

                          Input orientation:
 ---------------------------------------------------------------------
 Center     Atomic      Atomic             Coordinates (Angstroms)
 Number     Number       Type             X           Y           Z
 ---------------------------------------------------------------------
      1          6           0       -1.811873    0.000000    0.000000
      2          6           0        1.811873    0.000000    0.000000
      3          1           0        1.845333   -0.937651    0.542685
      4          1           0       -1.843805   -0.938753   -0.540867
      5          1           0        1.844689    0.938845    0.540656
      6          1           0        1.843722   -0.001164   -1.083420
      7          1           0       -1.845380    0.937751   -0.542511
      8          1           0       -1.844560    0.000940    1.083396
 ---------------------------------------------------------------------

 Alpha  occ. eigenvalues --  -10.84133 -10.84131  -1.02703  -1.02140  -0.73665
 Alpha  occ. eigenvalues --   -0.73665  -0.73439  -0.73439  -0.49084
 Alpha virt. eigenvalues --   -0.37136  -0.13144  -0.10212  -0.09783  -0.09783
 Alpha virt. eigenvalues --   -0.06241  -0.06241  -0.04504  -0.03159  -0.00732
 Alpha virt. eigenvalues --   -0.00729   0.01285   0.01287   0.03362   0.08259

  Beta  occ. eigenvalues --  -10.83922 -10.83922  -1.00025  -0.99653  -0.73158
  Beta  occ. eigenvalues --   -0.73157  -0.72913  -0.72913
  Beta virt. eigenvalues --   -0.32757  -0.26486  -0.15934  -0.11098  -0.11098
  Beta virt. eigenvalues --   -0.10164  -0.06283  -0.06282  -0.04993  -0.02228
  Beta virt. eigenvalues --   -0.01069  -0.01066   0.01562   0.01564   0.03436

 Mulliken charges and spin densities:
               1          2
     1  C   -0.260793   0.559078
     2  C   -0.260791   0.559078
     3  H    0.253612  -0.019696
     4  H    0.253571  -0.019701
     5  H    0.253593  -0.019701
     6  H    0.253586  -0.019681
     7  H    0.253614  -0.019696
     8  H    0.253608  -0.019680
 Sum of Mulliken charges =   1.00000   1.00000

 Dipole moment (field-independent basis, Debye):
    X=              0.0000    Y=             -0.0000    Z=             -0.0001  Tot=              0.0001
 Quadrupole moment (field-independent basis, Debye-Ang):
   XX=              4.6038   YY=            -11.0952   ZZ=            -11.0953
   XY=             -0.0016   XZ=              0.0010   YZ=             -0.0000

 Normal termination of Gaussian 16 at Wed Nov 13 12:50:15 2024.
