 Gaussian 16, Revision A.03,
 Gaussian 16:  ES64L-G16RevA.03 25-Dec-2016

 --------------------------------------------
 #p opt UM062X/6-311+G** nosymm int=superfine
 --------------------------------------------

 -------------------
 Title Card Required
 -------------------
 Symbolic Z-matrix:
 Charge =  1 Multiplicity = 2

 SCF Done:  E(UM062X) =  -579.672346275     A.U. after   14 cycles
 SCF Done:  E(UM062X) =  -579.673053108     A.U. after   12 cycles
 SCF Done:  E(UM062X) =  -579.673628346     A.U. after   12 cycles
 SCF Done:  E(UM062X) =  -579.674771340     A.U. after   14 cycles
 SCF Done:  E(UM062X) =  -579.675317432     A.U. after   14 cycles
 SCF Done:  E(UM062X) =  -579.675624458     A.U. after   14 cycles
 SCF Done:  E(UM062X) =  -579.675759135     A.U. after   11 cycles
 SCF Done:  E(UM062X) =  -579.675779641     A.U. after   11 cycles
 SCF Done:  E(UM062X) =  -579.675781527     A.U. after   10 cycles
 SCF Done:  E(UM062X) =  -579.675783268     A.U. after   10 cycles
 SCF Done:  E(UM062X) =  -579.675786935     A.U. after   11 cycles
 SCF Done:  E(UM062X) =  -579.675790540     A.U. after   11 cycles
 SCF Done:  E(UM062X) =  -579.675791501     A.U. after   11 cycles
 Optimization completed.
    -- Stationary point found.

                          Input orientation:
 ---------------------------------------------------------------------
 Center     Atomic      Atomic             Coordinates (Angstroms)
 Number     Number       Type             X           Y           Z
 ---------------------------------------------------------------------
      1         14           0       -2.377975    0.000000    0.000000
      2         14           0        2.377975    0.000000    0.000000
      3          1           0       -2.495703   -1.503931    0.000000
      4          1           0        2.495140    1.503972    0.000000
 ---------------------------------------------------------------------

 Alpha  occ. eigenvalues --  -67.26041 -67.26041  -5.80213  -5.80213  -4.11313
 Alpha  occ. eigenvalues --   -4.11313  -4.11226  -4.11226  -4.10579  -4.10578
 Alpha  occ. eigenvalues --   -0.75032  -0.74678  -0.51777  -0.51613  -0.38966
 Alpha virt. eigenvalues --   -0.29756  -0.26923  -0.26416  -0.10511  -0.09155
 Alpha virt. eigenvalues --   -0.08299  -0.07696  -0.07466  -0.06409  -0.05490
 Alpha virt. eigenvalues --   -0.05400  -0.04784  -0.02352   0.12799   0.14456

  Beta  occ. eigenvalues --  -67.25786 -67.25786  -5.80141  -5.80140  -4.11164
  Beta  occ. eigenvalues --   -4.11164  -4.10624  -4.10624  -4.10480  -4.10480
  Beta  occ. eigenvalues --   -0.73213  -0.73055  -0.51142  -0.50969
  Beta virt. eigenvalues --   -0.27573  -0.26754  -0.26021  -0.23913  -0.14442
  Beta virt. eigenvalues --   -0.10854  -0.09083  -0.08244  -0.07891  -0.06434
  Beta virt. eigenvalues --   -0.05614  -0.05291  -0.05020  -0.02468   0.09325

 Mulliken charges and spin densities:
               1          2
     1  Si   0.584075   0.507945
     2  Si   0.584099   0.507926
     3  H   -0.084082  -0.007935
     4  H   -0.084092  -0.007936
 Sum of Mulliken charges =   1.00000   1.00000

 Dipole moment (field-independent basis, Debye):
    X=             -0.0001    Y=              0.0001    Z=              0.0000  Tot=              0.0001
 Quadrupole moment (field-independent basis, Debye-Ang):
   XX=              8.1316   YY=            -27.8161   ZZ=            -20.0189
   XY=              2.4422   XZ=             -0.0000   YZ=              0.0000

 Normal termination of Gaussian 16 at Mon Apr 21 20:44:22 2025.
