 Gaussian 16, Revision A.03,
 Gaussian 16:  ES64L-G16RevA.03 25-Dec-2016

 --------------------------------------------
 #p opt UM062X/6-311+G** nosymm int=superfine
 --------------------------------------------

 -------------------
 Title Card Required
 -------------------
 Symbolic Z-matrix:
 Charge =  1 Multiplicity = 2

 SCF Done:  E(UM062X) =  -580.935104643     A.U. after   11 cycles
 SCF Done:  E(UM062X) =  -580.935359679     A.U. after    8 cycles
 SCF Done:  E(UM062X) =  -580.935444764     A.U. after   10 cycles
 SCF Done:  E(UM062X) =  -580.935314265     A.U. after   10 cycles
 SCF Done:  E(UM062X) =  -580.935405322     A.U. after   10 cycles
 SCF Done:  E(UM062X) =  -580.935442362     A.U. after    9 cycles
 SCF Done:  E(UM062X) =  -580.935444632     A.U. after    8 cycles
 SCF Done:  E(UM062X) =  -580.935446702     A.U. after    8 cycles
 Optimization completed.
    -- Stationary point found.

                          Input orientation:
 ---------------------------------------------------------------------
 Center     Atomic      Atomic             Coordinates (Angstroms)
 Number     Number       Type             X           Y           Z
 ---------------------------------------------------------------------
      1         14           0       -1.416295    0.000000    0.000000
      2         14           0        1.416295    0.000000    0.000000
      3          1           0       -2.110451   -1.292965   -0.001191
      4          1           0        2.110450    1.292966    0.000068
      5          1           0       -2.110454    1.292963    0.001137
      6          1           0        2.110454   -1.292963   -0.000133
 ---------------------------------------------------------------------

 Alpha  occ. eigenvalues --  -67.26676 -67.26676  -5.81028  -5.81026  -4.12684
 Alpha  occ. eigenvalues --   -4.12682  -4.11987  -4.11979  -4.11850  -4.11849
 Alpha  occ. eigenvalues --   -0.82719  -0.79139  -0.64359  -0.63370  -0.54821
 Alpha  occ. eigenvalues --   -0.43758
 Alpha virt. eigenvalues --   -0.29616  -0.25576  -0.14501  -0.13413  -0.11430
 Alpha virt. eigenvalues --   -0.10896  -0.09234  -0.08977  -0.07924  -0.07125
 Alpha virt. eigenvalues --   -0.06987  -0.05691  -0.01586   0.02285   0.12190

  Beta  occ. eigenvalues --  -67.26386 -67.26386  -5.80943  -5.80942  -4.11972
  Beta  occ. eigenvalues --   -4.11971  -4.11921  -4.11912  -4.11744  -4.11743
  Beta  occ. eigenvalues --   -0.80753  -0.77708  -0.64312  -0.63460  -0.54060
  Beta virt. eigenvalues --   -0.29479  -0.24332  -0.23283  -0.14734  -0.14100
  Beta virt. eigenvalues --   -0.11971  -0.11143  -0.09367  -0.08981  -0.07483
  Beta virt. eigenvalues --   -0.06832  -0.06671  -0.03876  -0.03202   0.02103

 Mulliken charges and spin densities:
               1          2
     1  Si   0.436378   0.554082
     2  Si   0.436378   0.554083
     3  H    0.031811  -0.027041
     4  H    0.031811  -0.027041
     5  H    0.031811  -0.027041
     6  H    0.031811  -0.027041
 Sum of Mulliken charges =   1.00000   1.00000

 Dipole moment (field-independent basis, Debye):
    X=             -0.0000    Y=             -0.0000    Z=              0.0000  Tot=              0.0000
 Quadrupole moment (field-independent basis, Debye-Ang):
   XX=             -9.8367   YY=            -23.6034   ZZ=            -24.5255
   XY=             -0.0000   XZ=              0.0000   YZ=              0.0005

 Normal termination of Gaussian 16 at Mon Apr 21 20:23:17 2025.
