 Gaussian 16, Revision A.03,
 Gaussian 16:  ES64L-G16RevA.03 25-Dec-2016

 --------------------------------------------
 #p opt UM062X/6-311+G** nosymm int=superfine
 --------------------------------------------

 -------------------
 Title Card Required
 -------------------
 Symbolic Z-matrix:
 Charge =  1 Multiplicity = 2

 SCF Done:  E(UM062X) =  -580.864599518     A.U. after   11 cycles
 SCF Done:  E(UM062X) =  -580.871891181     A.U. after    9 cycles
 SCF Done:  E(UM062X) =  -580.873941743     A.U. after   12 cycles
 SCF Done:  E(UM062X) =  -580.873944425     A.U. after   10 cycles
 Optimization completed.
    -- Stationary point found.

                          Input orientation:
 ---------------------------------------------------------------------
 Center     Atomic      Atomic             Coordinates (Angstroms)
 Number     Number       Type             X           Y           Z
 ---------------------------------------------------------------------
      1         14           0       -2.291295    0.000000    0.000000
      2         14           0        2.291295    0.000000    0.000000
      3          1           0       -3.188649   -1.190658    0.000053
      4          1           0        3.188648    1.190658    0.001083
      5          1           0       -3.188663    1.190647   -0.000040
      6          1           0        3.188663   -1.190646   -0.001070
 ---------------------------------------------------------------------

 Alpha  occ. eigenvalues --  -67.24052 -67.24052  -5.78540  -5.78540  -4.09811
 Alpha  occ. eigenvalues --   -4.09811  -4.09490  -4.09490  -4.09147  -4.09146
 Alpha  occ. eigenvalues --   -0.78066  -0.77962  -0.59864  -0.59838  -0.49346
 Alpha  occ. eigenvalues --   -0.47394
 Alpha virt. eigenvalues --   -0.26942  -0.26391  -0.12422  -0.12005  -0.09244
 Alpha virt. eigenvalues --   -0.08294  -0.07865  -0.07090  -0.06711  -0.05925
 Alpha virt. eigenvalues --   -0.05764  -0.05739  -0.05447  -0.03452   0.12860

  Beta  occ. eigenvalues --  -67.23713 -67.23713  -5.78283  -5.78282  -4.09707
  Beta  occ. eigenvalues --   -4.09707  -4.09035  -4.09035  -4.08710  -4.08709
  Beta  occ. eigenvalues --   -0.76248  -0.75996  -0.58688  -0.58650  -0.42884
  Beta virt. eigenvalues --   -0.32970  -0.25758  -0.25060  -0.11411  -0.11293
  Beta virt. eigenvalues --   -0.09297  -0.07322  -0.06741  -0.06681  -0.06325
  Beta virt. eigenvalues --   -0.05873  -0.05515  -0.05265  -0.04968  -0.03018

 Mulliken charges and spin densities:
               1          2
     1  Si   0.561107   0.388317
     2  Si   0.561107   0.388317
     3  H   -0.030554   0.055841
     4  H   -0.030554   0.055841
     5  H   -0.030554   0.055842
     6  H   -0.030554   0.055842
 Sum of Mulliken charges =   1.00000   1.00000

 Dipole moment (field-independent basis, Debye):
    X=              0.0000    Y=              0.0000    Z=              0.0000  Tot=              0.0000
 Quadrupole moment (field-independent basis, Debye-Ang):
   XX=              5.0237   YY=            -25.8837   ZZ=            -20.8783
   XY=             -0.0000   XZ=              0.0000   YZ=             -0.0022

 Normal termination of Gaussian 16 at Mon Apr 21 20:27:19 2025.
