 Gaussian 16, Revision A.03,
 Gaussian 16:  ES64L-G16RevA.03 25-Dec-2016

 --------------------------------
 #p UM062X/6-311+G** Pop=NBO Read
 --------------------------------

 ------------
 NBO Analysis
 ------------
 Symbolic Z-matrix:
 Charge =  0 Multiplicity = 1

                         Standard orientation:
 ---------------------------------------------------------------------
 Center     Atomic      Atomic             Coordinates (Angstroms)
 Number     Number       Type             X           Y           Z
 ---------------------------------------------------------------------
      1          6           0       -1.021503   -0.000035   -0.000006
      2         16           0        0.582776   -0.000026   -0.000006
      3          1           0       -1.597150    0.924999   -0.000006
      4          1           0       -1.598254   -0.924377    0.000146
 ---------------------------------------------------------------------

 SCF Done:  E(UM062X) =  -437.403024114     A.U. after   10 cycles

 The electronic state is 1-A.
 Alpha  occ. eigenvalues --  -89.92798 -10.62559  -8.27450  -6.19446  -6.19365
 Alpha  occ. eigenvalues --   -6.18767  -0.89892  -0.68478  -0.53853  -0.45823
 Alpha  occ. eigenvalues --   -0.37984  -0.29089
 Alpha virt. eigenvalues --   -0.06071   0.01854   0.05299   0.06050   0.06687
 Alpha virt. eigenvalues --    0.08059   0.09994   0.11018   0.16397   0.19041
 Alpha virt. eigenvalues --    0.23241   0.24225   0.50098   0.53364   0.53491

  Beta  occ. eigenvalues --  -89.92798 -10.62559  -8.27450  -6.19446  -6.19365
  Beta  occ. eigenvalues --   -6.18767  -0.89892  -0.68478  -0.53853  -0.45823
  Beta  occ. eigenvalues --   -0.37984  -0.29089
  Beta virt. eigenvalues --   -0.06071   0.01854   0.05299   0.06050   0.06687
  Beta virt. eigenvalues --    0.08059   0.09994   0.11018   0.16397   0.19041
  Beta virt. eigenvalues --    0.23241   0.24225   0.50098   0.53364   0.53491

 Mulliken charges and spin densities:
               1          2
     1  C   -0.245503  -0.000000
     2  S   -0.085051   0.000000
     3  H    0.165279   0.000000
     4  H    0.165275  -0.000000
 Sum of Mulliken charges =  -0.00000   0.00000

 Dipole moment (field-independent basis, Debye):
    X=             -1.8241    Y=              0.0004    Z=              0.0001  Tot=              1.8241
 Quadrupole moment (field-independent basis, Debye-Ang):
   XX=            -17.4535   YY=            -20.5255   ZZ=            -19.8459
   XY=              0.0013   XZ=             -0.0001   YZ=              0.0001

 Summary of Natural Population Analysis:

                                       Natural Population
                Natural  -----------------------------------------------
    Atom  No    Charge         Core      Valence    Rydberg      Total
 -----------------------------------------------------------------------
      C    1   -0.27973      0.99986     2.26712    0.01275     3.27973
      S    2    0.04671      4.99952     2.93590    0.01787     7.95329
      H    3    0.11651      0.00000     0.38229    0.00120     0.38349
      H    4    0.11652      0.00000     0.38228    0.00120     0.38348
 =======================================================================
   * Total *    0.00000      5.99939     5.96759    0.03303    12.00000

 Normal termination of Gaussian 16 at Wed Apr 16 04:15:06 2025.
