 Gaussian 16, Revision A.03,
 Gaussian 16:  ES64L-G16RevA.03 25-Dec-2016

 -------------------------------------------------------------------
 #p opt UM062X/6-311+G** nosymm int=superfine SCF=NoVarAcc SCF=tight
 -------------------------------------------------------------------

 -------------------
 Title Card Required
 -------------------
 Symbolic Z-matrix:
 Charge =  1 Multiplicity = 2

 SCF Done:  E(UM062X) =  -79.3147595661     A.U. after   15 cycles
 SCF Done:  E(UM062X) =  -79.3148324500     A.U. after    9 cycles
 SCF Done:  E(UM062X) =  -79.3148539665     A.U. after    9 cycles
 SCF Done:  E(UM062X) =  -79.3148654308     A.U. after    9 cycles
 SCF Done:  E(UM062X) =  -79.3148661220     A.U. after    8 cycles
 Optimization completed.
    -- Stationary point found.

                          Input orientation:
 ---------------------------------------------------------------------
 Center     Atomic      Atomic             Coordinates (Angstroms)
 Number     Number       Type             X           Y           Z
 ---------------------------------------------------------------------
      1          6           0       -6.282675    0.000000    0.000000
      2          6           0        6.282675    0.000000    0.000000
      3          1           0        6.283855   -0.936698    0.542434
      4          1           0       -6.284573   -0.937679   -0.540741
      5          1           0        6.286681    0.938116    0.539965
      6          1           0        6.285439   -0.001422   -1.082419
      7          1           0       -6.286221    0.937166   -0.541601
      8          1           0       -6.285121    0.000343    1.082422
 ---------------------------------------------------------------------

 Alpha  occ. eigenvalues --  -10.78883 -10.78883  -0.97649  -0.97644  -0.68895
 Alpha  occ. eigenvalues --   -0.68894  -0.68893  -0.68892  -0.39306
 Alpha virt. eigenvalues --   -0.37016  -0.08586  -0.08581  -0.05074  -0.05074
 Alpha virt. eigenvalues --   -0.05073  -0.05073  -0.03036  -0.03022   0.04398
 Alpha virt. eigenvalues --    0.04399   0.04400   0.04401   0.04476   0.04482

  Beta  occ. eigenvalues --  -10.78640 -10.78640  -0.94979  -0.94979  -0.68321
  Beta  occ. eigenvalues --   -0.68320  -0.68319  -0.68318
  Beta virt. eigenvalues --   -0.23934  -0.23933  -0.09126  -0.09125  -0.04704
  Beta virt. eigenvalues --   -0.04704  -0.04704  -0.04704  -0.01078  -0.01066
  Beta virt. eigenvalues --    0.04695   0.04696   0.04696   0.04698   0.05933

 Mulliken charges and spin densities:
               1          2
     1  C   -0.191329   0.566890
     2  C   -0.191330   0.566890
     3  H    0.230439  -0.022297
     4  H    0.230438  -0.022297
     5  H    0.230448  -0.022297
     6  H    0.230443  -0.022297
     7  H    0.230451  -0.022296
     8  H    0.230440  -0.022297
 Sum of Mulliken charges =   1.00000   1.00000

 Dipole moment (field-independent basis, Debye):
    X=              0.0000    Y=             -0.0001    Z=              0.0000  Tot=              0.0001
 Quadrupole moment (field-independent basis, Debye-Ang):
   XX=            176.1852   YY=            -11.1269   ZZ=            -11.1274
   XY=              0.0015   XZ=             -0.0003   YZ=             -0.0003

 Normal termination of Gaussian 16 at Tue Dec  3 16:14:29 2024.
