 Gaussian 16, Revision A.03,
 Gaussian 16:  ES64L-G16RevA.03 25-Dec-2016

 --------------------------------
 #p UM062X/6-311+G** Pop=NBO Read
 --------------------------------

 ------------
 NBO Analysis
 ------------
 Symbolic Z-matrix:
 Charge =  0 Multiplicity = 3

                         Standard orientation:
 ---------------------------------------------------------------------
 Center     Atomic      Atomic             Coordinates (Angstroms)
 Number     Number       Type             X           Y           Z
 ---------------------------------------------------------------------
      1          5           0       -0.000000    0.000000    0.753410
      2          5           0        0.000000    0.000000   -0.753410
      3          1           0        0.000000    0.000000    1.925953
      4          1           0       -0.000000    0.000000   -1.925953
 ---------------------------------------------------------------------

 SCF Done:  E(UM062X) =  -50.7437352632     A.U. after    9 cycles

 The electronic state is 3-SG.
 Alpha  occ. eigenvalues --   -7.06657  -7.06506  -0.62021  -0.52011  -0.44431
 Alpha  occ. eigenvalues --   -0.27737  -0.27737
 Alpha virt. eigenvalues --    0.02425   0.02425   0.02669   0.03284   0.06667
 Alpha virt. eigenvalues --    0.06667   0.07832   0.10605   0.10605   0.13310
 Alpha virt. eigenvalues --    0.17806   0.28402   0.51223   0.51223   0.52819

  Beta  occ. eigenvalues --   -7.06404  -7.06244  -0.55720  -0.50263  -0.43520
  Beta virt. eigenvalues --   -0.07483  -0.07483   0.01456   0.03405   0.04364
  Beta virt. eigenvalues --    0.04364   0.05464   0.08647   0.08647   0.10825
  Beta virt. eigenvalues --    0.16117   0.16117   0.21271   0.30468   0.52778

 Mulliken charges and spin densities:
               1          2
     1  B   -0.011776   1.036168
     2  B   -0.011776   1.036168
     3  H    0.011776  -0.036168
     4  H    0.011776  -0.036168
 Sum of Mulliken charges =  -0.00000   2.00000

 Dipole moment (field-independent basis, Debye):
    X=              0.0000    Y=             -0.0000    Z=              0.0000  Tot=              0.0000
 Quadrupole moment (field-independent basis, Debye-Ang):
   XX=            -14.0319   YY=            -14.0319   ZZ=            -12.6519
   XY=             -0.0000   XZ=             -0.0000   YZ=              0.0000

 Summary of Natural Population Analysis:

                                       Natural Population
                Natural  -----------------------------------------------
    Atom  No    Charge         Core      Valence    Rydberg      Total
 -----------------------------------------------------------------------
      B    1    0.55994      0.99963     0.93846    0.00197     1.94006
      B    2    0.55994      0.99963     0.93846    0.00197     1.94006
      H    3   -0.05994      0.00000     0.55856    0.00137     0.55994
      H    4   -0.05994      0.00000     0.55856    0.00137     0.55994
 =======================================================================
   * Total *    1.00000      1.99927     2.99405    0.00669     5.00000

 Normal termination of Gaussian 16 at Wed Apr 16 00:05:44 2025.
