 Gaussian 16, Revision A.03,
 Gaussian 16:  ES64L-G16RevA.03 25-Dec-2016

 --------------------------------------------
 #p opt UM062X/6-311+G** nosymm int=superfine
 --------------------------------------------

 -------------------
 Title Card Required
 -------------------
 Symbolic Z-matrix:
 Charge =  0 Multiplicity = 1

 SCF Done:  E(UM062X) =  -114.095753349     A.U. after   14 cycles
 SCF Done:  E(UM062X) =  -114.097401492     A.U. after   10 cycles
 SCF Done:  E(UM062X) =  -114.097908653     A.U. after    9 cycles
 SCF Done:  E(UM062X) =  -114.097913980     A.U. after    8 cycles
 Optimization completed.
    -- Stationary point found.

                          Input orientation:
 ---------------------------------------------------------------------
 Center     Atomic      Atomic             Coordinates (Angstroms)
 Number     Number       Type             X           Y           Z
 ---------------------------------------------------------------------
      1          6           0       -1.573311    0.000000    0.000000
      2          8           0        1.573311    0.000000    0.000000
      3          1           0       -2.236208   -0.881340   -0.000003
      4          1           0       -2.236213    0.881336   -0.000003
 ---------------------------------------------------------------------

 Alpha  occ. eigenvalues --  -19.71888 -10.64814  -1.01890  -0.78586  -0.51396
 Alpha  occ. eigenvalues --   -0.40739  -0.40730  -0.34129
 Alpha virt. eigenvalues --   -0.15251  -0.10867   0.01295   0.05697   0.07527
 Alpha virt. eigenvalues --    0.08027   0.15581   0.17360   0.17972   0.20768
 Alpha virt. eigenvalues --    0.23311   0.27881   0.42819   0.45775   0.56493

  Beta  occ. eigenvalues --  -19.71888 -10.64814  -1.01890  -0.78586  -0.51396
  Beta  occ. eigenvalues --   -0.40739  -0.40730  -0.34129
  Beta virt. eigenvalues --   -0.15251  -0.10867   0.01295   0.05697   0.07527
  Beta virt. eigenvalues --    0.08027   0.15581   0.17360   0.17972   0.20768
  Beta virt. eigenvalues --    0.23311   0.27881   0.42819   0.45775   0.56493

 Mulliken charges and spin densities:
               1          2
     1  C   -0.245510  -0.000000
     2  O   -0.068953   0.000000
     3  H    0.157232   0.000000
     4  H    0.157232  -0.000000
 Sum of Mulliken charges =  -0.00000   0.00000

 Dipole moment (field-independent basis, Debye):
    X=             -3.5403    Y=             -0.0000    Z=             -0.0000  Tot=              3.5403
 Quadrupole moment (field-independent basis, Debye-Ang):
   XX=             -6.1760   YY=            -12.9240   ZZ=            -12.5058
   XY=              0.0000   XZ=              0.0000   YZ=             -0.0000

 Normal termination of Gaussian 16 at Mon Apr 21 18:50:03 2025.
