 Gaussian 16, Revision A.03,
 Gaussian 16:  ES64L-G16RevA.03 25-Dec-2016

 ---------------------------------------
 #p UM062X/6-311+G** force int=superfine
 ---------------------------------------

 -------------------
 Title Card Required
 -------------------
 Symbolic Z-matrix:
 Charge =  1 Multiplicity = 2

                         Standard orientation:
 ---------------------------------------------------------------------
 Center     Atomic      Atomic             Coordinates (Angstroms)
 Number     Number       Type             X           Y           Z
 ---------------------------------------------------------------------
      1          7           0        0.000000    0.000000    0.980391
      2          7           0        0.000000    0.000000   -0.980391
 ---------------------------------------------------------------------

 SCF Done:  E(UM062X) =  -108.590817905     A.U. after   10 cycles

 Unable to determine electronic state:  partially filled degenerate orbitals.
 Alpha  occ. eigenvalues --  -15.37552 -15.37532  -1.31760  -1.19545  -0.79320
 Alpha  occ. eigenvalues --   -0.76315  -0.73693
 Alpha virt. eigenvalues --   -0.56694  -0.54009  -0.44729  -0.13715  -0.09196
 Alpha virt. eigenvalues --   -0.08938  -0.08848  -0.03913  -0.03107  -0.02826
 Alpha virt. eigenvalues --    0.05915   0.43303   0.44990   0.50757   0.53693

  Beta  occ. eigenvalues --  -15.37111 -15.37096  -1.27869  -1.16185  -0.77491
  Beta  occ. eigenvalues --   -0.71930
  Beta virt. eigenvalues --   -0.52229  -0.52017  -0.45583  -0.42954  -0.15270
  Beta virt. eigenvalues --   -0.09689  -0.09324  -0.09231  -0.04653  -0.03268
  Beta virt. eigenvalues --   -0.03135   0.04535   0.45072   0.45242   0.50580

 Mulliken charges and spin densities:
               1          2
     1  N    0.500000   0.500000
     2  N    0.500000   0.500000
 Sum of Mulliken charges =   1.00000   1.00000

 Dipole moment (field-independent basis, Debye):
    X=              0.0000    Y=             -0.0000    Z=             -0.0000  Tot=              0.0000
 Quadrupole moment (field-independent basis, Debye-Ang):
   XX=             -9.8575   YY=             -8.4099   ZZ=             -4.2735
   XY=              0.0000   XZ=             -0.0000   YZ=             -0.0000

 Optimization completed.
    -- Stationary point found.
 Normal termination of Gaussian 16 at Wed Feb 26 13:43:45 2025.
