 Gaussian 16, Revision A.03,
 Gaussian 16:  ES64L-G16RevA.03 25-Dec-2016

 --------------------------------------------
 #p opt UM062X/6-311+G** nosymm int=superfine
 --------------------------------------------

 -------------------
 Title Card Required
 -------------------
 Symbolic Z-matrix:
 Charge =  0 Multiplicity = 1

 SCF Done:  E(UM062X) =  -474.350188299     A.U. after   32 cycles
 SCF Done:  E(UM062X) =  -474.350490945     A.U. after   24 cycles
 SCF Done:  E(UM062X) =  -474.351111161     A.U. after   40 cycles
 SCF Done:  E(UM062X) =  -474.351708447     A.U. after   28 cycles
 SCF Done:  E(UM062X) =  -474.351926884     A.U. after   19 cycles
 SCF Done:  E(UM062X) =  -474.352099767     A.U. after   44 cycles
 SCF Done:  E(UM062X) =  -474.352103187     A.U. after   21 cycles
 SCF Done:  E(UM062X) =  -474.352106133     A.U. after   25 cycles
 SCF Done:  E(UM062X) =  -474.352106419     A.U. after   17 cycles
 Optimization completed.
    -- Stationary point found.

                          Input orientation:
 ---------------------------------------------------------------------
 Center     Atomic      Atomic             Coordinates (Angstroms)
 Number     Number       Type             X           Y           Z
 ---------------------------------------------------------------------
      1          8           0       -2.039392    0.000000    0.000000
      2         16           0        2.039392    0.000000    0.000000
      3          1           0       -2.001674   -0.707602   -0.662556
      4          1           0        1.758080    0.793821    1.051698
 ---------------------------------------------------------------------

 Alpha  occ. eigenvalues --  -89.97727 -19.67042  -8.33934  -6.26134  -6.25784
 Alpha  occ. eigenvalues --   -6.25213  -1.08353  -0.83979  -0.52430  -0.49846
 Alpha  occ. eigenvalues --   -0.39659  -0.35895  -0.32634
 Alpha virt. eigenvalues --   -0.24013   0.01495   0.03894   0.04622   0.05262
 Alpha virt. eigenvalues --    0.06531   0.12461   0.19120   0.19680   0.21148
 Alpha virt. eigenvalues --    0.23989   0.30791   0.33945   0.35036   0.38834

  Beta  occ. eigenvalues --  -89.97727 -19.67042  -8.33934  -6.26134  -6.25784
  Beta  occ. eigenvalues --   -6.25213  -1.08353  -0.83979  -0.52430  -0.49846
  Beta  occ. eigenvalues --   -0.39659  -0.35895  -0.32634
  Beta virt. eigenvalues --   -0.24013   0.01495   0.03894   0.04622   0.05262
  Beta virt. eigenvalues --    0.06531   0.12461   0.19120   0.19680   0.21148
  Beta virt. eigenvalues --    0.23989   0.30791   0.33945   0.35036   0.38834

 Mulliken charges and spin densities:
               1          2
     1  O   -0.381672   0.000000
     2  S    0.031408  -0.000000
     3  H    0.246048  -0.000000
     4  H    0.104216  -0.000000
 Sum of Mulliken charges =  -0.00000  -0.00000

 Dipole moment (field-independent basis, Debye):
    X=              2.4999    Y=             -0.5812    Z=             -0.2645  Tot=              2.5801
 Quadrupole moment (field-independent basis, Debye-Ang):
   XX=            -18.9148   YY=            -19.9471   ZZ=            -18.9849
   XY=              4.0491   XZ=              4.3361   YZ=              3.2113

 Normal termination of Gaussian 16 at Thu May 15 13:46:22 2025.
