 Gaussian 16, Revision A.03,
 Gaussian 16:  ES64L-G16RevA.03 25-Dec-2016

 --------------------------------------------
 #p opt UM062X/6-311+G** nosymm int=superfine
 --------------------------------------------

 -------------------
 Title Card Required
 -------------------
 Symbolic Z-matrix:
 Charge =  0 Multiplicity = 1

 SCF Done:  E(UM062X) =  -115.458176082     A.U. after   27 cycles
 SCF Done:  E(UM062X) =  -115.474613336     A.U. after   16 cycles
 SCF Done:  E(UM062X) =  -115.503118182     A.U. after   19 cycles
 SCF Done:  E(UM062X) =  -115.564602426     A.U. after   12 cycles
 SCF Done:  E(UM062X) =  -115.534901128     A.U. after   13 cycles
 SCF Done:  E(UM062X) =  -115.567872995     A.U. after   11 cycles
 SCF Done:  E(UM062X) =  -115.567877977     A.U. after   10 cycles
 SCF Done:  E(UM062X) =  -115.567877978     A.U. after    4 cycles
 SCF Done:  E(UM062X) =  -115.567877978     A.U. after    1 cycles
 SCF Done:  E(UM062X) =  -115.571428898     A.U. after   10 cycles
 SCF Done:  E(UM062X) =  -115.702617723     A.U. after    9 cycles
 SCF Done:  E(UM062X) =  -115.702326176     A.U. after   11 cycles
 SCF Done:  E(UM062X) =  -115.703445961     A.U. after   10 cycles
 SCF Done:  E(UM062X) =  -115.701384595     A.U. after   11 cycles
 SCF Done:  E(UM062X) =  -115.702005934     A.U. after   10 cycles
 SCF Done:  E(UM062X) =  -115.703848602     A.U. after    8 cycles
 SCF Done:  E(UM062X) =  -115.704128848     A.U. after   10 cycles
 SCF Done:  E(UM062X) =  -115.704226984     A.U. after   10 cycles
 SCF Done:  E(UM062X) =  -115.704240012     A.U. after    9 cycles
 SCF Done:  E(UM062X) =  -115.704240361     A.U. after    8 cycles
 Optimization completed.
    -- Stationary point found.

                          Input orientation:
 ---------------------------------------------------------------------
 Center     Atomic      Atomic             Coordinates (Angstroms)
 Number     Number       Type             X           Y           Z
 ---------------------------------------------------------------------
      1          6           0       -0.690181    0.046984   -0.032631
      2          8           0        0.683363    0.369070   -0.133527
      3          1           0        1.199444   -0.361516    0.211551
      4          1           0       -0.948467   -0.840179   -0.620130
      5          1           0       -1.243831    0.895904   -0.431122
      6          1           0       -0.999540   -0.110365    1.005807
 ---------------------------------------------------------------------

 Alpha  occ. eigenvalues --  -19.62164 -10.57905  -1.14548  -0.77847  -0.58829
 Alpha  occ. eigenvalues --   -0.51814  -0.50096  -0.40966  -0.35464
 Alpha virt. eigenvalues --    0.01283   0.03399   0.05376   0.05545   0.16222
 Alpha virt. eigenvalues --    0.18041   0.19410   0.20038   0.22964   0.23386
 Alpha virt. eigenvalues --    0.24334   0.25438   0.33169   0.42935   0.45164

  Beta  occ. eigenvalues --  -19.62164 -10.57905  -1.14548  -0.77847  -0.58829
  Beta  occ. eigenvalues --   -0.51814  -0.50096  -0.40966  -0.35464
  Beta virt. eigenvalues --    0.01283   0.03399   0.05376   0.05545   0.16222
  Beta virt. eigenvalues --    0.18041   0.19410   0.20038   0.22964   0.23386
  Beta virt. eigenvalues --    0.24334   0.25438   0.33169   0.42935   0.45164

 Mulliken charges and spin densities:
               1          2
     1  C   -0.320080  -0.000000
     2  O   -0.371948  -0.000000
     3  H    0.260649   0.000000
     4  H    0.136396   0.000000
     5  H    0.158620  -0.000000
     6  H    0.136363   0.000000
 Sum of Mulliken charges =  -0.00000   0.00000

 Dipole moment (field-independent basis, Debye):
    X=             -0.7293    Y=             -1.6150    Z=              0.7031  Tot=              1.9064
 Quadrupole moment (field-independent basis, Debye-Ang):
   XX=            -12.3432   YY=            -13.6930   ZZ=            -13.7541
   XY=             -2.2514   XZ=              1.0541   YZ=             -0.1692

 Normal termination of Gaussian 16 at Wed Apr 16 02:46:58 2025.
