 Gaussian 16, Revision A.03,
 Gaussian 16:  ES64L-G16RevA.03 25-Dec-2016

 --------------------------------------------
 #p opt UM062X/6-311+G** nosymm int=superfine
 --------------------------------------------

 -------------------
 Title Card Required
 -------------------
 Symbolic Z-matrix:
 Charge =  0 Multiplicity = 1

 SCF Done:  E(UM062X) =  -81.6963187444     A.U. after   31 cycles
 SCF Done:  E(UM062X) =  -81.7043964926     A.U. after   15 cycles
 SCF Done:  E(UM062X) =  -81.7097712215     A.U. after   35 cycles
 SCF Done:  E(UM062X) =  -81.7246422190     A.U. after   18 cycles
 SCF Done:  E(UM062X) =  -81.7370278226     A.U. after   17 cycles
 SCF Done:  E(UM062X) =  -81.7301325094     A.U. after   15 cycles
 SCF Done:  E(UM062X) =  -81.7414293805     A.U. after   12 cycles
 SCF Done:  E(UM062X) =  -81.7423744169     A.U. after   14 cycles
 SCF Done:  E(UM062X) =  -81.7431676510     A.U. after   14 cycles
 SCF Done:  E(UM062X) =  -81.7432724448     A.U. after   14 cycles
 SCF Done:  E(UM062X) =  -81.7432755962     A.U. after   11 cycles
 SCF Done:  E(UM062X) =  -81.7432763858     A.U. after   19 cycles
 Optimization completed.
    -- Stationary point found.

                          Input orientation:
 ---------------------------------------------------------------------
 Center     Atomic      Atomic             Coordinates (Angstroms)
 Number     Number       Type             X           Y           Z
 ---------------------------------------------------------------------
      1          5           0       -1.770399    0.000000    0.000000
      2          7           0        1.770399    0.000000    0.000000
      3          1           0       -2.107229   -1.122043    0.025655
      4          1           0        1.765843    0.802661   -0.637849
      5          1           0       -2.107231    1.122045    0.025577
      6          1           0        1.765843   -0.802694   -0.637807
 ---------------------------------------------------------------------

 Alpha  occ. eigenvalues --  -14.71749  -7.18324  -0.87390  -0.62962  -0.51578
 Alpha  occ. eigenvalues --   -0.48060  -0.33322  -0.23862
 Alpha virt. eigenvalues --   -0.10442  -0.08757   0.00730   0.02731   0.04158
 Alpha virt. eigenvalues --    0.05033   0.09508   0.11722   0.13613   0.17407
 Alpha virt. eigenvalues --    0.20163   0.20654   0.21648   0.28054   0.32420

  Beta  occ. eigenvalues --  -14.71749  -7.18324  -0.87390  -0.62962  -0.51578
  Beta  occ. eigenvalues --   -0.48060  -0.33322  -0.23862
  Beta virt. eigenvalues --   -0.10442  -0.08757   0.00730   0.02731   0.04158
  Beta virt. eigenvalues --    0.05033   0.09508   0.11722   0.13613   0.17407
  Beta virt. eigenvalues --    0.20163   0.20654   0.21648   0.28054   0.32420

 Mulliken charges and spin densities:
               1          2
     1  B    0.158612   0.000000
     2  N   -0.701486  -0.000000
     3  H    0.066315   0.000000
     4  H    0.205121   0.000000
     5  H    0.066315   0.000000
     6  H    0.205121   0.000000
 Sum of Mulliken charges =  -0.00000   0.00000

 Dipole moment (field-independent basis, Debye):
    X=             -5.1544    Y=             -0.0000    Z=             -1.8614  Tot=              5.4802
 Quadrupole moment (field-independent basis, Debye-Ang):
   XX=            -13.9837   YY=            -13.4439   ZZ=            -14.5785
   XY=             -0.0001   XZ=             -3.5907   YZ=             -0.0000

 Normal termination of Gaussian 16 at Mon Apr 21 17:49:37 2025.
