 Gaussian 16, Revision A.03,
 Gaussian 16:  ES64L-G16RevA.03 25-Dec-2016

 --------------------------------------------
 #p opt UM062X/6-311+G** nosymm int=superfine
 --------------------------------------------

 -------------------
 Title Card Required
 -------------------
 Symbolic Z-matrix:
 Charge =  0 Multiplicity = 1

 SCF Done:  E(UM062X) =  -110.307058381     A.U. after   13 cycles
 SCF Done:  E(UM062X) =  -110.319386063     A.U. after   11 cycles
 SCF Done:  E(UM062X) =  -110.322525755     A.U. after   11 cycles
 SCF Done:  E(UM062X) =  -110.322529147     A.U. after    9 cycles
 Optimization completed.
    -- Stationary point found.

                          Input orientation:
 ---------------------------------------------------------------------
 Center     Atomic      Atomic             Coordinates (Angstroms)
 Number     Number       Type             X           Y           Z
 ---------------------------------------------------------------------
      1          7           0       -1.165428    0.000000    0.000000
      2          7           0        1.165428    0.000000    0.000000
      3          1           0       -1.072769   -1.031817    0.000000
      4          1           0        1.072769    1.031817    0.000000
 ---------------------------------------------------------------------

 Alpha  occ. eigenvalues --  -14.88591 -14.88584  -0.94583  -0.89947  -0.49854
 Alpha  occ. eigenvalues --   -0.47558  -0.36925  -0.32892
 Alpha virt. eigenvalues --   -0.17859  -0.12200   0.05724   0.07792   0.10675
 Alpha virt. eigenvalues --    0.12279   0.13246   0.14830   0.16080   0.19279
 Alpha virt. eigenvalues --    0.20135   0.24830   0.53265   0.56236   0.75621

  Beta  occ. eigenvalues --  -14.88591 -14.88584  -0.94583  -0.89947  -0.49854
  Beta  occ. eigenvalues --   -0.47558  -0.36925  -0.32892
  Beta virt. eigenvalues --   -0.17859  -0.12200   0.05724   0.07792   0.10675
  Beta virt. eigenvalues --    0.12279   0.13246   0.14830   0.16080   0.19279
  Beta virt. eigenvalues --    0.20135   0.24830   0.53265   0.56236   0.75621

 Mulliken charges and spin densities:
               1          2
     1  N   -0.247460   0.000000
     2  N   -0.247460  -0.000000
     3  H    0.247460  -0.000000
     4  H    0.247460   0.000000
 Sum of Mulliken charges =  -0.00000   0.00000

 Dipole moment (field-independent basis, Debye):
    X=              0.0000    Y=             -0.0000    Z=              0.0000  Tot=              0.0000
 Quadrupole moment (field-independent basis, Debye-Ang):
   XX=            -13.6670   YY=            -10.8815   ZZ=            -14.0695
   XY=              4.2177   XZ=             -0.0000   YZ=             -0.0000

 Normal termination of Gaussian 16 at Thu May 15 15:36:04 2025.
