 Gaussian 16, Revision A.03,
 Gaussian 16:  ES64L-G16RevA.03 25-Dec-2016

 --------------------------------------------
 #p opt UM062X/6-311+G** nosymm int=superfine
 --------------------------------------------

 -------------------
 Title Card Required
 -------------------
 Symbolic Z-matrix:
 Charge =  1 Multiplicity = 2

 SCF Done:  E(UM062X) =  -379.300203850     A.U. after   22 cycles
 SCF Done:  E(UM062X) =  -379.300938478     A.U. after   18 cycles
 SCF Done:  E(UM062X) =  -379.300939827     A.U. after   13 cycles
 Optimization completed.
    -- Stationary point found.

                          Input orientation:
 ---------------------------------------------------------------------
 Center     Atomic      Atomic             Coordinates (Angstroms)
 Number     Number       Type             X           Y           Z
 ---------------------------------------------------------------------
      1          6           0       -1.869427    0.000000    0.000000
      2         15           0        1.869427    0.000000    0.000000
      3          1           0       -2.989592    0.000000   -0.000000
 ---------------------------------------------------------------------

 Alpha  occ. eigenvalues --  -78.32926 -10.97339  -7.14442  -5.26579  -5.26222
 Alpha  occ. eigenvalues --   -5.25195  -0.99381  -0.86163  -0.65572  -0.51762
 Alpha  occ. eigenvalues --   -0.46268
 Alpha virt. eigenvalues --   -0.38261  -0.34925  -0.34371  -0.13313  -0.09759
 Alpha virt. eigenvalues --   -0.08577  -0.08245  -0.06568  -0.05575  -0.05181
 Alpha virt. eigenvalues --   -0.02398   0.00257   0.16420   0.16488   0.16698

  Beta  occ. eigenvalues --  -78.32174 -10.97295  -7.14215  -5.26008  -5.25060
  Beta  occ. eigenvalues --   -5.24286  -0.99153  -0.81004  -0.65387  -0.45268
  Beta virt. eigenvalues --   -0.37156  -0.34777  -0.33103  -0.29373  -0.13767
  Beta virt. eigenvalues --   -0.10783  -0.08477  -0.08249  -0.06531  -0.05220
  Beta virt. eigenvalues --   -0.04859  -0.02727   0.00065   0.14075   0.15422

 Mulliken charges and spin densities:
               1          2
     1  C    0.231840   0.053642
     2  P    0.519117   0.948506
     3  H    0.249043  -0.002149
 Sum of Mulliken charges =   1.00000   1.00000

 Dipole moment (field-independent basis, Debye):
    X=             -1.8386    Y=             -0.0000    Z=             -0.0000  Tot=              1.8386
 Quadrupole moment (field-independent basis, Debye-Ang):
   XX=             11.8243   YY=            -18.9497   ZZ=            -17.6583
   XY=              0.0000   XZ=              0.0000   YZ=              1.4433

 Normal termination of Gaussian 16 at Mon Apr 21 19:27:52 2025.
