 Gaussian 16, Revision A.03,
 Gaussian 16:  ES64L-G16RevA.03 25-Dec-2016

 ---------------------------------------------------------
 #p opt UM062X/6-311+G** nosymm int=superfine SCF=NoVarAcc
 ---------------------------------------------------------

 -------------------
 Title Card Required
 -------------------
 Symbolic Z-matrix:
 Charge =  1 Multiplicity = 2

 SCF Done:  E(UM062X) =  -77.8967506428     A.U. after   10 cycles
 SCF Done:  E(UM062X) =  -77.9007109456     A.U. after    9 cycles
 SCF Done:  E(UM062X) =  -77.9033291699     A.U. after   10 cycles
 SCF Done:  E(UM062X) =  -77.9033326323     A.U. after    8 cycles
 Optimization completed.
    -- Stationary point found.

                          Input orientation:
 ---------------------------------------------------------------------
 Center     Atomic      Atomic             Coordinates (Angstroms)
 Number     Number       Type             X           Y           Z
 ---------------------------------------------------------------------
      1          6           0       -2.181027    0.000000    0.000000
      2          6           0        2.181027    0.000000    0.000000
      3          1           0       -2.740649   -0.942409   -0.000000
      4          1           0       -2.740590    0.942444   -0.000000
      5          1           0        2.740649    0.942409    0.000000
      6          1           0        2.740590   -0.942444    0.000000
 ---------------------------------------------------------------------

 Alpha  occ. eigenvalues --  -10.88043 -10.88043  -0.99414  -0.99389  -0.74091
 Alpha  occ. eigenvalues --   -0.74076  -0.57385  -0.56669
 Alpha virt. eigenvalues --   -0.31265  -0.31071  -0.12439  -0.10723  -0.08706
 Alpha virt. eigenvalues --   -0.06820  -0.06187  -0.06029  -0.04052  -0.01200
 Alpha virt. eigenvalues --   -0.00024   0.00638   0.02427   0.04857   0.27695

  Beta  occ. eigenvalues --  -10.87272 -10.87271  -0.97253  -0.97128  -0.73069
  Beta  occ. eigenvalues --   -0.73048  -0.45587
  Beta virt. eigenvalues --   -0.36704  -0.29505  -0.29249  -0.12184  -0.10874
  Beta virt. eigenvalues --   -0.08544  -0.06647  -0.06357  -0.04373  -0.04165
  Beta virt. eigenvalues --   -0.01038   0.00743   0.00958   0.02557   0.05547

 Mulliken charges and spin densities:
               1          2
     1  C    0.025747   0.486141
     2  C    0.025747   0.486141
     3  H    0.237127   0.006929
     4  H    0.237126   0.006929
     5  H    0.237127   0.006929
     6  H    0.237126   0.006929
 Sum of Mulliken charges =   1.00000   1.00000

 Dipole moment (field-independent basis, Debye):
    X=             -0.0000    Y=             -0.0000    Z=             -0.0000  Tot=              0.0000
 Quadrupole moment (field-independent basis, Debye-Ang):
   XX=             24.9313   YY=             -9.4533   ZZ=            -10.7284
   XY=             -0.0001   XZ=              0.0000   YZ=              0.0000

 Normal termination of Gaussian 16 at Tue Dec  3 13:36:10 2024.
