 Gaussian 16, Revision A.03,
 Gaussian 16:  ES64L-G16RevA.03 25-Dec-2016

 --------------------------------------------
 #p opt UM062X/6-311+G** nosymm int=superfine
 --------------------------------------------

 -------------------
 Title Card Required
 -------------------
 Symbolic Z-matrix:
 Charge =  1 Multiplicity = 2

 SCF Done:  E(UM062X) =  -78.1591371042     A.U. after    9 cycles
 SCF Done:  E(UM062X) =  -78.1656710997     A.U. after    8 cycles
 SCF Done:  E(UM062X) =  -78.1662982768     A.U. after    8 cycles
 SCF Done:  E(UM062X) =  -78.1663155331     A.U. after    6 cycles
 Optimization completed.
    -- Stationary point found.

                          Input orientation:
 ---------------------------------------------------------------------
 Center     Atomic      Atomic             Coordinates (Angstroms)
 Number     Number       Type             X           Y           Z
 ---------------------------------------------------------------------
      1          6           0       -0.791719    0.000000    0.000000
      2          6           0        0.791719    0.000000    0.000000
      3          1           0       -1.317138   -0.949586   -0.000000
      4          1           0       -1.317202    0.949553   -0.000000
      5          1           0        1.317138    0.949586    0.000000
      6          1           0        1.317202   -0.949553   -0.000000
 ---------------------------------------------------------------------

 Alpha  occ. eigenvalues --  -10.90699 -10.90658  -1.13829  -0.98516  -0.83051
 Alpha  occ. eigenvalues --   -0.76025  -0.74675  -0.62902
 Alpha virt. eigenvalues --   -0.32113  -0.14561  -0.13456  -0.11775  -0.09218
 Alpha virt. eigenvalues --   -0.07582  -0.07106  -0.04657  -0.04589  -0.03011
 Alpha virt. eigenvalues --   -0.01999  -0.01011   0.03510   0.10180   0.19361

  Beta  occ. eigenvalues --  -10.90474 -10.90444  -1.10193  -0.96506  -0.82148
  Beta  occ. eigenvalues --   -0.74965  -0.74331
  Beta virt. eigenvalues --   -0.39696  -0.24461  -0.16266  -0.13075  -0.12064
  Beta virt. eigenvalues --   -0.09464  -0.08353  -0.07153  -0.04680  -0.03948
  Beta virt. eigenvalues --   -0.02260  -0.01429   0.00103   0.03492   0.10667

 Mulliken charges and spin densities:
               1          2
     1  C   -0.058134   0.538811
     2  C   -0.058134   0.538811
     3  H    0.279064  -0.019406
     4  H    0.279070  -0.019405
     5  H    0.279064  -0.019406
     6  H    0.279070  -0.019405
 Sum of Mulliken charges =   1.00000   1.00000

 Dipole moment (field-independent basis, Debye):
    X=              0.0000    Y=              0.0000    Z=             -0.0000  Tot=              0.0000
 Quadrupole moment (field-independent basis, Debye-Ang):
   XX=             -4.7335   YY=             -8.3956   ZZ=            -11.8392
   XY=             -0.0002   XZ=              0.0000   YZ=              0.0000

 Normal termination of Gaussian 16 at Tue Nov 19 11:05:09 2024.
