 Gaussian 16, Revision A.03,
 Gaussian 16:  ES64L-G16RevA.03 25-Dec-2016

 --------------------------------------------
 #p opt UM062X/6-311+G** nosymm int=superfine
 --------------------------------------------

 -------------------
 Title Card Required
 -------------------
 Symbolic Z-matrix:
 Charge =  0 Multiplicity = 1

 SCF Done:  E(UM062X) =  -379.654932166     A.U. after   14 cycles
 SCF Done:  E(UM062X) =  -379.655752488     A.U. after   10 cycles
 SCF Done:  E(UM062X) =  -379.655753774     A.U. after    9 cycles
 Optimization completed.
    -- Stationary point found.

                          Input orientation:
 ---------------------------------------------------------------------
 Center     Atomic      Atomic             Coordinates (Angstroms)
 Number     Number       Type             X           Y           Z
 ---------------------------------------------------------------------
      1          6           0       -1.340377    0.000000    0.000000
      2         15           0        1.340377    0.000000    0.000000
      3          1           0       -2.450486    0.000000    0.000000
 ---------------------------------------------------------------------

 Alpha  occ. eigenvalues --  -78.10262 -10.70030  -6.91837  -5.03528  -5.02910
 Alpha  occ. eigenvalues --   -5.02910  -0.75025  -0.62665  -0.41622  -0.26287
 Alpha  occ. eigenvalues --   -0.26287
 Alpha virt. eigenvalues --   -0.12822  -0.12822  -0.09994   0.01513   0.03956
 Alpha virt. eigenvalues --    0.05715   0.05715   0.07376   0.09500   0.09500
 Alpha virt. eigenvalues --    0.15038   0.19538   0.30874   0.32732   0.32732

  Beta  occ. eigenvalues --  -78.10262 -10.70030  -6.91837  -5.03528  -5.02910
  Beta  occ. eigenvalues --   -5.02910  -0.75025  -0.62665  -0.41622  -0.26287
  Beta  occ. eigenvalues --   -0.26287
  Beta virt. eigenvalues --   -0.12822  -0.12822  -0.09994   0.01513   0.03956
  Beta virt. eigenvalues --    0.05715   0.05715   0.07376   0.09500   0.09500
  Beta virt. eigenvalues --    0.15038   0.19538   0.30874   0.32732   0.32732

 Mulliken charges and spin densities:
               1          2
     1  C   -0.295798   0.000000
     2  P    0.089033  -0.000000
     3  H    0.206765  -0.000000
 Sum of Mulliken charges =  -0.00000   0.00000

 Dipole moment (field-independent basis, Debye):
    X=             -1.1448    Y=              0.0000    Z=              0.0000  Tot=              1.1448
 Quadrupole moment (field-independent basis, Debye-Ang):
   XX=            -11.4967   YY=            -23.5330   ZZ=            -23.5330
   XY=              0.0000   XZ=              0.0000   YZ=              0.0000

 Normal termination of Gaussian 16 at Mon Apr 21 19:24:26 2025.
