 Gaussian 16, Revision A.03,
 Gaussian 16:  ES64L-G16RevA.03 25-Dec-2016

 --------------------------------------------
 #p opt UM062X/6-311+G** nosymm int=superfine
 --------------------------------------------

 -------------------
 Title Card Required
 -------------------
 Symbolic Z-matrix:
 Charge =  0 Multiplicity = 1

 SCF Done:  E(UM062X) =  -110.162821027     A.U. after   13 cycles
 SCF Done:  E(UM062X) =  -110.164024276     A.U. after   14 cycles
 SCF Done:  E(UM062X) =  -110.166879636     A.U. after   18 cycles
 SCF Done:  E(UM062X) =  -110.168400846     A.U. after   19 cycles
 SCF Done:  E(UM062X) =  -110.168450695     A.U. after   15 cycles
 SCF Done:  E(UM062X) =  -110.168458430     A.U. after   14 cycles
 SCF Done:  E(UM062X) =  -110.168458493     A.U. after   12 cycles
 Optimization completed.
    -- Stationary point found.

                          Input orientation:
 ---------------------------------------------------------------------
 Center     Atomic      Atomic             Coordinates (Angstroms)
 Number     Number       Type             X           Y           Z
 ---------------------------------------------------------------------
      1          7           0       -1.840428    0.000000    0.000000
      2          7           0        1.840428    0.000000    0.000000
      3          1           0       -1.600444   -1.011301   -0.000000
      4          1           0        1.600443    1.011301   -0.000000
 ---------------------------------------------------------------------

 Alpha  occ. eigenvalues --  -14.88370 -14.88368  -0.92772  -0.92343  -0.49057
 Alpha  occ. eigenvalues --   -0.48840  -0.30700  -0.29806
 Alpha virt. eigenvalues --   -0.21843  -0.20785   0.04887   0.06910   0.10806
 Alpha virt. eigenvalues --    0.11346   0.13023   0.14421   0.15231   0.17366
 Alpha virt. eigenvalues --    0.18779   0.22647   0.53183   0.54579   0.74882

  Beta  occ. eigenvalues --  -14.88370 -14.88368  -0.92772  -0.92343  -0.49057
  Beta  occ. eigenvalues --   -0.48840  -0.30700  -0.29806
  Beta virt. eigenvalues --   -0.21843  -0.20785   0.04887   0.06910   0.10806
  Beta virt. eigenvalues --    0.11346   0.13023   0.14421   0.15231   0.17366
  Beta virt. eigenvalues --    0.18779   0.22647   0.53183   0.54579   0.74882

 Mulliken charges and spin densities:
               1          2
     1  N   -0.234171   0.000000
     2  N   -0.234171  -0.000000
     3  H    0.234171  -0.000000
     4  H    0.234171   0.000000
 Sum of Mulliken charges =  -0.00000  -0.00000

 Dipole moment (field-independent basis, Debye):
    X=             -0.0000    Y=             -0.0000    Z=             -0.0000  Tot=              0.0000
 Quadrupole moment (field-independent basis, Debye-Ang):
   XX=            -15.2818   YY=            -11.3211   ZZ=            -14.1902
   XY=              6.0382   XZ=              0.0000   YZ=              0.0000

 Normal termination of Gaussian 16 at Thu May 15 15:44:17 2025.
