 Gaussian 16, Revision A.03,
 Gaussian 16:  ES64L-G16RevA.03 25-Dec-2016

 --------------------------------------------
 #p opt UM062X/6-311+G** nosymm int=superfine
 --------------------------------------------

 -------------------
 Title Card Required
 -------------------
 Symbolic Z-matrix:
 Charge =  0 Multiplicity = 1

 SCF Done:  E(UM062X) =  -683.592952174     A.U. after   11 cycles
 SCF Done:  E(UM062X) =  -683.593290764     A.U. after   10 cycles
 SCF Done:  E(UM062X) =  -683.593800315     A.U. after   11 cycles
 SCF Done:  E(UM062X) =  -683.593877177     A.U. after   14 cycles
 SCF Done:  E(UM062X) =  -683.593877216     A.U. after   10 cycles
 Optimization completed.
    -- Stationary point found.

                          Input orientation:
 ---------------------------------------------------------------------
 Center     Atomic      Atomic             Coordinates (Angstroms)
 Number     Number       Type             X           Y           Z
 ---------------------------------------------------------------------
      1         15           0       -2.134490    0.000000    0.000000
      2         15           0        2.134490    0.000000    0.000000
      3          1           0       -1.997576   -1.417033   -0.000000
      4          1           0        1.997576    1.417033   -0.000000
 ---------------------------------------------------------------------

 Alpha  occ. eigenvalues --  -78.08410 -78.08410  -6.90450  -6.90450  -5.01860
 Alpha  occ. eigenvalues --   -5.01860  -5.01842  -5.01842  -5.01663  -5.01663
 Alpha  occ. eigenvalues --   -0.68659  -0.68082  -0.40577  -0.40454  -0.25531
 Alpha  occ. eigenvalues --   -0.24044
 Alpha virt. eigenvalues --   -0.17056  -0.15479   0.01923   0.03034   0.03704
 Alpha virt. eigenvalues --    0.04497   0.05560   0.05946   0.06423   0.07548
 Alpha virt. eigenvalues --    0.08393   0.11526   0.28376   0.29381   0.30435

  Beta  occ. eigenvalues --  -78.08410 -78.08410  -6.90450  -6.90450  -5.01860
  Beta  occ. eigenvalues --   -5.01860  -5.01842  -5.01842  -5.01663  -5.01663
  Beta  occ. eigenvalues --   -0.68659  -0.68082  -0.40577  -0.40454  -0.25531
  Beta  occ. eigenvalues --   -0.24044
  Beta virt. eigenvalues --   -0.17056  -0.15479   0.01923   0.03034   0.03704
  Beta virt. eigenvalues --    0.04497   0.05560   0.05946   0.06423   0.07548
  Beta virt. eigenvalues --    0.08393   0.11526   0.28376   0.29381   0.30435

 Mulliken charges and spin densities:
               1          2
     1  P    0.010159   0.000001
     2  P    0.010159  -0.000001
     3  H   -0.010159  -0.000000
     4  H   -0.010159   0.000000
 Sum of Mulliken charges =  -0.00000   0.00000

 Dipole moment (field-independent basis, Debye):
    X=              0.0000    Y=              0.0000    Z=             -0.0000  Tot=              0.0000
 Quadrupole moment (field-independent basis, Debye-Ang):
   XX=            -26.8724   YY=            -28.5005   ZZ=            -30.8062
   XY=              3.3068   XZ=              0.0000   YZ=              0.0000

 Normal termination of Gaussian 16 at Mon Apr 21 21:13:34 2025.
