 Gaussian 16, Revision A.03,
 Gaussian 16:  ES64L-G16RevA.03 25-Dec-2016

 ---------------------------------------
 #p UM062X/6-311+G** force int=superfine
 ---------------------------------------

 -------------------
 Title Card Required
 -------------------
 Symbolic Z-matrix:
 Charge =  0 Multiplicity = 1

                         Standard orientation:
 ---------------------------------------------------------------------
 Center     Atomic      Atomic             Coordinates (Angstroms)
 Number     Number       Type             X           Y           Z
 ---------------------------------------------------------------------
      1          6           0       -0.000000    0.755674    0.000000
      2          6           0       -0.000000   -0.755674    0.000000
      3          1           0       -0.938740    1.292062    0.000000
      4          1           0        0.938692    1.292156    0.000000
      5          1           0        0.938740   -1.292062    0.000000
      6          1           0       -0.938692   -1.292156    0.000000
 ---------------------------------------------------------------------

 SCF Done:  E(UM062X) =  -78.5349374384     A.U. after    8 cycles

 The electronic state is 1-AG.
 Alpha  occ. eigenvalues --  -10.56569 -10.56521  -0.82480  -0.67972  -0.53451
 Alpha  occ. eigenvalues --   -0.45744  -0.44710  -0.30713
 Alpha virt. eigenvalues --   -0.00254   0.03387   0.03868   0.05288   0.07908
 Alpha virt. eigenvalues --    0.08182   0.09717   0.12360   0.15922   0.17020
 Alpha virt. eigenvalues --    0.20552   0.21847   0.29900   0.30171   0.42416

  Beta  occ. eigenvalues --  -10.56569 -10.56521  -0.82480  -0.67972  -0.53451
  Beta  occ. eigenvalues --   -0.45744  -0.44710  -0.30713
  Beta virt. eigenvalues --   -0.00254   0.03387   0.03868   0.05288   0.07908
  Beta virt. eigenvalues --    0.08182   0.09717   0.12360   0.15922   0.17020
  Beta virt. eigenvalues --    0.20552   0.21847   0.29900   0.30171   0.42416

 Mulliken charges and spin densities:
               1          2
     1  C   -0.317231  -0.000000
     2  C   -0.317231  -0.000000
     3  H    0.158613   0.000000
     4  H    0.158618   0.000000
     5  H    0.158613   0.000000
     6  H    0.158618   0.000000
 Sum of Mulliken charges =   0.00000  -0.00000

 Dipole moment (field-independent basis, Debye):
    X=             -0.0000    Y=             -0.0000    Z=              0.0000  Tot=              0.0000
 Quadrupole moment (field-independent basis, Debye-Ang):
   XX=            -12.2697   YY=            -12.0490   ZZ=            -16.6566
   XY=              0.0002   XZ=              0.0000   YZ=              0.0000

 Normal termination of Gaussian 16 at Tue Nov 19 11:45:41 2024.
