 Gaussian 16, Revision A.03,
 Gaussian 16:  ES64L-G16RevA.03 25-Dec-2016

 --------------------------------------------
 #p opt UM062X/6-311+G** nosymm int=superfine
 --------------------------------------------

 -------------------
 Title Card Required
 -------------------
 Symbolic Z-matrix:
 Charge = -1 Multiplicity = 2

 SCF Done:  E(UM062X) =  -51.9559313810     A.U. after   11 cycles
 SCF Done:  E(UM062X) =  -51.9580072473     A.U. after    9 cycles
 SCF Done:  E(UM062X) =  -51.9587544964     A.U. after   10 cycles
 SCF Done:  E(UM062X) =  -51.9587590761     A.U. after   10 cycles
 SCF Done:  E(UM062X) =  -51.9586914851     A.U. after   12 cycles
 SCF Done:  E(UM062X) =  -51.9587591843     A.U. after   12 cycles
 SCF Done:  E(UM062X) =  -51.9587598482     A.U. after    9 cycles
 Optimization completed.
    -- Stationary point found.

                          Input orientation:
 ---------------------------------------------------------------------
 Center     Atomic      Atomic             Coordinates (Angstroms)
 Number     Number       Type             X           Y           Z
 ---------------------------------------------------------------------
      1          5           0       -1.197274    0.000000    0.000000
      2          5           0        1.197274    0.000000    0.000000
      3          1           0       -1.781356   -1.047827    0.000189
      4          1           0        1.781356    1.047827   -0.000312
      5          1           0       -1.781356    1.047827   -0.000138
      6          1           0        1.781356   -1.047827    0.000363
 ---------------------------------------------------------------------

 Alpha  occ. eigenvalues --   -6.85340  -6.85331  -0.36999  -0.34061  -0.21455
 Alpha  occ. eigenvalues --   -0.19731  -0.06712   0.00998
 Alpha virt. eigenvalues --    0.15613   0.15680   0.16844   0.19274   0.19314
 Alpha virt. eigenvalues --    0.22465   0.22727   0.24786   0.26336   0.28611
 Alpha virt. eigenvalues --    0.33334   0.35140   0.36834   0.42810   0.50572

  Beta  occ. eigenvalues --   -6.85313  -6.85306  -0.35277  -0.32846  -0.21247
  Beta  occ. eigenvalues --   -0.19679  -0.05687
  Beta virt. eigenvalues --    0.11154   0.14003   0.14870   0.15437   0.16592
  Beta virt. eigenvalues --    0.18153   0.18806   0.20714   0.22793   0.26769
  Beta virt. eigenvalues --    0.30661   0.32392   0.35224   0.35669   0.42708

 Mulliken charges and spin densities:
               1          2
     1  B   -0.394702   0.544889
     2  B   -0.394702   0.544889
     3  H   -0.052649  -0.022445
     4  H   -0.052649  -0.022445
     5  H   -0.052649  -0.022445
     6  H   -0.052649  -0.022445
 Sum of Mulliken charges =  -1.00000   1.00000

 Dipole moment (field-independent basis, Debye):
    X=              0.0000    Y=              0.0000    Z=              0.0000  Tot=              0.0000
 Quadrupole moment (field-independent basis, Debye-Ang):
   XX=            -30.6538   YY=            -23.3458   ZZ=            -24.5825
   XY=             -0.0000   XZ=              0.0000   YZ=             -0.0003

 Normal termination of Gaussian 16 at Mon Apr 21 17:22:09 2025.
