 Gaussian 16, Revision A.03,
 Gaussian 16:  ES64L-G16RevA.03 25-Dec-2016

 --------------------------------------------
 #p opt UM062X/6-311+G** nosymm int=superfine
 --------------------------------------------

 -------------------
 Title Card Required
 -------------------
 Symbolic Z-matrix:
 Charge =  0 Multiplicity = 1

 SCF Done:  E(UM062X) =  -78.2019833712     A.U. after    9 cycles
 SCF Done:  E(UM062X) =  -78.2187914099     A.U. after    9 cycles
 SCF Done:  E(UM062X) =  -78.2338973058     A.U. after    8 cycles
 SCF Done:  E(UM062X) =  -78.2342250470     A.U. after    8 cycles
 SCF Done:  E(UM062X) =  -78.2342263706     A.U. after    7 cycles
 Optimization completed.
    -- Stationary point found.

                          Input orientation:
 ---------------------------------------------------------------------
 Center     Atomic      Atomic             Coordinates (Angstroms)
 Number     Number       Type             X           Y           Z
 ---------------------------------------------------------------------
      1          6           0       -2.160595    0.000000    0.000000
      2          6           0        2.160595    0.000000    0.000000
      3          1           0       -2.865153   -0.858989    0.000000
      4          1           0       -2.865123    0.859015   -0.000000
      5          1           0        2.865153    0.858989    0.000000
      6          1           0        2.865123   -0.859015   -0.000000
 ---------------------------------------------------------------------

 Alpha  occ. eigenvalues --  -10.59658 -10.59658  -0.74634  -0.74614  -0.46377
 Alpha  occ. eigenvalues --   -0.46357  -0.30657  -0.29603
 Alpha virt. eigenvalues --   -0.07314  -0.07013   0.02511   0.03032   0.06506
 Alpha virt. eigenvalues --    0.08561   0.08589   0.10341   0.11904   0.15505
 Alpha virt. eigenvalues --    0.17496   0.19948   0.20604   0.21125   0.45288

  Beta  occ. eigenvalues --  -10.59658 -10.59658  -0.74634  -0.74614  -0.46377
  Beta  occ. eigenvalues --   -0.46357  -0.30657  -0.29603
  Beta virt. eigenvalues --   -0.07314  -0.07013   0.02511   0.03032   0.06506
  Beta virt. eigenvalues --    0.08561   0.08589   0.10341   0.11904   0.15505
  Beta virt. eigenvalues --    0.17496   0.19948   0.20604   0.21125   0.45288

 Mulliken charges and spin densities:
               1          2
     1  C   -0.240230   0.000000
     2  C   -0.240230   0.000000
     3  H    0.120115  -0.000000
     4  H    0.120115  -0.000000
     5  H    0.120115  -0.000000
     6  H    0.120115  -0.000000
 Sum of Mulliken charges =  -0.00000  -0.00000

 Dipole moment (field-independent basis, Debye):
    X=             -0.0000    Y=              0.0000    Z=              0.0000  Tot=              0.0000
 Quadrupole moment (field-independent basis, Debye-Ang):
   XX=             -1.5611   YY=            -14.6066   ZZ=            -12.9073
   XY=             -0.0001   XZ=             -0.0000   YZ=             -0.0000

 Normal termination of Gaussian 16 at Tue Dec  3 11:21:19 2024.
