 Gaussian 16, Revision A.03,
 Gaussian 16:  ES64L-G16RevA.03 25-Dec-2016

 --------------------------------------------
 #p opt UM062X/6-311+G** nosymm int=superfine
 --------------------------------------------

 -------------------
 Title Card Required
 -------------------
 Symbolic Z-matrix:
 Charge =  0 Multiplicity = 1

 SCF Done:  E(UM062X) =  -115.455900631     A.U. after   19 cycles
 SCF Done:  E(UM062X) =  -115.472270659     A.U. after   12 cycles
 SCF Done:  E(UM062X) =  -115.482277007     A.U. after   16 cycles
 SCF Done:  E(UM062X) =  -115.482442804     A.U. after   10 cycles
 SCF Done:  E(UM062X) =  -115.482558062     A.U. after   11 cycles
 SCF Done:  E(UM062X) =  -115.482671280     A.U. after   12 cycles
 SCF Done:  E(UM062X) =  -115.482696176     A.U. after   11 cycles
 SCF Done:  E(UM062X) =  -115.482701778     A.U. after   11 cycles
 SCF Done:  E(UM062X) =  -115.482701935     A.U. after    9 cycles
 Optimization completed.
    -- Stationary point found.

                          Input orientation:
 ---------------------------------------------------------------------
 Center     Atomic      Atomic             Coordinates (Angstroms)
 Number     Number       Type             X           Y           Z
 ---------------------------------------------------------------------
      1          6           0       -1.707203    0.000000    0.000000
      2          8           0        1.707203    0.000000    0.000000
      3          1           0        1.744721   -0.964986    0.000537
      4          1           0       -1.778582   -0.533381    0.937976
      5          1           0       -1.616727    1.077595   -0.000678
      6          1           0       -1.778531   -0.534563   -0.937307
 ---------------------------------------------------------------------

 Alpha  occ. eigenvalues --  -19.58520 -10.67077  -1.00915  -0.84785  -0.56909
 Alpha  occ. eigenvalues --   -0.56683  -0.45452  -0.32407  -0.28241
 Alpha virt. eigenvalues --   -0.16482   0.00402   0.03760   0.04070   0.06708
 Alpha virt. eigenvalues --    0.13438   0.14843   0.15026   0.19730   0.22884
 Alpha virt. eigenvalues --    0.23031   0.24902   0.28448   0.39131   0.39376

  Beta  occ. eigenvalues --  -19.58520 -10.67077  -1.00915  -0.84785  -0.56909
  Beta  occ. eigenvalues --   -0.56683  -0.45452  -0.32407  -0.28241
  Beta virt. eigenvalues --   -0.16482   0.00402   0.03760   0.04070   0.06708
  Beta virt. eigenvalues --    0.13438   0.14843   0.15026   0.19730   0.22884
  Beta virt. eigenvalues --    0.23031   0.24902   0.28448   0.39131   0.39376

 Mulliken charges and spin densities:
               1          2
     1  C   -0.291380  -0.000002
     2  O   -0.566643   0.000002
     3  H    0.211504  -0.000000
     4  H    0.210918   0.000000
     5  H    0.224682   0.000000
     6  H    0.210918   0.000000
 Sum of Mulliken charges =  -0.00000  -0.00000

 Dipole moment (field-independent basis, Debye):
    X=             -5.9802    Y=             -1.5699    Z=              0.0009  Tot=              6.1828
 Quadrupole moment (field-independent basis, Debye-Ang):
   XX=            -13.2587   YY=            -11.4828   ZZ=            -13.9018
   XY=             -2.8569   XZ=              0.0015   YZ=             -0.0013

 Normal termination of Gaussian 16 at Mon Apr 21 18:45:30 2025.
