 Gaussian 16, Revision A.03,
 Gaussian 16:  ES64L-G16RevA.03 25-Dec-2016

 --------------------------------------------
 #p opt UM062X/6-311+G** nosymm int=superfine
 --------------------------------------------

 -------------------
 Title Card Required
 -------------------
 Symbolic Z-matrix:
 Charge =  0 Multiplicity = 1

 SCF Done:  E(UM062X) =  -111.775302000     A.U. after   12 cycles
 SCF Done:  E(UM062X) =  -111.791041807     A.U. after   13 cycles
 SCF Done:  E(UM062X) =  -111.793946014     A.U. after   13 cycles
 SCF Done:  E(UM062X) =  -111.794692127     A.U. after   12 cycles
 SCF Done:  E(UM062X) =  -111.795889987     A.U. after   13 cycles
 SCF Done:  E(UM062X) =  -111.796075927     A.U. after   11 cycles
 SCF Done:  E(UM062X) =  -111.796119553     A.U. after   10 cycles
 SCF Done:  E(UM062X) =  -111.796121482     A.U. after    9 cycles
 SCF Done:  E(UM062X) =  -111.796121623     A.U. after    7 cycles
 Optimization completed.
    -- Stationary point found.

                          Input orientation:
 ---------------------------------------------------------------------
 Center     Atomic      Atomic             Coordinates (Angstroms)
 Number     Number       Type             X           Y           Z
 ---------------------------------------------------------------------
      1          7           0       -0.961540    0.000000    0.000000
      2          7           0        0.961540    0.000000    0.000000
      3          1           0       -1.046380   -0.813284   -0.613166
      4          1           0        1.046468    0.407404   -0.933497
      5          1           0       -1.046370   -0.407112    0.933636
      6          1           0        1.046313    0.813091    0.613436
 ---------------------------------------------------------------------

 Alpha  occ. eigenvalues --  -14.78289 -14.78281  -0.98338  -0.89695  -0.56534
 Alpha  occ. eigenvalues --   -0.51282  -0.41992  -0.41855  -0.33345
 Alpha virt. eigenvalues --   -0.01452   0.04536   0.08268   0.08843   0.12256
 Alpha virt. eigenvalues --    0.13309   0.13564   0.15596   0.16128   0.21686
 Alpha virt. eigenvalues --    0.22839   0.26752   0.28177   0.51683   0.52349

  Beta  occ. eigenvalues --  -14.78289 -14.78281  -0.98338  -0.89695  -0.56534
  Beta  occ. eigenvalues --   -0.51282  -0.41992  -0.41855  -0.33345
  Beta virt. eigenvalues --   -0.01452   0.04536   0.08268   0.08843   0.12256
  Beta virt. eigenvalues --    0.13309   0.13564   0.15596   0.16128   0.21686
  Beta virt. eigenvalues --    0.22839   0.26752   0.28177   0.51683   0.52349

 Mulliken charges and spin densities:
               1          2
     1  N   -0.522659   0.000000
     2  N   -0.522663   0.000000
     3  H    0.261341  -0.000000
     4  H    0.261343  -0.000000
     5  H    0.261320  -0.000000
     6  H    0.261318  -0.000000
 Sum of Mulliken charges =  -0.00000   0.00000

 Dipole moment (field-independent basis, Debye):
    X=              0.0000    Y=              0.0001    Z=              0.0005  Tot=              0.0006
 Quadrupole moment (field-independent basis, Debye-Ang):
   XX=            -15.2386   YY=            -13.9799   ZZ=            -11.1581
   XY=              4.8291   XZ=             -1.2675   YZ=              0.7953

 Normal termination of Gaussian 16 at Thu May 15 14:27:35 2025.
