 Gaussian 16, Revision A.03,
 Gaussian 16:  ES64L-G16RevA.03 25-Dec-2016

 --------------------------------------------
 #p opt UM062X/6-311+G** nosymm int=superfine
 --------------------------------------------

 -------------------
 Title Card Required
 -------------------
 Symbolic Z-matrix:
 Charge =  0 Multiplicity = 1

 SCF Done:  E(UM062X) =  -110.192960536     A.U. after   13 cycles
 SCF Done:  E(UM062X) =  -110.196347385     A.U. after   13 cycles
 SCF Done:  E(UM062X) =  -110.201342015     A.U. after   15 cycles
 SCF Done:  E(UM062X) =  -110.202125152     A.U. after   17 cycles
 SCF Done:  E(UM062X) =  -110.202126327     A.U. after   13 cycles
 Optimization completed.
    -- Stationary point found.

                          Input orientation:
 ---------------------------------------------------------------------
 Center     Atomic      Atomic             Coordinates (Angstroms)
 Number     Number       Type             X           Y           Z
 ---------------------------------------------------------------------
      1          7           0       -1.590428    0.000000    0.000000
      2          7           0        1.590428    0.000000    0.000000
      3          1           0       -1.378320   -1.017086    0.000000
      4          1           0        1.378320    1.017086    0.000000
 ---------------------------------------------------------------------

 Alpha  occ. eigenvalues --  -14.88652 -14.88649  -0.93008  -0.92074  -0.49252
 Alpha  occ. eigenvalues --   -0.48689  -0.32206  -0.30569
 Alpha virt. eigenvalues --   -0.21041  -0.19218   0.05295   0.07176   0.10723
 Alpha virt. eigenvalues --    0.11582   0.13278   0.14775   0.15579   0.18045
 Alpha virt. eigenvalues --    0.19509   0.22955   0.52000   0.55059   0.71463

  Beta  occ. eigenvalues --  -14.88652 -14.88649  -0.93008  -0.92074  -0.49252
  Beta  occ. eigenvalues --   -0.48689  -0.32206  -0.30569
  Beta virt. eigenvalues --   -0.21041  -0.19218   0.05295   0.07176   0.10723
  Beta virt. eigenvalues --    0.11582   0.13278   0.14775   0.15579   0.18045
  Beta virt. eigenvalues --    0.19509   0.22955   0.52000   0.55059   0.71463

 Mulliken charges and spin densities:
               1          2
     1  N   -0.238732  -0.000000
     2  N   -0.238732   0.000000
     3  H    0.238732   0.000000
     4  H    0.238732  -0.000000
 Sum of Mulliken charges =  -0.00000  -0.00000

 Dipole moment (field-independent basis, Debye):
    X=             -0.0000    Y=             -0.0000    Z=              0.0000  Tot=              0.0000
 Quadrupole moment (field-independent basis, Debye-Ang):
   XX=            -14.5136   YY=            -11.2215   ZZ=            -14.2057
   XY=              5.2812   XZ=             -0.0000   YZ=             -0.0000

 Normal termination of Gaussian 16 at Thu May 15 15:40:27 2025.
