 Gaussian 16, Revision A.03,
 Gaussian 16:  ES64L-G16RevA.03 25-Dec-2016

 --------------------------------------------
 #p opt UM062X/6-311+G** nosymm int=superfine
 --------------------------------------------

 -------------------
 Title Card Required
 -------------------
 Symbolic Z-matrix:
 Charge =  0 Multiplicity = 1

 SCF Done:  E(UM062X) =  -76.9153861365     A.U. after   14 cycles
 SCF Done:  E(UM062X) =  -76.9166233977     A.U. after   13 cycles
 SCF Done:  E(UM062X) =  -76.9176145497     A.U. after   14 cycles
 SCF Done:  E(UM062X) =  -76.9176729653     A.U. after   14 cycles
 SCF Done:  E(UM062X) =  -76.9176746811     A.U. after   11 cycles
 SCF Done:  E(UM062X) =  -76.9176748206     A.U. after    9 cycles
 Optimization completed.
    -- Stationary point found.

                          Input orientation:
 ---------------------------------------------------------------------
 Center     Atomic      Atomic             Coordinates (Angstroms)
 Number     Number       Type             X           Y           Z
 ---------------------------------------------------------------------
      1          6           0       -1.482625    0.000000    0.000000
      2          6           0        1.482625    0.000000    0.000000
      3          1           0       -1.385390   -0.177522    1.098618
      4          1           0        1.385362    0.890283   -0.667731
 ---------------------------------------------------------------------

 Alpha  occ. eigenvalues --  -10.67227 -10.67224  -0.73197  -0.71385  -0.38865
 Alpha  occ. eigenvalues --   -0.38479  -0.26064
 Alpha virt. eigenvalues --   -0.10388  -0.09164  -0.08565   0.03208   0.05178
 Alpha virt. eigenvalues --    0.07337   0.07509   0.09672   0.09990   0.10710
 Alpha virt. eigenvalues --    0.14686   0.18716   0.18803   0.44374   0.45790

  Beta  occ. eigenvalues --  -10.67227 -10.67224  -0.73197  -0.71385  -0.38865
  Beta  occ. eigenvalues --   -0.38479  -0.26064
  Beta virt. eigenvalues --   -0.10388  -0.09164  -0.08565   0.03208   0.05178
  Beta virt. eigenvalues --    0.07337   0.07509   0.09672   0.09990   0.10710
  Beta virt. eigenvalues --    0.14686   0.18716   0.18803   0.44374   0.45790

 Mulliken charges and spin densities:
               1          2
     1  C   -0.142667  -0.000081
     2  C   -0.142662   0.000081
     3  H    0.142664   0.000001
     4  H    0.142665  -0.000001
 Sum of Mulliken charges =   0.00000  -0.00000

 Dipole moment (field-independent basis, Debye):
    X=             -0.0000    Y=              1.0371    Z=              0.6269  Tot=              1.2118
 Quadrupole moment (field-independent basis, Debye-Ang):
   XX=            -16.9487   YY=            -12.7264   ZZ=            -13.6333
   XY=              2.3892   XZ=             -3.9523   YZ=              0.8639

 Normal termination of Gaussian 16 at Tue Dec  3 22:24:33 2024.
