 Gaussian 16, Revision A.03,
 Gaussian 16:  ES64L-G16RevA.03 25-Dec-2016

 --------------------------------------------
 #p opt UM062X/6-311+G** nosymm int=superfine
 --------------------------------------------

 -------------------
 Title Card Required
 -------------------
 Symbolic Z-matrix:
 Charge =  0 Multiplicity = 3

 SCF Done:  E(UM062X) =  -55.2128987450     A.U. after   15 cycles
 SCF Done:  E(UM062X) =  -55.2130899198     A.U. after    9 cycles
 SCF Done:  E(UM062X) =  -55.2130910351     A.U. after    8 cycles
 Optimization completed.
    -- Stationary point found.

                          Input orientation:
 ---------------------------------------------------------------------
 Center     Atomic      Atomic             Coordinates (Angstroms)
 Number     Number       Type             X           Y           Z
 ---------------------------------------------------------------------
      1          7           0        0.628735    0.007679    0.000001
      2          1           0        0.995772   -0.963498   -0.000127
 ---------------------------------------------------------------------

 Alpha  occ. eigenvalues --  -14.81740  -0.95184  -0.48466  -0.41361  -0.41361
 Alpha virt. eigenvalues --    0.06519   0.12808   0.12808   0.12953   0.17879
 Alpha virt. eigenvalues --    0.54595   0.75617   0.78217   0.78217   0.94660
 Alpha virt. eigenvalues --    1.29010   1.29010   1.90473   1.95083   1.95083

  Beta  occ. eigenvalues --  -14.79239  -0.82398  -0.42463
  Beta virt. eigenvalues --   -0.06414  -0.06414   0.04545   0.12502   0.14969
  Beta virt. eigenvalues --    0.14969   0.19519   0.56046   0.78333   0.82512
  Beta virt. eigenvalues --    0.82512   0.98383   1.34721   1.34721   1.94580

 Mulliken charges and spin densities:
               1          2
     1  N   -0.195438   2.062843
     2  H    0.195438  -0.062843
 Sum of Mulliken charges =  -0.00000   2.00000

 Dipole moment (field-independent basis, Debye):
    X=              0.6048    Y=             -1.6002    Z=             -0.0002  Tot=              1.7107
 Quadrupole moment (field-independent basis, Debye-Ang):
   XX=             -5.5457   YY=             -5.7249   ZZ=             -6.4071
   XY=             -1.2686   XZ=             -0.0002   YZ=              0.0001

 1\1\GINC-NODE02\FOpt\UM062X\6-311+G(d,p)\H1N1(3)\SZHAO\16-Apr-2025\0\\
 #p opt UM062X/6-311+G** nosymm int=superfine\\Title Card Required\\0,3
 \N,0.6287350303,0.0076788282,0.0000010098\H,0.9957717797,-0.9634976582
 ,-0.0001266998\\Version=ES64L-G16RevA.03\HF=-55.213091\S2=2.007136\S2-
 1=0.\S2A=2.000018\RMSD=2.304e-09\RMSF=1.957e-06\Dipole=0.2379375,-0.62
 95852,-0.0000828\Quadrupole=0.2579058,0.1246409,-0.3825466,-0.9431689,
 -0.000124,0.0000667\PG=C*V [C*(H1N1)]\\@

 Normal termination of Gaussian 16 at Wed Apr 16 08:18:59 2025.
