 Gaussian 16, Revision A.03,
 Gaussian 16:  ES64L-G16RevA.03 25-Dec-2016

 --------------------------------------------
 #p opt UM062X/6-311+G** nosymm int=superfine
 --------------------------------------------

 -------------------
 Title Card Required
 -------------------
 Symbolic Z-matrix:
 Charge =  1 Multiplicity = 2

 SCF Done:  E(UM062X) =  -92.6399776865     A.U. after  116 cycles
 SCF Done:  E(UM062X) =  -92.6403603928     A.U. after   15 cycles
 SCF Done:  E(UM062X) =  -92.6403613670     A.U. after   15 cycles
 Optimization completed on the basis of negligible forces.
    -- Stationary point found.

                          Input orientation:
 ---------------------------------------------------------------------
 Center     Atomic      Atomic             Coordinates (Angstroms)
 Number     Number       Type             X           Y           Z
 ---------------------------------------------------------------------
      1          6           0       -1.001540    0.000000    0.000000
      2          7           0        1.001540    0.000000    0.000000
      3          1           0       -2.121729    0.000009    0.000136
 ---------------------------------------------------------------------

 Alpha  occ. eigenvalues --  -15.22997 -11.08977  -1.19057  -1.07033  -0.77279
 Alpha  occ. eigenvalues --   -0.71436  -0.63198
 Alpha virt. eigenvalues --   -0.43701  -0.43199  -0.38687  -0.16231  -0.11548
 Alpha virt. eigenvalues --   -0.10361  -0.09855  -0.05510  -0.02049  -0.01532
 Alpha virt. eigenvalues --    0.00891   0.07850   0.23552   0.29394   0.29423

  Beta  occ. eigenvalues --  -15.21883 -11.08985  -1.13017  -1.05488  -0.76245
  Beta  occ. eigenvalues --   -0.62396
  Beta virt. eigenvalues --   -0.44208  -0.42257  -0.35215  -0.34696  -0.16538
  Beta virt. eigenvalues --   -0.11940  -0.10286  -0.10159  -0.05923  -0.02226
  Beta virt. eigenvalues --   -0.01917   0.00910   0.06216   0.23571   0.29051

 Mulliken charges and spin densities:
               1          2
     1  C    0.251893   0.135435
     2  N    0.399830   0.888284
     3  H    0.348277  -0.023719
 Sum of Mulliken charges =   1.00000   1.00000

 Dipole moment (field-independent basis, Debye):
    X=             -4.2054    Y=             -0.0000    Z=              0.0003  Tot=              4.2054
 Quadrupole moment (field-independent basis, Debye-Ang):
   XX=              1.6491   YY=             -9.5220   ZZ=            -11.2413
   XY=             -0.0000   XZ=             -0.0003   YZ=              0.5547

 Normal termination of Gaussian 16 at Mon Apr 21 18:34:53 2025.
