 Gaussian 16, Revision A.03,
 Gaussian 16:  ES64L-G16RevA.03 25-Dec-2016

 --------------------------------------------
 #p opt UM062X/6-311+G** nosymm int=superfine
 --------------------------------------------

 -------------------
 Title Card Required
 -------------------
 Symbolic Z-matrix:
 Charge =  0 Multiplicity = 1

 SCF Done:  E(UM062X) =  -380.944840904     A.U. after   20 cycles
 SCF Done:  E(UM062X) =  -380.946990863     A.U. after   15 cycles
 SCF Done:  E(UM062X) =  -380.948143426     A.U. after   14 cycles
 SCF Done:  E(UM062X) =  -380.948271113     A.U. after   16 cycles
 SCF Done:  E(UM062X) =  -380.948181104     A.U. after   16 cycles
 SCF Done:  E(UM062X) =  -380.948406396     A.U. after   21 cycles
 SCF Done:  E(UM062X) =  -380.948410598     A.U. after   13 cycles
 SCF Done:  E(UM062X) =  -380.948412976     A.U. after   15 cycles
 SCF Done:  E(UM062X) =  -380.948418337     A.U. after   14 cycles
 SCF Done:  E(UM062X) =  -380.948423899     A.U. after   16 cycles
 SCF Done:  E(UM062X) =  -380.948424460     A.U. after   13 cycles
 SCF Done:  E(UM062X) =  -380.948424496     A.U. after   15 cycles
 Optimization completed.
    -- Stationary point found.

                          Input orientation:
 ---------------------------------------------------------------------
 Center     Atomic      Atomic             Coordinates (Angstroms)
 Number     Number       Type             X           Y           Z
 ---------------------------------------------------------------------
      1          6           0       -1.655452    0.000000    0.000000
      2         15           0        1.655452    0.000000    0.000000
      3          1           0       -2.338954   -0.864928    0.000395
      4          1           0        1.420452   -1.401479    0.000412
      5          1           0       -2.300701    0.893574   -0.000458
 ---------------------------------------------------------------------

 Alpha  occ. eigenvalues --  -78.03956 -10.64092  -6.86141  -4.98106  -4.97382
 Alpha  occ. eigenvalues --   -4.96966  -0.78063  -0.64817  -0.50849  -0.37585
 Alpha  occ. eigenvalues --   -0.34240  -0.23701
 Alpha virt. eigenvalues --   -0.10606  -0.09574   0.01210   0.04178   0.04770
 Alpha virt. eigenvalues --    0.06277   0.06934   0.07404   0.08846   0.11463
 Alpha virt. eigenvalues --    0.13609   0.17074   0.18388   0.31149   0.34304

  Beta  occ. eigenvalues --  -78.03956 -10.64092  -6.86141  -4.98106  -4.97382
  Beta  occ. eigenvalues --   -4.96966  -0.78063  -0.64817  -0.50849  -0.37585
  Beta  occ. eigenvalues --   -0.34240  -0.23701
  Beta virt. eigenvalues --   -0.10606  -0.09574   0.01210   0.04178   0.04770
  Beta virt. eigenvalues --    0.06277   0.06934   0.07404   0.08846   0.11463
  Beta virt. eigenvalues --    0.13609   0.17074   0.18388   0.31149   0.34304

 Mulliken charges and spin densities:
               1          2
     1  C   -0.318192  -0.000000
     2  P    0.035680   0.000000
     3  H    0.157349   0.000000
     4  H   -0.032470  -0.000000
     5  H    0.157633   0.000000
 Sum of Mulliken charges =  -0.00000   0.00000

 Dipole moment (field-independent basis, Debye):
    X=             -2.8746    Y=             -0.5951    Z=              0.0001  Tot=              2.9356
 Quadrupole moment (field-independent basis, Debye-Ang):
   XX=            -14.0588   YY=            -21.3053   ZZ=            -25.5550
   XY=             -1.6523   XZ=              0.0004   YZ=             -0.0012

 Normal termination of Gaussian 16 at Mon Apr 21 19:17:49 2025.
