 Gaussian 16, Revision A.03,
 Gaussian 16:  ES64L-G16RevA.03 25-Dec-2016

 --------------------------------------------
 #p opt UM062X/6-311+G** nosymm int=superfine
 --------------------------------------------

 -------------------
 Title Card Required
 -------------------
 Symbolic Z-matrix:
 Charge =  1 Multiplicity = 2

 SCF Done:  E(UM062X) =  -79.3544918502     A.U. after   10 cycles
 SCF Done:  E(UM062X) =  -79.3547302468     A.U. after    9 cycles
 SCF Done:  E(UM062X) =  -79.3547309677     A.U. after    7 cycles
 Optimization completed.
    -- Stationary point found.

                          Input orientation:
 ---------------------------------------------------------------------
 Center     Atomic      Atomic             Coordinates (Angstroms)
 Number     Number       Type             X           Y           Z
 ---------------------------------------------------------------------
      1          6           0       -1.284005    0.000000    0.000000
      2          6           0        1.284005    0.000000    0.000000
      3          1           0        1.359960   -0.935981    0.541681
      4          1           0       -1.359161   -0.937089   -0.539872
      5          1           0        1.359659    0.937159    0.539682
      6          1           0        1.359132   -0.001135   -1.081482
      7          1           0       -1.359986    0.936048   -0.541560
      8          1           0       -1.359604    0.000938    1.081449
 ---------------------------------------------------------------------

 Alpha  occ. eigenvalues --  -10.85616 -10.85611  -1.06095  -1.02545  -0.76128
 Alpha  occ. eigenvalues --   -0.76127  -0.74259  -0.74258  -0.56522
 Alpha virt. eigenvalues --   -0.32215  -0.15126  -0.10571  -0.10570  -0.10012
 Alpha virt. eigenvalues --   -0.06212  -0.06212  -0.06204  -0.03717  -0.03715
 Alpha virt. eigenvalues --   -0.02886   0.01581   0.01583   0.05413   0.07395

  Beta  occ. eigenvalues --  -10.85419 -10.85418  -1.02871  -1.00105  -0.75413
  Beta  occ. eigenvalues --   -0.75413  -0.73700  -0.73699
  Beta virt. eigenvalues --   -0.34216  -0.23239  -0.15594  -0.11102  -0.11102
  Beta virt. eigenvalues --   -0.09557  -0.06558  -0.06558  -0.06176  -0.03609
  Beta virt. eigenvalues --   -0.03606  -0.02131   0.01992   0.01994   0.05883

 Mulliken charges and spin densities:
               1          2
     1  C   -0.284277   0.574141
     2  C   -0.284277   0.574141
     3  H    0.261441  -0.024720
     4  H    0.261407  -0.024709
     5  H    0.261426  -0.024716
     6  H    0.261409  -0.024705
     7  H    0.261442  -0.024720
     8  H    0.261428  -0.024711
 Sum of Mulliken charges =   1.00000   1.00000

 Dipole moment (field-independent basis, Debye):
    X=              0.0000    Y=             -0.0000    Z=             -0.0000  Tot=              0.0001
 Quadrupole moment (field-independent basis, Debye-Ang):
   XX=             -3.3763   YY=            -10.9439   ZZ=            -10.9441
   XY=             -0.0009   XZ=              0.0005   YZ=             -0.0001

 Normal termination of Gaussian 16 at Wed Nov 13 12:42:21 2024.
