 Gaussian 16, Revision A.03,
 Gaussian 16:  ES64L-G16RevA.03 25-Dec-2016

 --------------------------------------------
 #p opt UM062X/6-311+G** nosymm int=superfine
 --------------------------------------------

 -------------------
 Title Card Required
 -------------------
 Symbolic Z-matrix:
 Charge =  0 Multiplicity = 1

 SCF Done:  E(UM062X) =  -76.8149072947     A.U. after   10 cycles
 SCF Done:  E(UM062X) =  -76.8571906840     A.U. after   10 cycles
 SCF Done:  E(UM062X) =  -76.9288858191     A.U. after   10 cycles
 SCF Done:  E(UM062X) =  -76.9912243548     A.U. after   10 cycles
 SCF Done:  E(UM062X) =  -76.9934947463     A.U. after    8 cycles
 SCF Done:  E(UM062X) =  -76.9934981027     A.U. after    7 cycles
 Optimization completed.
    -- Stationary point found.

                          Input orientation:
 ---------------------------------------------------------------------
 Center     Atomic      Atomic             Coordinates (Angstroms)
 Number     Number       Type             X           Y           Z
 ---------------------------------------------------------------------
      1          6           0       -0.933684    0.000000    0.000000
      2          6           0        0.933684    0.000000    0.000000
      3          1           0       -2.015048   -0.000000   -0.000000
      4          1           0        2.014995    0.000000   -0.000000
 ---------------------------------------------------------------------

 Alpha  occ. eigenvalues --  -10.67879 -10.67857  -0.76573  -0.70714  -0.50940
 Alpha  occ. eigenvalues --   -0.29105  -0.29105
 Alpha virt. eigenvalues --   -0.07051  -0.07051  -0.04545   0.02261   0.03747
 Alpha virt. eigenvalues --    0.08601   0.08601   0.09742   0.10748   0.10748
 Alpha virt. eigenvalues --    0.17218   0.21901   0.25396   0.46894   0.57705

  Beta  occ. eigenvalues --  -10.67879 -10.67857  -0.76573  -0.70714  -0.50940
  Beta  occ. eigenvalues --   -0.29105  -0.29105
  Beta virt. eigenvalues --   -0.07051  -0.07051  -0.04545   0.02261   0.03747
  Beta virt. eigenvalues --    0.08601   0.08601   0.09742   0.10748   0.10748
  Beta virt. eigenvalues --    0.17218   0.21901   0.25396   0.46894   0.57705

 Mulliken charges and spin densities:
               1          2
     1  C   -0.260755   0.000000
     2  C   -0.260754  -0.000000
     3  H    0.260762  -0.000000
     4  H    0.260747   0.000000
 Sum of Mulliken charges =  -0.00000   0.00000

 Dipole moment (field-independent basis, Debye):
    X=             -0.0001    Y=             -0.0000    Z=             -0.0000  Tot=              0.0001
 Quadrupole moment (field-independent basis, Debye-Ang):
   XX=             -4.2781   YY=            -16.2382   ZZ=            -16.2382
   XY=              0.0000   XZ=              0.0000   YZ=             -0.0000

 Normal termination of Gaussian 16 at Tue Dec  3 20:28:42 2024.
