 Gaussian 16, Revision A.03,
 Gaussian 16:  ES64L-G16RevA.03 25-Dec-2016

 --------------------------------------------
 #p opt UM062X/6-311+G** nosymm int=superfine
 --------------------------------------------

 -------------------
 Title Card Required
 -------------------
 Symbolic Z-matrix:
 Charge =  0 Multiplicity = 1

 SCF Done:  E(UM062X) =  -95.5807309973     A.U. after   17 cycles
 SCF Done:  E(UM062X) =  -95.5959932908     A.U. after   12 cycles
 SCF Done:  E(UM062X) =  -95.6068778219     A.U. after   14 cycles
 SCF Done:  E(UM062X) =  -95.6073541719     A.U. after   13 cycles
 SCF Done:  E(UM062X) =  -95.6078576908     A.U. after   12 cycles
 SCF Done:  E(UM062X) =  -95.6080991297     A.U. after   12 cycles
 SCF Done:  E(UM062X) =  -95.6081607884     A.U. after   12 cycles
 SCF Done:  E(UM062X) =  -95.6081736894     A.U. after   12 cycles
 SCF Done:  E(UM062X) =  -95.6081749650     A.U. after    9 cycles
 SCF Done:  E(UM062X) =  -95.6081758495     A.U. after   10 cycles
 SCF Done:  E(UM062X) =  -95.6081773563     A.U. after   10 cycles
 SCF Done:  E(UM062X) =  -95.6081787561     A.U. after   15 cycles
 SCF Done:  E(UM062X) =  -95.6081790406     A.U. after    9 cycles
 Optimization completed.
    -- Stationary point found.

                          Input orientation:
 ---------------------------------------------------------------------
 Center     Atomic      Atomic             Coordinates (Angstroms)
 Number     Number       Type             X           Y           Z
 ---------------------------------------------------------------------
      1          6           0       -1.905542    0.000000    0.000000
      2          7           0        1.905542    0.000000    0.000000
      3          1           0        1.848901   -1.015016    0.138321
      4          1           0       -1.887531    1.080266    0.010928
      5          1           0        1.849552    0.368492    0.955869
      6          1           0       -1.888120   -0.526339   -0.943441
      7          1           0       -2.027960   -0.548337    0.923176
 ---------------------------------------------------------------------

 Alpha  occ. eigenvalues --  -14.74795 -10.62131  -0.90166  -0.81039  -0.53226
 Alpha  occ. eigenvalues --   -0.53059  -0.50673  -0.35920  -0.24703
 Alpha virt. eigenvalues --   -0.14557   0.01749   0.04599   0.04928   0.07076
 Alpha virt. eigenvalues --    0.09927   0.13030   0.15851   0.16735   0.16806
 Alpha virt. eigenvalues --    0.18000   0.20486   0.22125   0.26772   0.41073

  Beta  occ. eigenvalues --  -14.74795 -10.62131  -0.90166  -0.81039  -0.53226
  Beta  occ. eigenvalues --   -0.53059  -0.50673  -0.35920  -0.24703
  Beta virt. eigenvalues --   -0.14557   0.01749   0.04599   0.04928   0.07076
  Beta virt. eigenvalues --    0.09927   0.13030   0.15851   0.16735   0.16806
  Beta virt. eigenvalues --    0.18000   0.20486   0.22125   0.26772   0.41073

 Mulliken charges and spin densities:
               1          2
     1  C   -0.429757  -0.000007
     2  N   -0.578174   0.000007
     3  H    0.209710  -0.000000
     4  H    0.199653   0.000000
     5  H    0.209715  -0.000000
     6  H    0.199659   0.000000
     7  H    0.189194   0.000000
 Sum of Mulliken charges =  -0.00000  -0.00000

 Dipole moment (field-independent basis, Debye):
    X=             -3.4389    Y=             -1.0027    Z=              1.6973  Tot=              3.9638
 Quadrupole moment (field-independent basis, Debye-Ang):
   XX=            -15.8042   YY=            -13.4572   ZZ=            -14.2586
   XY=             -1.9429   XZ=              3.2917   YZ=              0.7280

 Normal termination of Gaussian 16 at Mon Apr 21 18:17:42 2025.
