 Gaussian 16, Revision A.03,
 Gaussian 16:  ES64L-G16RevA.03 25-Dec-2016

 --------------------------------------------
 #p opt UM062X/6-311+G** nosymm int=superfine
 --------------------------------------------

 -------------------
 Title Card Required
 -------------------
 Symbolic Z-matrix:
 Charge =  0 Multiplicity = 1

 SCF Done:  E(UM062X) =  -382.258255187     A.U. after   13 cycles
 SCF Done:  E(UM062X) =  -382.268231418     A.U. after   11 cycles
 SCF Done:  E(UM062X) =  -382.273615418     A.U. after   11 cycles
 SCF Done:  E(UM062X) =  -382.273686382     A.U. after   10 cycles
 SCF Done:  E(UM062X) =  -382.273724051     A.U. after   13 cycles
 SCF Done:  E(UM062X) =  -382.273741912     A.U. after   12 cycles
 SCF Done:  E(UM062X) =  -382.273746644     A.U. after    9 cycles
 SCF Done:  E(UM062X) =  -382.273748382     A.U. after    9 cycles
 SCF Done:  E(UM062X) =  -382.273749073     A.U. after    9 cycles
 SCF Done:  E(UM062X) =  -382.273749236     A.U. after    8 cycles
 Optimization completed.
    -- Stationary point found.

                          Input orientation:
 ---------------------------------------------------------------------
 Center     Atomic      Atomic             Coordinates (Angstroms)
 Number     Number       Type             X           Y           Z
 ---------------------------------------------------------------------
      1          6           0       -1.806264    0.000000    0.000000
      2         15           0        1.806264    0.000000    0.000000
      3          1           0        1.743322   -1.417716    0.029832
      4          1           0       -1.877426    1.051712    0.236426
      5          1           0        1.743364    0.080693    1.415712
      6          1           0       -1.877314   -0.317844   -1.030040
      7          1           0       -1.901893   -0.730732    0.790201
 ---------------------------------------------------------------------

 Alpha  occ. eigenvalues --  -78.03269 -10.59285  -6.85640  -4.97168  -4.97091
 Alpha  occ. eigenvalues --   -4.96907  -0.78550  -0.69424  -0.50643  -0.50587
 Alpha  occ. eigenvalues --   -0.43595  -0.34695  -0.24636
 Alpha virt. eigenvalues --   -0.11462   0.02118   0.03957   0.03990   0.04573
 Alpha virt. eigenvalues --    0.06321   0.06898   0.07163   0.07282   0.11634
 Alpha virt. eigenvalues --    0.17351   0.18427   0.18525   0.23396   0.30191

  Beta  occ. eigenvalues --  -78.03269 -10.59285  -6.85640  -4.97168  -4.97091
  Beta  occ. eigenvalues --   -4.96907  -0.78550  -0.69424  -0.50643  -0.50587
  Beta  occ. eigenvalues --   -0.43595  -0.34695  -0.24636
  Beta virt. eigenvalues --   -0.11462   0.02118   0.03957   0.03990   0.04573
  Beta virt. eigenvalues --    0.06321   0.06898   0.07163   0.07282   0.11634
  Beta virt. eigenvalues --    0.17351   0.18427   0.18525   0.23396   0.30191

 Mulliken charges and spin densities:
               1          2
     1  C   -0.519929   0.000002
     2  P   -0.044209  -0.000002
     3  H    0.001288   0.000000
     4  H    0.187907  -0.000000
     5  H    0.001291   0.000000
     6  H    0.187909  -0.000000
     7  H    0.185742  -0.000000
 Sum of Mulliken charges =  -0.00000  -0.00000

 Dipole moment (field-independent basis, Debye):
    X=             -1.3494    Y=             -0.5619    Z=              0.6075  Tot=              1.5829
 Quadrupole moment (field-independent basis, Debye-Ang):
   XX=            -22.2428   YY=            -22.3601   ZZ=            -22.4699
   XY=             -1.2029   XZ=              1.3005   YZ=              0.7027

 Normal termination of Gaussian 16 at Mon Apr 21 19:07:12 2025.
