 Gaussian 16, Revision A.03,
 Gaussian 16:  ES64L-G16RevA.03 25-Dec-2016

 --------------------------------------------
 #p opt UM062X/6-311+G** nosymm int=superfine
 --------------------------------------------

 -------------------
 Title Card Required
 -------------------
 Symbolic Z-matrix:
 Charge =  1 Multiplicity = 2

 SCF Done:  E(UM062X) =  -580.877354106     A.U. after   14 cycles
 SCF Done:  E(UM062X) =  -580.884505741     A.U. after   12 cycles
 SCF Done:  E(UM062X) =  -580.886472471     A.U. after   11 cycles
 SCF Done:  E(UM062X) =  -580.886474951     A.U. after   10 cycles
 Optimization completed.
    -- Stationary point found.

                          Input orientation:
 ---------------------------------------------------------------------
 Center     Atomic      Atomic             Coordinates (Angstroms)
 Number     Number       Type             X           Y           Z
 ---------------------------------------------------------------------
      1         14           0       -1.916295    0.000000    0.000000
      2         14           0        1.916295    0.000000    0.000000
      3          1           0       -2.810842   -1.190822   -0.000422
      4          1           0        2.810842    1.190822    0.000608
      5          1           0       -2.810857    1.190811   -0.000574
      6          1           0        2.810857   -1.190810   -0.001605
 ---------------------------------------------------------------------

 Alpha  occ. eigenvalues --  -67.24620 -67.24620  -5.79111  -5.79110  -4.10383
 Alpha  occ. eigenvalues --   -4.10383  -4.10051  -4.10050  -4.09716  -4.09716
 Alpha  occ. eigenvalues --   -0.78841  -0.78409  -0.60490  -0.60375  -0.51634
 Alpha  occ. eigenvalues --   -0.46269
 Alpha virt. eigenvalues --   -0.28061  -0.26642  -0.13837  -0.12136  -0.09302
 Alpha virt. eigenvalues --   -0.08120  -0.07785  -0.07512  -0.06892  -0.06497
 Alpha virt. eigenvalues --   -0.06206  -0.05716  -0.05543  -0.03350   0.12478

  Beta  occ. eigenvalues --  -67.24266 -67.24266  -5.78830  -5.78829  -4.10276
  Beta  occ. eigenvalues --   -4.10276  -4.09600  -4.09599  -4.09267  -4.09266
  Beta  occ. eigenvalues --   -0.77010  -0.76428  -0.59313  -0.59176  -0.45920
  Beta virt. eigenvalues --   -0.31277  -0.26845  -0.25211  -0.12819  -0.11748
  Beta virt. eigenvalues --   -0.09415  -0.07641  -0.07579  -0.06554  -0.06535
  Beta virt. eigenvalues --   -0.06159  -0.05950  -0.05369  -0.04818  -0.02970

 Mulliken charges and spin densities:
               1          2
     1  Si   0.554116   0.384293
     2  Si   0.554116   0.384293
     3  H   -0.027058   0.057853
     4  H   -0.027058   0.057853
     5  H   -0.027058   0.057854
     6  H   -0.027058   0.057854
 Sum of Mulliken charges =   1.00000   1.00000

 Dipole moment (field-independent basis, Debye):
    X=              0.0000    Y=              0.0000    Z=             -0.0003  Tot=              0.0003
 Quadrupole moment (field-independent basis, Debye-Ang):
   XX=             -3.7217   YY=            -25.7604   ZZ=            -20.7764
   XY=             -0.0000   XZ=              0.0000   YZ=             -0.0022

 Normal termination of Gaussian 16 at Mon Apr 21 20:25:14 2025.
