 Gaussian 16, Revision A.03,
 Gaussian 16:  ES64L-G16RevA.03 25-Dec-2016

 --------------------------------------------
 #p opt UM062X/6-311+G** nosymm int=superfine
 --------------------------------------------

 -------------------
 Title Card Required
 -------------------
 Symbolic Z-matrix:
 Charge = -1 Multiplicity = 2

 SCF Done:  E(UM062X) =  -53.2049294463     A.U. after   11 cycles
 SCF Done:  E(UM062X) =  -53.2085378431     A.U. after   11 cycles
 SCF Done:  E(UM062X) =  -53.2093275697     A.U. after   10 cycles
 SCF Done:  E(UM062X) =  -53.2093298273     A.U. after    8 cycles
 Optimization completed.
    -- Stationary point found.

                          Input orientation:
 ---------------------------------------------------------------------
 Center     Atomic      Atomic             Coordinates (Angstroms)
 Number     Number       Type             X           Y           Z
 ---------------------------------------------------------------------
      1          5           0       -1.915672    0.000000    0.000000
      2          5           0        1.915672    0.000000    0.000000
      3          1           0        1.989578   -1.196707   -0.000014
      4          1           0       -1.989339   -0.598356    1.036396
      5          1           0        1.989492    0.598375   -1.036375
      6          1           0        1.989280    0.598343    1.036408
      7          1           0       -1.989586    1.196706   -0.000001
      8          1           0       -1.989426   -0.598362   -1.036387
 ---------------------------------------------------------------------

 Alpha  occ. eigenvalues --   -6.84215  -6.84214  -0.39731  -0.39030  -0.21507
 Alpha  occ. eigenvalues --   -0.21507  -0.21154  -0.21154   0.00905
 Alpha virt. eigenvalues --    0.12322   0.16956   0.17747   0.17747   0.18459
 Alpha virt. eigenvalues --    0.18459   0.19639   0.22802   0.23721   0.32902
 Alpha virt. eigenvalues --    0.32902   0.34843   0.34844   0.37370   0.39016

  Beta  occ. eigenvalues --   -6.84176  -6.84176  -0.37922  -0.37474  -0.21323
  Beta  occ. eigenvalues --   -0.21322  -0.20985  -0.20985
  Beta virt. eigenvalues --    0.11921   0.13725   0.14183   0.15441   0.15441
  Beta virt. eigenvalues --    0.18010   0.18010   0.21784   0.22507   0.25564
  Beta virt. eigenvalues --    0.31882   0.31883   0.34174   0.34175   0.36588

 Mulliken charges and spin densities:
               1          2
     1  B   -0.335555   0.568108
     2  B   -0.335555   0.568108
     3  H   -0.054831  -0.022714
     4  H   -0.054805  -0.022697
     5  H   -0.054811  -0.022696
     6  H   -0.054802  -0.022697
     7  H   -0.054831  -0.022714
     8  H   -0.054808  -0.022697
 Sum of Mulliken charges =  -1.00000   1.00000

 Dipole moment (field-independent basis, Debye):
    X=             -0.0000    Y=             -0.0000    Z=              0.0001  Tot=              0.0001
 Quadrupole moment (field-independent basis, Debye-Ang):
   XX=            -41.9088   YY=            -24.2755   ZZ=            -24.2753
   XY=              0.0001   XZ=              0.0000   YZ=              0.0000

 Normal termination of Gaussian 16 at Mon Apr 21 16:55:28 2025.
