 Gaussian 16, Revision A.03,
 Gaussian 16:  ES64L-G16RevA.03 25-Dec-2016

 --------------------------------------------
 #p opt UM062X/6-311+G** nosymm int=superfine
 --------------------------------------------

 -------------------
 Title Card Required
 -------------------
 Symbolic Z-matrix:
 Charge =  0 Multiplicity = 1

 SCF Done:  E(UM062X) =  -381.048920541     A.U. after   13 cycles
 SCF Done:  E(UM062X) =  -381.051274703     A.U. after   12 cycles
 SCF Done:  E(UM062X) =  -381.051542328     A.U. after   12 cycles
 SCF Done:  E(UM062X) =  -381.048913121     A.U. after   13 cycles
 SCF Done:  E(UM062X) =  -381.051608220     A.U. after   11 cycles
 SCF Done:  E(UM062X) =  -381.051191701     A.U. after   15 cycles
 SCF Done:  E(UM062X) =  -381.051655271     A.U. after   13 cycles
 SCF Done:  E(UM062X) =  -381.051656921     A.U. after    9 cycles
 SCF Done:  E(UM062X) =  -381.051657564     A.U. after    9 cycles
 SCF Done:  E(UM062X) =  -381.051657635     A.U. after   11 cycles
 Optimization completed.
    -- Stationary point found.

                          Input orientation:
 ---------------------------------------------------------------------
 Center     Atomic      Atomic             Coordinates (Angstroms)
 Number     Number       Type             X           Y           Z
 ---------------------------------------------------------------------
      1          6           0       -1.205452    0.000000    0.000000
      2         15           0        1.205452    0.000000    0.000000
      3          1           0       -1.727519   -0.950272    0.012458
      4          1           0        1.146865   -1.419174    0.019085
      5          1           0       -1.721448    0.952964   -0.012520
 ---------------------------------------------------------------------

 Alpha  occ. eigenvalues --  -78.06263 -10.62729  -6.88156  -4.99670  -4.99504
 Alpha  occ. eigenvalues --   -4.99419  -0.76635  -0.66348  -0.52064  -0.39480
 Alpha  occ. eigenvalues --   -0.34305  -0.26262
 Alpha virt. eigenvalues --   -0.10193  -0.03373   0.02203   0.04340   0.04919
 Alpha virt. eigenvalues --    0.05610   0.06552   0.07236   0.10232   0.10909
 Alpha virt. eigenvalues --    0.14418   0.18723   0.20802   0.30284   0.31690

  Beta  occ. eigenvalues --  -78.06263 -10.62729  -6.88156  -4.99670  -4.99504
  Beta  occ. eigenvalues --   -4.99419  -0.76635  -0.66348  -0.52064  -0.39480
  Beta  occ. eigenvalues --   -0.34305  -0.26262
  Beta virt. eigenvalues --   -0.10193  -0.03373   0.02203   0.04340   0.04919
  Beta virt. eigenvalues --    0.05610   0.06552   0.07236   0.10232   0.10909
  Beta virt. eigenvalues --    0.14418   0.18723   0.20802   0.30284   0.31690

 Mulliken charges and spin densities:
               1          2
     1  C   -0.450121   0.000000
     2  P    0.090757  -0.000000
     3  H    0.187580  -0.000000
     4  H   -0.016426   0.000000
     5  H    0.188210  -0.000000
 Sum of Mulliken charges =   0.00000   0.00000

 Dipole moment (field-independent basis, Debye):
    X=             -0.9096    Y=             -0.5887    Z=              0.0078  Tot=              1.0835
 Quadrupole moment (field-independent basis, Debye-Ang):
   XX=            -18.2336   YY=            -20.2349   ZZ=            -24.4626
   XY=             -1.2029   XZ=              0.0161   YZ=             -0.0562

 Normal termination of Gaussian 16 at Mon Apr 21 19:14:26 2025.
