 Gaussian 16, Revision A.03,
 Gaussian 16:  ES64L-G16RevA.03 25-Dec-2016

 --------------------------------------------
 #p opt UM062X/6-311+G** nosymm int=superfine
 --------------------------------------------

 -------------------
 Title Card Required
 -------------------
 Symbolic Z-matrix:
 Charge =  0 Multiplicity = 1

 SCF Done:  E(UM062X) =  -77.9290802097     A.U. after    9 cycles
 SCF Done:  E(UM062X) =  -77.9786010213     A.U. after    8 cycles
 SCF Done:  E(UM062X) =  -78.0189780835     A.U. after    9 cycles
 SCF Done:  E(UM062X) =  -78.0206501064     A.U. after    7 cycles
 SCF Done:  E(UM062X) =  -78.0206984337     A.U. after    7 cycles
 SCF Done:  E(UM062X) =  -78.0206998491     A.U. after    6 cycles
 Optimization completed.
    -- Stationary point found.

                          Input orientation:
 ---------------------------------------------------------------------
 Center     Atomic      Atomic             Coordinates (Angstroms)
 Number     Number       Type             X           Y           Z
 ---------------------------------------------------------------------
      1          6           0       -0.444124    0.000000    0.000000
      2          6           0        0.444124    0.000000    0.000000
      3          1           0       -1.121356   -0.870875    0.000000
      4          1           0       -1.121380    0.870815    0.000000
      5          1           0        1.121356    0.870875   -0.000000
      6          1           0        1.121380   -0.870815    0.000000
 ---------------------------------------------------------------------

 Alpha  occ. eigenvalues --  -10.49852 -10.46342  -0.95321  -0.61726  -0.60189
 Alpha  occ. eigenvalues --   -0.53588  -0.45895  -0.31949
 Alpha virt. eigenvalues --    0.03187   0.03887   0.04257   0.06333   0.07641
 Alpha virt. eigenvalues --    0.09043   0.09853   0.16070   0.16766   0.18498
 Alpha virt. eigenvalues --    0.21833   0.25208   0.35482   0.42442   0.42683

  Beta  occ. eigenvalues --  -10.49852 -10.46342  -0.95321  -0.61726  -0.60189
  Beta  occ. eigenvalues --   -0.53588  -0.45895  -0.31949
  Beta virt. eigenvalues --    0.03187   0.03887   0.04257   0.06333   0.07641
  Beta virt. eigenvalues --    0.09043   0.09853   0.16070   0.16766   0.18498
  Beta virt. eigenvalues --    0.21833   0.25208   0.35482   0.42442   0.42683

 Mulliken charges and spin densities:
               1          2
     1  C   -0.247689  -0.000000
     2  C   -0.247689   0.000000
     3  H    0.123839   0.000000
     4  H    0.123849   0.000000
     5  H    0.123839  -0.000000
     6  H    0.123849  -0.000000
 Sum of Mulliken charges =  -0.00000   0.00000

 Dipole moment (field-independent basis, Debye):
    X=             -0.0000    Y=              0.0000    Z=             -0.0000  Tot=              0.0000
 Quadrupole moment (field-independent basis, Debye-Ang):
   XX=            -12.5901   YY=            -12.4490   ZZ=            -13.7912
   XY=             -0.0001   XZ=             -0.0000   YZ=             -0.0000

 Normal termination of Gaussian 16 at Tue Nov 19 10:20:59 2024.
