 Gaussian 16, Revision A.03,
 Gaussian 16:  ES64L-G16RevA.03 25-Dec-2016

 ---------------------------------------------------
 #p UM062X/6-311+G** force int=superfine pop=saveNBO
 ---------------------------------------------------

 -------------------
 Title Card Required
 -------------------
 Symbolic Z-matrix:
 Charge =  0 Multiplicity = 1

                         Standard orientation:
 ---------------------------------------------------------------------
 Center     Atomic      Atomic             Coordinates (Angstroms)
 Number     Number       Type             X           Y           Z
 ---------------------------------------------------------------------
      1         16           0        0.000000    0.000000    0.950200
      2         16           0        0.000000    0.000000   -0.950200
 ---------------------------------------------------------------------

 SCF Done:  E(UM062X) =  -796.307608128     A.U. after    9 cycles

 Unable to determine electronic state:  partially filled degenerate orbitals.
 Alpha  occ. eigenvalues --  -89.95528 -89.95528  -8.31907  -8.31885  -6.23995
 Alpha  occ. eigenvalues --   -6.23988  -6.23933  -6.23861  -6.23135  -6.23129
 Alpha  occ. eigenvalues --   -0.92957  -0.68770  -0.45104  -0.41880  -0.41586
 Alpha  occ. eigenvalues --   -0.27008
 Alpha virt. eigenvalues --   -0.14394   0.01123   0.03207   0.04347   0.05200
 Alpha virt. eigenvalues --    0.06875   0.07567   0.07843   0.08445   0.15137
 Alpha virt. eigenvalues --    0.28034   0.32843   0.34148   0.34572   0.36741

  Beta  occ. eigenvalues --  -89.95528 -89.95528  -8.31907  -8.31885  -6.23995
  Beta  occ. eigenvalues --   -6.23988  -6.23933  -6.23861  -6.23135  -6.23129
  Beta  occ. eigenvalues --   -0.92957  -0.68770  -0.45104  -0.41880  -0.41586
  Beta  occ. eigenvalues --   -0.27008
  Beta virt. eigenvalues --   -0.14394   0.01123   0.03207   0.04347   0.05200
  Beta virt. eigenvalues --    0.06875   0.07567   0.07843   0.08445   0.15137
  Beta virt. eigenvalues --    0.28034   0.32843   0.34148   0.34572   0.36741

 Mulliken charges and spin densities:
               1          2
     1  S   -0.000000   0.000000
     2  S   -0.000000   0.000000
 Sum of Mulliken charges =  -0.00000   0.00000

 Dipole moment (field-independent basis, Debye):
    X=             -0.0000    Y=              0.0000    Z=             -0.0000  Tot=              0.0000
 Quadrupole moment (field-independent basis, Debye-Ang):
   XX=            -23.6255   YY=            -28.8627   ZZ=            -25.2200
   XY=              0.0000   XZ=              0.0000   YZ=              0.0000

 Summary of Natural Population Analysis:

                                       Natural Population
                Natural  -----------------------------------------------
    Atom  No    Charge         Core      Valence    Rydberg      Total
 -----------------------------------------------------------------------
      S    1   -0.00000      4.99978     2.97526    0.02496     8.00000
      S    2    0.00000      4.99978     2.97526    0.02496     8.00000
 =======================================================================
   * Total *    0.00000      9.99956     5.95052    0.04991    16.00000

 Optimization completed.
    -- Stationary point found.
 Normal termination of Gaussian 16 at Wed Apr 16 06:23:17 2025.
