 Gaussian 16, Revision A.03,
 Gaussian 16:  ES64L-G16RevA.03 25-Dec-2016

 ---------------------------------------------------------
 #p opt UM062X/6-311+G** nosymm int=superfine SCF=NoVarAcc
 ---------------------------------------------------------

 -------------------
 Title Card Required
 -------------------
 Symbolic Z-matrix:
 Charge =  1 Multiplicity = 2

 SCF Done:  E(UM062X) =  -76.5844196454     A.U. after   82 cycles
 SCF Done:  E(UM062X) =  -76.5847739830     A.U. after   10 cycles
 Optimization completed.
    -- Stationary point found.

                          Input orientation:
 ---------------------------------------------------------------------
 Center     Atomic      Atomic             Coordinates (Angstroms)
 Number     Number       Type             X           Y           Z
 ---------------------------------------------------------------------
      1          6           0       -6.882160    0.000000    0.000000
      2          6           0        6.882160    0.000000    0.000000
      3          1           0       -8.000181    0.000000   -0.000000
      4          1           0        8.000180    0.000000   -0.000000
 ---------------------------------------------------------------------

 Alpha  occ. eigenvalues --  -10.90962 -10.90962  -0.94758  -0.94756  -0.59776
 Alpha  occ. eigenvalues --   -0.59775  -0.41930
 Alpha virt. eigenvalues --   -0.39867  -0.29695  -0.29695  -0.08721  -0.08720
 Alpha virt. eigenvalues --   -0.03403  -0.03403  -0.03235  -0.03235  -0.03169
 Alpha virt. eigenvalues --   -0.03167   0.02699   0.02699   0.30949   0.30950

  Beta  occ. eigenvalues --  -10.90547 -10.90547  -0.92396  -0.92396  -0.58383
  Beta  occ. eigenvalues --   -0.58383
  Beta virt. eigenvalues --   -0.27813  -0.27813  -0.26181  -0.26181  -0.08921
  Beta virt. eigenvalues --   -0.08921  -0.03182  -0.03181  -0.02606  -0.02606
  Beta virt. eigenvalues --   -0.01681  -0.01681   0.04503   0.04504   0.30289

 Mulliken charges and spin densities:
               1          2
     1  C    0.299024   0.515450
     2  C    0.299024   0.515450
     3  H    0.200976  -0.015450
     4  H    0.200976  -0.015450
 Sum of Mulliken charges =   1.00000   1.00000

 Dipole moment (field-independent basis, Debye):
    X=             -0.0000    Y=              0.0000    Z=             -0.0000  Tot=              0.0000
 Quadrupole moment (field-independent basis, Debye-Ang):
   XX=            270.1824   YY=            -11.4470   ZZ=             -9.4661
   XY=              0.0000   XZ=             -0.0000   YZ=              0.0212

 Normal termination of Gaussian 16 at Tue Dec  3 17:44:49 2024.
