 Gaussian 16, Revision A.03,
 Gaussian 16:  ES64L-G16RevA.03 25-Dec-2016

 --------------------------------------------
 #p opt UM062X/6-311+G** nosymm int=superfine
 --------------------------------------------

 -------------------
 Title Card Required
 -------------------
 Symbolic Z-matrix:
 Charge =  0 Multiplicity = 1

 SCF Done:  E(UM062X) =  -110.426147922     A.U. after   11 cycles
 SCF Done:  E(UM062X) =  -110.438423529     A.U. after   11 cycles
 SCF Done:  E(UM062X) =  -110.439040905     A.U. after   10 cycles
 Optimization completed.
    -- Stationary point found.

                          Input orientation:
 ---------------------------------------------------------------------
 Center     Atomic      Atomic             Coordinates (Angstroms)
 Number     Number       Type             X           Y           Z
 ---------------------------------------------------------------------
      1          7           0       -0.940428    0.000000    0.000000
      2          7           0        0.940428    0.000000    0.000000
      3          1           0       -0.966772   -1.031660    0.000000
      4          1           0        0.966772    1.031660    0.000000
 ---------------------------------------------------------------------

 Alpha  occ. eigenvalues --  -14.87238 -14.87224  -0.97837  -0.86909  -0.50604
 Alpha  occ. eigenvalues --   -0.47559  -0.39272  -0.35789
 Alpha virt. eigenvalues --   -0.14046  -0.02807   0.05853   0.08211   0.11351
 Alpha virt. eigenvalues --    0.12241   0.13041   0.15072   0.16387   0.18735
 Alpha virt. eigenvalues --    0.21503   0.26082   0.53986   0.57123   0.75595

  Beta  occ. eigenvalues --  -14.87238 -14.87224  -0.97837  -0.86909  -0.50604
  Beta  occ. eigenvalues --   -0.47559  -0.39272  -0.35789
  Beta virt. eigenvalues --   -0.14046  -0.02807   0.05853   0.08211   0.11351
  Beta virt. eigenvalues --    0.12241   0.13041   0.15072   0.16387   0.18735
  Beta virt. eigenvalues --    0.21503   0.26082   0.53986   0.57123   0.75595

 Mulliken charges and spin densities:
               1          2
     1  N   -0.250234  -0.000000
     2  N   -0.250234   0.000000
     3  H    0.250234   0.000000
     4  H    0.250234  -0.000000
 Sum of Mulliken charges =  -0.00000   0.00000

 Dipole moment (field-independent basis, Debye):
    X=             -0.0000    Y=              0.0000    Z=              0.0000  Tot=              0.0000
 Quadrupole moment (field-independent basis, Debye-Ang):
   XX=            -13.6811   YY=            -10.6644   ZZ=            -13.7181
   XY=              3.9108   XZ=             -0.0000   YZ=             -0.0000

 Normal termination of Gaussian 16 at Thu May 15 15:34:00 2025.
