 Gaussian 16, Revision A.03,
 Gaussian 16:  ES64L-G16RevA.03 25-Dec-2016

 --------------------------------------------
 #p opt UM062X/6-311+G** nosymm int=superfine
 --------------------------------------------

 -------------------
 Title Card Required
 -------------------
 Symbolic Z-matrix:
 Charge =  0 Multiplicity = 1

 SCF Done:  E(UM062X) =  -579.896656887     A.U. after   10 cycles
 SCF Done:  E(UM062X) =  -579.902665461     A.U. after   10 cycles
 SCF Done:  E(UM062X) =  -579.902769546     A.U. after    9 cycles
 SCF Done:  E(UM062X) =  -579.902772618     A.U. after    9 cycles
 SCF Done:  E(UM062X) =  -579.924215606     A.U. after   19 cycles
 SCF Done:  E(UM062X) =  -579.955841066     A.U. after   11 cycles
 SCF Done:  E(UM062X) =  -579.989234425     A.U. after   10 cycles
 SCF Done:  E(UM062X) =  -579.990481140     A.U. after    9 cycles
 SCF Done:  E(UM062X) =  -579.990533976     A.U. after    8 cycles
 SCF Done:  E(UM062X) =  -579.990555100     A.U. after    8 cycles
 SCF Done:  E(UM062X) =  -579.990555144     A.U. after    6 cycles
 Optimization completed.
    -- Stationary point found.

                          Input orientation:
 ---------------------------------------------------------------------
 Center     Atomic      Atomic             Coordinates (Angstroms)
 Number     Number       Type             X           Y           Z
 ---------------------------------------------------------------------
      1         14           0       -1.353705    0.000000    0.000000
      2         14           0        1.353705    0.000000    0.000000
      3          1           0       -1.450839    1.515408   -0.000008
      4          1           0        1.450761    1.515414   -0.000001
 ---------------------------------------------------------------------

 Alpha  occ. eigenvalues --  -67.02211 -67.02211  -5.56777  -5.56777  -3.87982
 Alpha  occ. eigenvalues --   -3.87981  -3.87453  -3.87446  -3.87331  -3.87327
 Alpha  occ. eigenvalues --   -0.57834  -0.51330  -0.35716  -0.29106  -0.23783
 Alpha virt. eigenvalues --   -0.11441  -0.05218   0.00333   0.02099   0.03711
 Alpha virt. eigenvalues --    0.03967   0.05347   0.06094   0.06443   0.06792
 Alpha virt. eigenvalues --    0.07420   0.10536   0.13305   0.27399   0.29241

  Beta  occ. eigenvalues --  -67.02211 -67.02211  -5.56777  -5.56777  -3.87982
  Beta  occ. eigenvalues --   -3.87981  -3.87453  -3.87446  -3.87331  -3.87327
  Beta  occ. eigenvalues --   -0.57834  -0.51330  -0.35716  -0.29106  -0.23783
  Beta virt. eigenvalues --   -0.11441  -0.05218   0.00333   0.02099   0.03711
  Beta virt. eigenvalues --    0.03967   0.05347   0.06094   0.06443   0.06792
  Beta virt. eigenvalues --    0.07420   0.10536   0.13305   0.27399   0.29241

 Mulliken charges and spin densities:
               1          2
     1  Si   0.151889  -0.000000
     2  Si   0.151900   0.000000
     3  H   -0.151894   0.000000
     4  H   -0.151895  -0.000000
 Sum of Mulliken charges =  -0.00000   0.00000

 Dipole moment (field-independent basis, Debye):
    X=              0.0001    Y=              0.6025    Z=             -0.0000  Tot=              0.6025
 Quadrupole moment (field-independent basis, Debye-Ang):
   XX=            -35.6340   YY=            -33.0419   ZZ=            -22.8899
   XY=             -0.0002   XZ=              0.0000   YZ=              0.0000

 Normal termination of Gaussian 16 at Mon Apr 21 21:25:52 2025.
