 Gaussian 16, Revision A.03,
 Gaussian 16:  ES64L-G16RevA.03 25-Dec-2016

 --------------------------------------------
 #p opt UM062X/6-311+G** nosymm int=superfine
 --------------------------------------------

 -------------------
 Title Card Required
 -------------------
 Symbolic Z-matrix:
 Charge =  0 Multiplicity = 1

 SCF Done:  E(UM062X) =  -683.736924622     A.U. after   10 cycles
 SCF Done:  E(UM062X) =  -683.738079620     A.U. after   10 cycles
 SCF Done:  E(UM062X) =  -683.738115740     A.U. after    8 cycles
 Optimization completed.
    -- Stationary point found.

                          Input orientation:
 ---------------------------------------------------------------------
 Center     Atomic      Atomic             Coordinates (Angstroms)
 Number     Number       Type             X           Y           Z
 ---------------------------------------------------------------------
      1         15           0       -1.409490    0.000000    0.000000
      2         15           0        1.409490    0.000000    0.000000
      3          1           0       -1.378851   -1.421290   -0.000000
      4          1           0        1.378851    1.421290   -0.000000
 ---------------------------------------------------------------------

 Alpha  occ. eigenvalues --  -78.07668 -78.07668  -6.89638  -6.89636  -5.01090
 Alpha  occ. eigenvalues --   -5.01089  -5.01037  -5.01035  -5.00871  -5.00871
 Alpha  occ. eigenvalues --   -0.70565  -0.65883  -0.40936  -0.39757  -0.30691
 Alpha  occ. eigenvalues --   -0.26933
 Alpha virt. eigenvalues --   -0.13504  -0.06986   0.01901   0.03389   0.03881
 Alpha virt. eigenvalues --    0.04625   0.04957   0.06147   0.06779   0.08559
 Alpha virt. eigenvalues --    0.09334   0.12648   0.28210   0.29843   0.30194

  Beta  occ. eigenvalues --  -78.07668 -78.07668  -6.89638  -6.89636  -5.01090
  Beta  occ. eigenvalues --   -5.01089  -5.01037  -5.01035  -5.00871  -5.00871
  Beta  occ. eigenvalues --   -0.70565  -0.65883  -0.40936  -0.39757  -0.30691
  Beta  occ. eigenvalues --   -0.26933
  Beta virt. eigenvalues --   -0.13504  -0.06986   0.01901   0.03389   0.03881
  Beta virt. eigenvalues --    0.04625   0.04957   0.06147   0.06779   0.08559
  Beta virt. eigenvalues --    0.09334   0.12648   0.28210   0.29843   0.30194

 Mulliken charges and spin densities:
               1          2
     1  P    0.007518   0.000000
     2  P    0.007517  -0.000000
     3  H   -0.007517  -0.000000
     4  H   -0.007517   0.000000
 Sum of Mulliken charges =  -0.00000   0.00000

 Dipole moment (field-independent basis, Debye):
    X=             -0.0000    Y=              0.0000    Z=             -0.0000  Tot=              0.0000
 Quadrupole moment (field-independent basis, Debye-Ang):
   XX=            -28.0021   YY=            -28.0389   ZZ=            -30.3023
   XY=              2.6624   XZ=             -0.0000   YZ=             -0.0000

 Normal termination of Gaussian 16 at Mon Apr 21 21:11:32 2025.
