 Gaussian 16, Revision A.03,
 Gaussian 16:  ES64L-G16RevA.03 25-Dec-2016

 ---------------------------------------------------
 #p UM062X/6-311+G** force int=superfine pop=saveNBO
 ---------------------------------------------------

 -------------------
 Title Card Required
 -------------------
 Symbolic Z-matrix:
 Charge =  0 Multiplicity = 1

                         Standard orientation:
 ---------------------------------------------------------------------
 Center     Atomic      Atomic             Coordinates (Angstroms)
 Number     Number       Type             X           Y           Z
 ---------------------------------------------------------------------
      1          6           0        0.000000    0.000000   -1.241237
      2          8           0        0.000000    0.000000    0.930927
 ---------------------------------------------------------------------

 SCF Done:  E(UM062X) =  -112.860242107     A.U. after   17 cycles

 The electronic state is 1-SG.
 Alpha  occ. eigenvalues --  -19.69951 -10.85051  -1.00283  -0.72254  -0.38881
 Alpha  occ. eigenvalues --   -0.36705  -0.36705
 Alpha virt. eigenvalues --   -0.18003  -0.18003  -0.10507   0.03055   0.06199
 Alpha virt. eigenvalues --    0.06199   0.06890   0.20087   0.22611   0.22611
 Alpha virt. eigenvalues --    0.32128   0.51172   0.51172   0.53237   0.66960

  Beta  occ. eigenvalues --  -19.69951 -10.85051  -1.00283  -0.72254  -0.38881
  Beta  occ. eigenvalues --   -0.36705  -0.36705
  Beta virt. eigenvalues --   -0.18003  -0.18003  -0.10507   0.03055   0.06199
  Beta virt. eigenvalues --    0.06199   0.06890   0.20087   0.22611   0.22611
  Beta virt. eigenvalues --    0.32128   0.51172   0.51172   0.53237   0.66960

 Mulliken charges and spin densities:
               1          2
     1  C    0.339670   0.000000
     2  O   -0.339670  -0.000000
 Sum of Mulliken charges =   0.00000  -0.00000

 Dipole moment (field-independent basis, Debye):
    X=              0.0000    Y=              0.0000    Z=             -3.6937  Tot=              3.6937
 Quadrupole moment (field-independent basis, Debye-Ang):
   XX=            -11.5738   YY=            -11.5738   ZZ=            -10.6429
   XY=              0.0000   XZ=              0.0000   YZ=              0.0000

 Summary of Natural Population Analysis:

                                       Natural Population
                Natural  -----------------------------------------------
    Atom  No    Charge         Core      Valence    Rydberg      Total
 -----------------------------------------------------------------------
      C    1    0.28712      1.00000     1.71179    0.00110     2.71288
      O    2   -0.28712      1.00000     3.28618    0.00094     4.28712
 =======================================================================
   * Total *   -0.00000      2.00000     4.99796    0.00204     7.00000

 Normal termination of Gaussian 16 at Mon Apr 21 19:28:31 2025.
