 Gaussian 16, Revision A.03,
 Gaussian 16:  ES64L-G16RevA.03 25-Dec-2016

 --------------------------------------------
 #p opt UM062X/6-311+G** nosymm int=superfine
 --------------------------------------------

 -------------------
 Title Card Required
 -------------------
 Symbolic Z-matrix:
 Charge =  0 Multiplicity = 1

 SCF Done:  E(UM062X) =  -114.382789594     A.U. after   11 cycles
 SCF Done:  E(UM062X) =  -114.385074006     A.U. after    9 cycles
 SCF Done:  E(UM062X) =  -114.385507704     A.U. after    9 cycles
 SCF Done:  E(UM062X) =  -114.385510078     A.U. after    8 cycles
 SCF Done:  E(UM062X) =  -114.385497101     A.U. after    9 cycles
 SCF Done:  E(UM062X) =  -114.385507604     A.U. after    9 cycles
 SCF Done:  E(UM062X) =  -114.385509926     A.U. after    8 cycles
 Optimization completed.
    -- Stationary point found.

                          Input orientation:
 ---------------------------------------------------------------------
 Center     Atomic      Atomic             Coordinates (Angstroms)
 Number     Number       Type             X           Y           Z
 ---------------------------------------------------------------------
      1          6           0       -0.773311    0.000000    0.000000
      2          8           0        0.773311    0.000000    0.000000
      3          1           0       -1.257447   -0.969210   -0.000698
      4          1           0       -1.257450    0.969209   -0.000699
 ---------------------------------------------------------------------

 Alpha  occ. eigenvalues --  -19.66626 -10.68612  -1.05462  -0.77771  -0.57610
 Alpha  occ. eigenvalues --   -0.47517  -0.39021  -0.36590
 Alpha virt. eigenvalues --   -0.08579   0.01309   0.03982   0.04299   0.06653
 Alpha virt. eigenvalues --    0.13807   0.17509   0.19559   0.21345   0.24133
 Alpha virt. eigenvalues --    0.26474   0.32942   0.42330   0.48607   0.54712

  Beta  occ. eigenvalues --  -19.66626 -10.68612  -1.05462  -0.77771  -0.57610
  Beta  occ. eigenvalues --   -0.47517  -0.39021  -0.36590
  Beta virt. eigenvalues --   -0.08579   0.01309   0.03982   0.04299   0.06653
  Beta virt. eigenvalues --    0.13807   0.17509   0.19559   0.21345   0.24133
  Beta virt. eigenvalues --    0.26474   0.32942   0.42330   0.48607   0.54712

 Mulliken charges and spin densities:
               1          2
     1  C   -0.070376  -0.000000
     2  O   -0.306617   0.000000
     3  H    0.188496   0.000000
     4  H    0.188496  -0.000000
 Sum of Mulliken charges =  -0.00000  -0.00000

 Dipole moment (field-independent basis, Debye):
    X=             -3.7145    Y=             -0.0000    Z=             -0.0011  Tot=              3.7145
 Quadrupole moment (field-independent basis, Debye-Ang):
   XX=            -11.2756   YY=            -11.3535   ZZ=            -12.6432
   XY=             -0.0000   XZ=              0.0010   YZ=             -0.0000

 Normal termination of Gaussian 16 at Mon Apr 21 18:47:23 2025.
