 Gaussian 16, Revision A.03,
 Gaussian 16:  ES64L-G16RevA.03 25-Dec-2016

 --------------------------------------------
 #p opt UM062X/6-311+G** nosymm int=superfine
 --------------------------------------------

 -------------------
 Title Card Required
 -------------------
 Symbolic Z-matrix:
 Charge =  0 Multiplicity = 1

 SCF Done:  E(UM062X) =  -579.900351271     A.U. after   10 cycles
 SCF Done:  E(UM062X) =  -579.905434243     A.U. after   10 cycles
 SCF Done:  E(UM062X) =  -579.905493303     A.U. after    9 cycles
 SCF Done:  E(UM062X) =  -579.905493549     A.U. after    8 cycles
 SCF Done:  E(UM062X) =  -579.923526947     A.U. after   13 cycles
 SCF Done:  E(UM062X) =  -579.951957651     A.U. after   12 cycles
 SCF Done:  E(UM062X) =  -579.984263489     A.U. after   10 cycles
 SCF Done:  E(UM062X) =  -579.985974620     A.U. after    9 cycles
 SCF Done:  E(UM062X) =  -579.985980541     A.U. after    8 cycles
 SCF Done:  E(UM062X) =  -579.985981297     A.U. after    7 cycles
 Optimization completed.
    -- Stationary point found.

                          Input orientation:
 ---------------------------------------------------------------------
 Center     Atomic      Atomic             Coordinates (Angstroms)
 Number     Number       Type             X           Y           Z
 ---------------------------------------------------------------------
      1         14           0       -1.428705    0.000000    0.000000
      2         14           0        1.428705    0.000000    0.000000
      3          1           0       -1.485920    1.518276    0.000002
      4          1           0        1.485825    1.518281   -0.000000
 ---------------------------------------------------------------------

 Alpha  occ. eigenvalues --  -67.02551 -67.02550  -5.57050  -5.57050  -3.88239
 Alpha  occ. eigenvalues --   -3.88239  -3.87717  -3.87713  -3.87602  -3.87600
 Alpha  occ. eigenvalues --   -0.56984  -0.51741  -0.34903  -0.29597  -0.23314
 Alpha virt. eigenvalues --   -0.10901  -0.05622  -0.00722   0.02236   0.03727
 Alpha virt. eigenvalues --    0.04106   0.05445   0.05489   0.06323   0.06698
 Alpha virt. eigenvalues --    0.07774   0.10249   0.12927   0.28063   0.29807

  Beta  occ. eigenvalues --  -67.02551 -67.02550  -5.57050  -5.57050  -3.88239
  Beta  occ. eigenvalues --   -3.88239  -3.87717  -3.87713  -3.87602  -3.87600
  Beta  occ. eigenvalues --   -0.56984  -0.51741  -0.34903  -0.29597  -0.23314
  Beta virt. eigenvalues --   -0.10901  -0.05622  -0.00722   0.02236   0.03727
  Beta virt. eigenvalues --    0.04106   0.05445   0.05489   0.06323   0.06698
  Beta virt. eigenvalues --    0.07774   0.10249   0.12927   0.28063   0.29807

 Mulliken charges and spin densities:
               1          2
     1  Si   0.152758  -0.000000
     2  Si   0.152769   0.000000
     3  H   -0.152763  -0.000000
     4  H   -0.152764   0.000000
 Sum of Mulliken charges =  -0.00000   0.00000

 Dipole moment (field-independent basis, Debye):
    X=              0.0001    Y=              0.5307    Z=              0.0000  Tot=              0.5307
 Quadrupole moment (field-independent basis, Debye-Ang):
   XX=            -35.1283   YY=            -33.1033   ZZ=            -23.0473
   XY=             -0.0002   XZ=             -0.0000   YZ=             -0.0000

 Normal termination of Gaussian 16 at Mon Apr 21 21:25:37 2025.
