 Gaussian 16, Revision A.03,
 Gaussian 16:  ES64L-G16RevA.03 25-Dec-2016

 --------------------------------------------
 #p opt UM062X/6-311+G** nosymm int=superfine
 --------------------------------------------

 -------------------
 Title Card Required
 -------------------
 Symbolic Z-matrix:
 Charge =  0 Multiplicity = 3

 SCF Done:  E(UM062X) =  -341.858265028     A.U. after   11 cycles
 SCF Done:  E(UM062X) =  -341.858265630     A.U. after    8 cycles
 Optimization completed.
    -- Stationary point found.

                          Input orientation:
 ---------------------------------------------------------------------
 Center     Atomic      Atomic             Coordinates (Angstroms)
 Number     Number       Type             X           Y           Z
 ---------------------------------------------------------------------
      1         15           0        0.830535   -0.000645    0.000001
      2          1           0        1.010788   -1.410234    0.001261
 ---------------------------------------------------------------------

 Alpha  occ. eigenvalues --  -78.04810  -6.86735  -4.99045  -4.99044  -4.98037
 Alpha  occ. eigenvalues --   -0.69959  -0.40427  -0.30268  -0.30267
 Alpha virt. eigenvalues --    0.03843   0.05016   0.05356   0.05357   0.08638
 Alpha virt. eigenvalues --    0.30721   0.32798   0.32798   0.40145   0.51330
 Alpha virt. eigenvalues --    0.64548   0.64549   0.66986   0.66987   0.89510

  Beta  occ. eigenvalues --  -78.03375  -6.86285  -4.97559  -4.96810  -4.96810
  Beta  occ. eigenvalues --   -0.61797  -0.37342
  Beta virt. eigenvalues --   -0.08850  -0.08850   0.00742   0.04474   0.07494
  Beta virt. eigenvalues --    0.07494   0.09094   0.29063   0.29556   0.29556
  Beta virt. eigenvalues --    0.41526   0.53154   0.71546   0.71546   0.78950

 Mulliken charges and spin densities:
               1          2
     1  P    0.033421   2.052727
     2  H   -0.033421  -0.052727
 Sum of Mulliken charges =  -0.00000   2.00000

 Dipole moment (field-independent basis, Debye):
    X=              0.0888    Y=             -0.6952    Z=              0.0006  Tot=              0.7008
 Quadrupole moment (field-independent basis, Debye-Ang):
   XX=            -14.2282   YY=            -14.1699   ZZ=            -14.3791
   XY=             -0.6041   XZ=              0.0005   YZ=             -0.0002

 1\1\GINC-NODE02\FOpt\UM062X\6-311+G(d,p)\H1P1(3)\SZHAO\16-Apr-2025\0\\
 #p opt UM062X/6-311+G** nosymm int=superfine\\Title Card Required\\0,3
 \P,0.8305349492,-0.0006449143,0.0000005765\H,1.0107880108,-1.410234255
 7,0.0012605735\\Version=ES64L-G16RevA.03\HF=-341.8582656\S2=2.006859\S
 2-1=0.\S2A=2.000012\RMSD=2.166e-09\RMSF=2.436e-05\Dipole=0.0349549,-0.
 2735083,0.0002436\Quadrupole=0.0229392,0.0663099,-0.0892491,-0.4491314
 ,0.0004005,-0.0001389\PG=C*V [C*(H1P1)]\\@

 Normal termination of Gaussian 16 at Wed Apr 16 08:38:49 2025.
