 Gaussian 16, Revision A.03,
 Gaussian 16:  ES64L-G16RevA.03 25-Dec-2016

 --------------------------------------------
 #p opt UM062X/6-311+G** nosymm int=superfine
 --------------------------------------------

 -------------------
 Title Card Required
 -------------------
 Symbolic Z-matrix:
 Charge =  0 Multiplicity = 1

 SCF Done:  E(UM062X) =  -582.364212222     A.U. after   10 cycles
 SCF Done:  E(UM062X) =  -582.366553692     A.U. after    9 cycles
 SCF Done:  E(UM062X) =  -582.367248358     A.U. after    9 cycles
 SCF Done:  E(UM062X) =  -582.367248789     A.U. after    7 cycles
 Optimization completed.
    -- Stationary point found.

                          Input orientation:
 ---------------------------------------------------------------------
 Center     Atomic      Atomic             Coordinates (Angstroms)
 Number     Number       Type             X           Y           Z
 ---------------------------------------------------------------------
      1         14           0       -2.469819    0.000000    0.000000
      2         14           0        2.469819    0.000000    0.000000
      3          1           0        2.868943   -1.420981   -0.000055
      4          1           0       -2.868715   -0.710468    1.230696
      5          1           0        2.868850    0.710644   -1.230551
      6          1           0        2.868724    0.710521    1.230663
      7          1           0       -2.868947    1.420980   -0.000111
      8          1           0       -2.868856   -0.710699   -1.230518
 ---------------------------------------------------------------------

 Alpha  occ. eigenvalues --  -67.01916 -67.01916  -5.56835  -5.56835  -3.88071
 Alpha  occ. eigenvalues --   -3.88071  -3.87823  -3.87823  -3.87823  -3.87823
 Alpha  occ. eigenvalues --   -0.61189  -0.60983  -0.42187  -0.42186  -0.42152
 Alpha  occ. eigenvalues --   -0.42151  -0.21173
 Alpha virt. eigenvalues --   -0.11667   0.01967   0.02967   0.02968   0.03211
 Alpha virt. eigenvalues --    0.04956   0.04956   0.06304   0.06646   0.07574
 Alpha virt. eigenvalues --    0.07574   0.08420   0.08421   0.11180   0.15451

  Beta  occ. eigenvalues --  -67.01916 -67.01916  -5.56835  -5.56835  -3.88071
  Beta  occ. eigenvalues --   -3.88071  -3.87823  -3.87823  -3.87823  -3.87823
  Beta  occ. eigenvalues --   -0.61189  -0.60983  -0.42187  -0.42186  -0.42152
  Beta  occ. eigenvalues --   -0.42151  -0.21173
  Beta virt. eigenvalues --   -0.11667   0.01967   0.02967   0.02968   0.03211
  Beta virt. eigenvalues --    0.04956   0.04956   0.06304   0.06646   0.07574
  Beta virt. eigenvalues --    0.07574   0.08420   0.08421   0.11180   0.15451

 Mulliken charges and spin densities:
               1          2
     1  Si   0.263789  -0.000000
     2  Si   0.263788   0.000000
     3  H   -0.087927   0.000000
     4  H   -0.087930  -0.000000
     5  H   -0.087931   0.000000
     6  H   -0.087930   0.000000
     7  H   -0.087927  -0.000000
     8  H   -0.087931  -0.000000
 Sum of Mulliken charges =  -0.00000  -0.00000

 Dipole moment (field-independent basis, Debye):
    X=              0.0000    Y=             -0.0000    Z=              0.0000  Tot=              0.0000
 Quadrupole moment (field-independent basis, Debye-Ang):
   XX=            -27.8249   YY=            -32.2164   ZZ=            -32.2166
   XY=             -0.0007   XZ=              0.0000   YZ=              0.0000

 Normal termination of Gaussian 16 at Mon Apr 21 20:21:55 2025.
