 Gaussian 16, Revision A.03,
 Gaussian 16:  ES64L-G16RevA.03 25-Dec-2016

 --------------------------------------------
 #p opt UM062X/6-311+G** nosymm int=superfine
 --------------------------------------------

 -------------------
 Title Card Required
 -------------------
 Symbolic Z-matrix:
 Charge =  0 Multiplicity = 1

 SCF Done:  E(UM062X) =  -76.7775916890     A.U. after   10 cycles
 SCF Done:  E(UM062X) =  -76.8183510220     A.U. after   10 cycles
 SCF Done:  E(UM062X) =  -76.8895932221     A.U. after   10 cycles
 SCF Done:  E(UM062X) =  -76.9684311656     A.U. after   10 cycles
 SCF Done:  E(UM062X) =  -76.9684349065     A.U. after    7 cycles
 Optimization completed.
    -- Stationary point found.

                          Input orientation:
 ---------------------------------------------------------------------
 Center     Atomic      Atomic             Coordinates (Angstroms)
 Number     Number       Type             X           Y           Z
 ---------------------------------------------------------------------
      1          6           0       -0.957625    0.000000    0.000000
      2          6           0        0.957625    0.000000    0.000000
      3          1           0       -2.040331   -0.000000    0.000000
      4          1           0        2.040365    0.000000    0.000000
 ---------------------------------------------------------------------

 Alpha  occ. eigenvalues --  -10.68316 -10.68296  -0.76334  -0.70955  -0.50333
 Alpha  occ. eigenvalues --   -0.28832  -0.28832
 Alpha virt. eigenvalues --   -0.07647  -0.07647  -0.05951   0.02253   0.03495
 Alpha virt. eigenvalues --    0.08643   0.08643   0.09801   0.10684   0.10684
 Alpha virt. eigenvalues --    0.17111   0.21723   0.24963   0.46840   0.57001

  Beta  occ. eigenvalues --  -10.68316 -10.68296  -0.76334  -0.70955  -0.50333
  Beta  occ. eigenvalues --   -0.28832  -0.28832
  Beta virt. eigenvalues --   -0.07647  -0.07647  -0.05951   0.02253   0.03495
  Beta virt. eigenvalues --    0.08643   0.08643   0.09801   0.10684   0.10684
  Beta virt. eigenvalues --    0.17111   0.21723   0.24963   0.46840   0.57001

 Mulliken charges and spin densities:
               1          2
     1  C   -0.264265  -0.000000
     2  C   -0.264266   0.000000
     3  H    0.264261   0.000000
     4  H    0.264270  -0.000000
 Sum of Mulliken charges =  -0.00000  -0.00000

 Dipole moment (field-independent basis, Debye):
    X=              0.0001    Y=             -0.0000    Z=              0.0000  Tot=              0.0001
 Quadrupole moment (field-independent basis, Debye-Ang):
   XX=             -4.0828   YY=            -16.3501   ZZ=            -16.3501
   XY=              0.0000   XZ=              0.0000   YZ=              0.0000

 Normal termination of Gaussian 16 at Tue Dec  3 20:58:46 2024.
