 Gaussian 16, Revision A.03,
 Gaussian 16:  ES64L-G16RevA.03 25-Dec-2016

 ----------------------------------------------------------------------
 #p opt UM062X/6-311+G** nosymm int=superfine SCF=(MaxCycle=200,NoVarAc
 c,noincfock) guess=read
 ----------------------------------------------------------------------

 -------------------
 Title Card Required
 -------------------
 Symbolic Z-matrix:
 Charge =  0 Multiplicity = 1

 SCF Done:  E(UM062X) =  -151.300061884     A.U. after   21 cycles
 SCF Done:  E(UM062X) =  -151.300460079     A.U. after   18 cycles
 SCF Done:  E(UM062X) =  -151.300873999     A.U. after   31 cycles
 SCF Done:  E(UM062X) =  -151.301394460     A.U. after   18 cycles
 SCF Done:  E(UM062X) =  -151.301681842     A.U. after   23 cycles
 SCF Done:  E(UM062X) =  -151.301936768     A.U. after   18 cycles
 SCF Done:  E(UM062X) =  -151.302022776     A.U. after   24 cycles
 SCF Done:  E(UM062X) =  -151.302074729     A.U. after   28 cycles
 SCF Done:  E(UM062X) =  -151.302089984     A.U. after   16 cycles
 SCF Done:  E(UM062X) =  -151.302091883     A.U. after   19 cycles
 SCF Done:  E(UM062X) =  -151.302091909     A.U. after   17 cycles
 Optimization completed.
    -- Stationary point found.

                          Input orientation:
 ---------------------------------------------------------------------
 Center     Atomic      Atomic             Coordinates (Angstroms)
 Number     Number       Type             X           Y           Z
 ---------------------------------------------------------------------
      1          8           0       -2.011938    0.000000    0.000000
      2          8           0        2.011938    0.000000    0.000000
      3          1           0       -1.821702   -0.755020   -0.584658
      4          1           0        1.822093    0.754213    0.585824
 ---------------------------------------------------------------------

 Alpha  occ. eigenvalues --  -19.72265 -19.72264  -1.12890  -1.12756  -0.56665
 Alpha  occ. eigenvalues --   -0.56610  -0.44087  -0.44009  -0.35656
 Alpha virt. eigenvalues --   -0.27609   0.05134   0.07290   0.15250   0.15327
 Alpha virt. eigenvalues --    0.16327   0.18041   0.19336   0.19843   0.20218
 Alpha virt. eigenvalues --    0.30230   0.49337   0.50563   0.99651   1.00975

  Beta  occ. eigenvalues --  -19.72265 -19.72264  -1.12890  -1.12756  -0.56665
  Beta  occ. eigenvalues --   -0.56610  -0.44087  -0.44009  -0.35656
  Beta virt. eigenvalues --   -0.27609   0.05134   0.07290   0.15250   0.15327
  Beta virt. eigenvalues --    0.16327   0.18041   0.19336   0.19843   0.20218
  Beta virt. eigenvalues --    0.30230   0.49337   0.50563   0.99651   1.00975

 Mulliken charges and spin densities:
               1          2
     1  O   -0.266370  -0.000000
     2  O   -0.266392   0.000000
     3  H    0.266383  -0.000000
     4  H    0.266379  -0.000000
 Sum of Mulliken charges =  -0.00000   0.00000

 Dipole moment (field-independent basis, Debye):
    X=              0.0006    Y=             -0.0016    Z=              0.0023  Tot=              0.0028
 Quadrupole moment (field-independent basis, Debye-Ang):
   XX=            -13.7492   YY=            -10.6193   ZZ=            -11.8738
   XY=              5.5603   XZ=              4.3122   YZ=              2.4413

 Normal termination of Gaussian 16 at Tue Apr 22 00:25:56 2025.
