 Gaussian 16, Revision A.03,
 Gaussian 16:  ES64L-G16RevA.03 25-Dec-2016

 --------------------------------------------
 #p opt UM062X/6-311+G** nosymm int=superfine
 --------------------------------------------

 -------------------
 Title Card Required
 -------------------
 Symbolic Z-matrix:
 Charge =  0 Multiplicity = 1

 SCF Done:  E(UM062X) =  -79.6124198051     A.U. after    8 cycles
 SCF Done:  E(UM062X) =  -79.6500944285     A.U. after    9 cycles
 SCF Done:  E(UM062X) =  -79.6866368979     A.U. after   10 cycles
 SCF Done:  E(UM062X) =  -79.6976110791     A.U. after   10 cycles
 SCF Done:  E(UM062X) =  -79.6979392150     A.U. after    8 cycles
 SCF Done:  E(UM062X) =  -79.6979431610     A.U. after    7 cycles
 Optimization completed.
    -- Stationary point found.

                          Input orientation:
 ---------------------------------------------------------------------
 Center     Atomic      Atomic             Coordinates (Angstroms)
 Number     Number       Type             X           Y           Z
 ---------------------------------------------------------------------
      1          6           0       -1.160591    0.000000    0.000000
      2          6           0        1.160710    0.000000    0.000000
      3          1           0        1.392350   -0.915377    0.529681
      4          1           0       -1.392223   -0.916413   -0.527894
      5          1           0        1.392345    0.916413    0.527892
      6          1           0        1.392333   -0.001031   -1.057586
      7          1           0       -1.392231    0.915377   -0.529681
      8          1           0       -1.392218    0.001030    1.057585
 ---------------------------------------------------------------------

 Alpha  occ. eigenvalues --  -10.55454 -10.55449  -0.77743  -0.73770  -0.48260
 Alpha  occ. eigenvalues --   -0.48260  -0.45865  -0.45865  -0.29461
 Alpha virt. eigenvalues --   -0.00318   0.02480   0.05562   0.05562   0.07572
 Alpha virt. eigenvalues --    0.08308   0.08308   0.09944   0.13130   0.18160
 Alpha virt. eigenvalues --    0.18160   0.22083   0.22083   0.24364   0.26370

  Beta  occ. eigenvalues --  -10.55454 -10.55449  -0.77743  -0.73770  -0.48260
  Beta  occ. eigenvalues --   -0.48260  -0.45865  -0.45865  -0.29461
  Beta virt. eigenvalues --   -0.00318   0.02480   0.05562   0.05562   0.07572
  Beta virt. eigenvalues --    0.08308   0.08308   0.09944   0.13130   0.18160
  Beta virt. eigenvalues --    0.18160   0.22083   0.22083   0.24364   0.26370

 Mulliken charges and spin densities:
               1          2
     1  C   -0.507417  -0.000000
     2  C   -0.507416   0.000000
     3  H    0.169139  -0.000000
     4  H    0.169139   0.000000
     5  H    0.169139  -0.000000
     6  H    0.169139  -0.000000
     7  H    0.169139   0.000000
     8  H    0.169139  -0.000000
 Sum of Mulliken charges =  -0.00000   0.00000

 Dipole moment (field-independent basis, Debye):
    X=              0.0000    Y=             -0.0000    Z=             -0.0000  Tot=              0.0000
 Quadrupole moment (field-independent basis, Debye-Ang):
   XX=            -15.5425   YY=            -14.8200   ZZ=            -14.8200
   XY=             -0.0000   XZ=              0.0000   YZ=             -0.0000

 Normal termination of Gaussian 16 at Tue Nov 19 12:18:30 2024.
