 Gaussian 16, Revision A.03,
 Gaussian 16:  ES64L-G16RevA.03 25-Dec-2016

 --------------------------------------------
 #p opt UM062X/6-311+G** nosymm int=superfine
 --------------------------------------------

 -------------------
 Title Card Required
 -------------------
 Symbolic Z-matrix:
 Charge =  0 Multiplicity = 1

 SCF Done:  E(UM062X) =  -151.380072969     A.U. after   14 cycles
 SCF Done:  E(UM062X) =  -151.384210386     A.U. after   18 cycles
 SCF Done:  E(UM062X) =  -151.387642683     A.U. after   20 cycles
 SCF Done:  E(UM062X) =  -151.387761438     A.U. after   20 cycles
 SCF Done:  E(UM062X) =  -151.387792431     A.U. after   18 cycles
 SCF Done:  E(UM062X) =  -151.387792499     A.U. after   10 cycles
 Optimization completed.
    -- Stationary point found.

                          Input orientation:
 ---------------------------------------------------------------------
 Center     Atomic      Atomic             Coordinates (Angstroms)
 Number     Number       Type             X           Y           Z
 ---------------------------------------------------------------------
      1          8           0       -1.236938    0.000000    0.000000
      2          8           0        1.236938    0.000000    0.000000
      3          1           0       -1.107868   -0.776504   -0.572581
      4          1           0        1.107860    0.776619    0.572424
 ---------------------------------------------------------------------

 Alpha  occ. eigenvalues --  -19.72693 -19.72691  -1.13782  -1.11657  -0.57373
 Alpha  occ. eigenvalues --   -0.55824  -0.44763  -0.43100  -0.41066
 Alpha virt. eigenvalues --   -0.21636   0.05555   0.09195   0.14702   0.15687
 Alpha virt. eigenvalues --    0.17593   0.19431   0.21325   0.22533   0.25198
 Alpha virt. eigenvalues --    0.32991   0.49052   0.53283   0.92658   0.97907

  Beta  occ. eigenvalues --  -19.72693 -19.72691  -1.13782  -1.11657  -0.57373
  Beta  occ. eigenvalues --   -0.55824  -0.44763  -0.43100  -0.41066
  Beta virt. eigenvalues --   -0.21636   0.05555   0.09195   0.14702   0.15687
  Beta virt. eigenvalues --    0.17593   0.19431   0.21325   0.22533   0.25198
  Beta virt. eigenvalues --    0.32991   0.49052   0.53283   0.92658   0.97907

 Mulliken charges and spin densities:
               1          2
     1  O   -0.272080   0.000000
     2  O   -0.272079  -0.000000
     3  H    0.272080  -0.000000
     4  H    0.272080   0.000000
 Sum of Mulliken charges =  -0.00000   0.00000

 Dipole moment (field-independent basis, Debye):
    X=             -0.0000    Y=              0.0002    Z=             -0.0003  Tot=              0.0004
 Quadrupole moment (field-independent basis, Debye-Ang):
   XX=            -12.0612   YY=            -10.3319   ZZ=            -11.8580
   XY=              3.5719   XZ=              2.6333   YZ=              2.4646

 Normal termination of Gaussian 16 at Mon Apr 21 21:35:53 2025.
