 Gaussian 16, Revision A.03,
 Gaussian 16:  ES64L-G16RevA.03 25-Dec-2016

 --------------------------------------------
 #p opt UM062X/6-311+G** nosymm int=superfine
 --------------------------------------------

 -------------------
 Title Card Required
 -------------------
 Symbolic Z-matrix:
 Charge =  0 Multiplicity = 1

 SCF Done:  E(UM062X) =  -685.050287656     A.U. after   10 cycles
 SCF Done:  E(UM062X) =  -685.050778815     A.U. after    9 cycles
 SCF Done:  E(UM062X) =  -685.050830334     A.U. after    9 cycles
 SCF Done:  E(UM062X) =  -685.050830728     A.U. after    7 cycles
 SCF Done:  E(UM062X) =  -685.050830812     A.U. after    7 cycles
 Optimization completed.
    -- Stationary point found.

                          Input orientation:
 ---------------------------------------------------------------------
 Center     Atomic      Atomic             Coordinates (Angstroms)
 Number     Number       Type             X           Y           Z
 ---------------------------------------------------------------------
      1         15           0       -1.217217    0.000000    0.000000
      2         15           0        1.217217    0.000000    0.000000
      3          1           0        1.288776   -1.413641    0.006353
      4          1           0       -1.288575    1.402964   -0.173608
      5          1           0        1.375474    0.082285   -1.404729
      6          1           0       -1.375363   -0.260201   -1.382884
 ---------------------------------------------------------------------

 Alpha  occ. eigenvalues --  -78.03222 -78.03222  -6.85744  -6.85741  -4.97294
 Alpha  occ. eigenvalues --   -4.97284  -4.97250  -4.97250  -4.97039  -4.97037
 Alpha  occ. eigenvalues --   -0.75082  -0.67555  -0.45682  -0.45412  -0.39247
 Alpha  occ. eigenvalues --   -0.33819  -0.30793
 Alpha virt. eigenvalues --   -0.01843   0.00904   0.03557   0.03854   0.04032
 Alpha virt. eigenvalues --    0.04353   0.04996   0.06396   0.06500   0.08003
 Alpha virt. eigenvalues --    0.10196   0.15438   0.19223   0.28395   0.29337

  Beta  occ. eigenvalues --  -78.03222 -78.03222  -6.85744  -6.85741  -4.97294
  Beta  occ. eigenvalues --   -4.97284  -4.97250  -4.97250  -4.97039  -4.97037
  Beta  occ. eigenvalues --   -0.75082  -0.67555  -0.45682  -0.45412  -0.39247
  Beta  occ. eigenvalues --   -0.33819  -0.30793
  Beta virt. eigenvalues --   -0.01843   0.00904   0.03557   0.03854   0.04032
  Beta virt. eigenvalues --    0.04353   0.04996   0.06396   0.06500   0.08003
  Beta virt. eigenvalues --    0.10196   0.15438   0.19223   0.28395   0.29337

 Mulliken charges and spin densities:
               1          2
     1  P   -0.051223  -0.000000
     2  P   -0.051232   0.000000
     3  H    0.026329  -0.000000
     4  H    0.026321  -0.000000
     5  H    0.024903  -0.000000
     6  H    0.024902  -0.000000
 Sum of Mulliken charges =  -0.00000   0.00000

 Dipole moment (field-independent basis, Debye):
    X=             -0.0000    Y=             -0.0814    Z=             -1.2742  Tot=              1.2768
 Quadrupole moment (field-independent basis, Debye-Ang):
   XX=            -31.0728   YY=            -28.9037   ZZ=            -29.6406
   XY=             -2.1796   XZ=              0.1390   YZ=             -0.0476

 Normal termination of Gaussian 16 at Mon Apr 21 20:44:42 2025.
