 Gaussian 16, Revision A.03,
 Gaussian 16:  ES64L-G16RevA.03 25-Dec-2016

 --------------------------------------------
 #p opt UM062X/6-311+G** nosymm int=superfine
 --------------------------------------------

 -------------------
 Title Card Required
 -------------------
 Symbolic Z-matrix:
 Charge =  0 Multiplicity = 1

 SCF Done:  E(UM062X) =  -684.928890022     A.U. after   11 cycles
 SCF Done:  E(UM062X) =  -684.928923552     A.U. after    9 cycles
 Optimization completed.
    -- Stationary point found.

                          Input orientation:
 ---------------------------------------------------------------------
 Center     Atomic      Atomic             Coordinates (Angstroms)
 Number     Number       Type             X           Y           Z
 ---------------------------------------------------------------------
      1         15           0       -2.092217    0.000000    0.000000
      2         15           0        2.092217    0.000000    0.000000
      3          1           0        2.003754   -1.015853    0.986709
      4          1           0       -1.997804    1.061717    0.936123
      5          1           0        2.002796   -0.947951   -1.052091
      6          1           0       -1.999693    0.896112   -1.096516
 ---------------------------------------------------------------------

 Alpha  occ. eigenvalues --  -78.05072 -78.05072  -6.87453  -6.87451  -4.99004
 Alpha  occ. eigenvalues --   -4.99003  -4.98876  -4.98876  -4.98694  -4.98693
 Alpha  occ. eigenvalues --   -0.71234  -0.70772  -0.45110  -0.44912  -0.36272
 Alpha  occ. eigenvalues --   -0.36069  -0.24993
 Alpha virt. eigenvalues --   -0.14439   0.01637   0.02882   0.03221   0.04048
 Alpha virt. eigenvalues --    0.04827   0.05965   0.06080   0.06114   0.06273
 Alpha virt. eigenvalues --    0.08042   0.14005   0.18546   0.28506   0.29136

  Beta  occ. eigenvalues --  -78.05072 -78.05072  -6.87453  -6.87451  -4.99004
  Beta  occ. eigenvalues --   -4.99003  -4.98876  -4.98876  -4.98694  -4.98693
  Beta  occ. eigenvalues --   -0.71234  -0.70772  -0.45110  -0.44912  -0.36272
  Beta  occ. eigenvalues --   -0.36069  -0.24993
  Beta virt. eigenvalues --   -0.14439   0.01637   0.02882   0.03221   0.04048
  Beta virt. eigenvalues --    0.04827   0.05965   0.06080   0.06114   0.06273
  Beta virt. eigenvalues --    0.08042   0.14005   0.18546   0.28506   0.29136

 Mulliken charges and spin densities:
               1          2
     1  P   -0.008371  -0.000000
     2  P   -0.008971   0.000000
     3  H    0.004695  -0.000000
     4  H    0.004743   0.000000
     5  H    0.003961  -0.000000
     6  H    0.003943   0.000000
 Sum of Mulliken charges =   0.00000  -0.00000

 Dipole moment (field-independent basis, Debye):
    X=              0.0017    Y=             -0.0014    Z=             -0.1015  Tot=              0.1015
 Quadrupole moment (field-independent basis, Debye-Ang):
   XX=            -28.5856   YY=            -31.2535   ZZ=            -28.5403
   XY=             -4.2744   XZ=              0.1039   YZ=              0.0655

 Normal termination of Gaussian 16 at Mon Apr 21 22:56:06 2025.
