 Gaussian 16, Revision A.03,
 Gaussian 16:  ES64L-G16RevA.03 25-Dec-2016

 --------------------------------------------
 #p opt UM062X/6-311+G** nosymm int=superfine
 --------------------------------------------

 -------------------
 Title Card Required
 -------------------
 Symbolic Z-matrix:
 Charge =  0 Multiplicity = 1

 SCF Done:  E(UM062X) =  -684.935194189     A.U. after   11 cycles
 SCF Done:  E(UM062X) =  -684.936390175     A.U. after   11 cycles
 SCF Done:  E(UM062X) =  -684.937363501     A.U. after   11 cycles
 SCF Done:  E(UM062X) =  -684.937690694     A.U. after   10 cycles
 SCF Done:  E(UM062X) =  -684.937780579     A.U. after   10 cycles
 SCF Done:  E(UM062X) =  -684.937813483     A.U. after   11 cycles
 SCF Done:  E(UM062X) =  -684.937833258     A.U. after    9 cycles
 SCF Done:  E(UM062X) =  -684.937863815     A.U. after   12 cycles
 SCF Done:  E(UM062X) =  -684.937891710     A.U. after   11 cycles
 SCF Done:  E(UM062X) =  -684.937907044     A.U. after    8 cycles
 SCF Done:  E(UM062X) =  -684.937998864     A.U. after   14 cycles
 SCF Done:  E(UM062X) =  -684.938030944     A.U. after   12 cycles
 SCF Done:  E(UM062X) =  -684.938044777     A.U. after   12 cycles
 SCF Done:  E(UM062X) =  -684.938045104     A.U. after    9 cycles
 SCF Done:  E(UM062X) =  -684.938044440     A.U. after   11 cycles
 SCF Done:  E(UM062X) =  -684.938045470     A.U. after    8 cycles
 Optimization completed.
    -- Stationary point found.

                          Input orientation:
 ---------------------------------------------------------------------
 Center     Atomic      Atomic             Coordinates (Angstroms)
 Number     Number       Type             X           Y           Z
 ---------------------------------------------------------------------
      1         15           0       -1.992217    0.000000    0.000000
      2         15           0        1.992217    0.000000    0.000000
      3          1           0        1.915922   -1.003386    0.999982
      4          1           0       -1.910672    1.080213    0.915952
      5          1           0        1.915298   -0.962624   -1.039498
      6          1           0       -1.912875    0.875985   -1.113296
 ---------------------------------------------------------------------

 Alpha  occ. eigenvalues --  -78.05061 -78.05060  -6.87428  -6.87427  -4.98981
 Alpha  occ. eigenvalues --   -4.98980  -4.98854  -4.98852  -4.98671  -4.98669
 Alpha  occ. eigenvalues --   -0.71267  -0.70656  -0.45102  -0.44826  -0.36262
 Alpha  occ. eigenvalues --   -0.35992  -0.25513
 Alpha virt. eigenvalues --   -0.13804   0.01656   0.02902   0.03233   0.04062
 Alpha virt. eigenvalues --    0.04829   0.05942   0.06078   0.06093   0.06365
 Alpha virt. eigenvalues --    0.08136   0.14545   0.18626   0.28345   0.28897

  Beta  occ. eigenvalues --  -78.05061 -78.05060  -6.87428  -6.87427  -4.98981
  Beta  occ. eigenvalues --   -4.98980  -4.98854  -4.98852  -4.98671  -4.98669
  Beta  occ. eigenvalues --   -0.71267  -0.70656  -0.45102  -0.44826  -0.36262
  Beta  occ. eigenvalues --   -0.35992  -0.25513
  Beta virt. eigenvalues --   -0.13804   0.01656   0.02902   0.03233   0.04062
  Beta virt. eigenvalues --    0.04829   0.05942   0.06078   0.06093   0.06365
  Beta virt. eigenvalues --    0.08136   0.14545   0.18626   0.28345   0.28897

 Mulliken charges and spin densities:
               1          2
     1  P   -0.014808  -0.000001
     2  P   -0.015326   0.000001
     3  H    0.007955  -0.000000
     4  H    0.008003   0.000000
     5  H    0.007093  -0.000000
     6  H    0.007083   0.000000
 Sum of Mulliken charges =  -0.00000  -0.00000

 Dipole moment (field-independent basis, Debye):
    X=              0.0013    Y=             -0.0033    Z=             -0.1052  Tot=              0.1053
 Quadrupole moment (field-independent basis, Debye-Ang):
   XX=            -28.5950   YY=            -31.2412   ZZ=            -28.5299
   XY=             -4.1431   XZ=              0.1684   YZ=              0.1093

 Normal termination of Gaussian 16 at Mon Apr 21 20:54:22 2025.
