 Gaussian 16, Revision A.03,
 Gaussian 16:  ES64L-G16RevA.03 25-Dec-2016

 --------------------------------------------
 #p opt UM062X/6-311+G** nosymm int=superfine
 --------------------------------------------

 -------------------
 Title Card Required
 -------------------
 Symbolic Z-matrix:
 Charge =  0 Multiplicity = 1

 SCF Done:  E(UM062X) =  -92.8243923877     A.U. after   14 cycles
 SCF Done:  E(UM062X) =  -92.8263584498     A.U. after   11 cycles
 SCF Done:  E(UM062X) =  -92.8263690897     A.U. after   10 cycles
 Optimization completed.
    -- Stationary point found.

                          Input orientation:
 ---------------------------------------------------------------------
 Center     Atomic      Atomic             Coordinates (Angstroms)
 Number     Number       Type             X           Y           Z
 ---------------------------------------------------------------------
      1          6           0       -1.822395    0.000000    0.000000
      2          7           0        1.822395    0.000000    0.000000
      3          1           0       -2.947864    0.000000   -0.000000
 ---------------------------------------------------------------------

 Alpha  occ. eigenvalues --  -14.81643 -10.76302  -0.80262  -0.76388  -0.45416
 Alpha  occ. eigenvalues --   -0.26296  -0.26296
 Alpha virt. eigenvalues --   -0.18170  -0.18170  -0.07969  -0.00059   0.06308
 Alpha virt. eigenvalues --    0.06308   0.07897   0.12669   0.16001   0.17338
 Alpha virt. eigenvalues --    0.17338   0.23576   0.41948   0.52019   0.52019

  Beta  occ. eigenvalues --  -14.81643 -10.76302  -0.80262  -0.76388  -0.45416
  Beta  occ. eigenvalues --   -0.26296  -0.26296
  Beta virt. eigenvalues --   -0.18170  -0.18170  -0.07969  -0.00059   0.06308
  Beta virt. eigenvalues --    0.06308   0.07897   0.12669   0.16001   0.17338
  Beta virt. eigenvalues --    0.17338   0.23576   0.41948   0.52019   0.52019

 Mulliken charges and spin densities:
               1          2
     1  C    0.075083   0.000000
     2  N   -0.247906  -0.000000
     3  H    0.172824  -0.000000
 Sum of Mulliken charges =  -0.00000   0.00000

 Dipole moment (field-independent basis, Debye):
    X=             -6.2219    Y=             -0.0000    Z=              0.0000  Tot=              6.2219
 Quadrupole moment (field-independent basis, Debye-Ang):
   XX=             -4.5017   YY=            -14.2402   ZZ=            -14.2402
   XY=              0.0000   XZ=             -0.0000   YZ=             -0.0000

 Normal termination of Gaussian 16 at Mon Apr 21 18:36:48 2025.
