 Gaussian 16, Revision A.03,
 Gaussian 16:  ES64L-G16RevA.03 25-Dec-2016

 --------------------------------------------
 #p opt UM062X/6-311+G** nosymm int=superfine
 --------------------------------------------

 -------------------
 Title Card Required
 -------------------
 Symbolic Z-matrix:
 Charge =  0 Multiplicity = 1

 SCF Done:  E(UM062X) =  -474.389764019     A.U. after   21 cycles
 SCF Done:  E(UM062X) =  -474.391178753     A.U. after   17 cycles
 SCF Done:  E(UM062X) =  -474.393162729     A.U. after   18 cycles
 SCF Done:  E(UM062X) =  -474.393567076     A.U. after   24 cycles
 SCF Done:  E(UM062X) =  -474.393623868     A.U. after   17 cycles
 SCF Done:  E(UM062X) =  -474.393631888     A.U. after   20 cycles
 SCF Done:  E(UM062X) =  -474.393637889     A.U. after   20 cycles
 SCF Done:  E(UM062X) =  -474.380954805     A.U. after   20 cycles
 SCF Done:  E(UM062X) =  -474.393579244     A.U. after   20 cycles
 SCF Done:  E(UM062X) =  -474.393626602     A.U. after   21 cycles
 SCF Done:  E(UM062X) =  -474.393640749     A.U. after   16 cycles
 SCF Done:  E(UM062X) =  -474.393643046     A.U. after   16 cycles
 SCF Done:  E(UM062X) =  -474.393643566     A.U. after   18 cycles
 SCF Done:  E(UM062X) =  -474.393642750     A.U. after   24 cycles
 SCF Done:  E(UM062X) =  -474.393644058     A.U. after   15 cycles
 Optimization completed.
    -- Stationary point found.

                          Input orientation:
 ---------------------------------------------------------------------
 Center     Atomic      Atomic             Coordinates (Angstroms)
 Number     Number       Type             X           Y           Z
 ---------------------------------------------------------------------
      1          8           0       -1.589392    0.000000    0.000000
      2         16           0        1.589392    0.000000    0.000000
      3          1           0       -1.571468   -0.887646   -0.391398
      4          1           0        1.388207    0.666261    1.152924
 ---------------------------------------------------------------------

 Alpha  occ. eigenvalues --  -89.97852 -19.67410  -8.33973  -6.26190  -6.25817
 Alpha  occ. eigenvalues --   -6.25253  -1.08526  -0.83713  -0.52600  -0.49568
 Alpha  occ. eigenvalues --   -0.39831  -0.35620  -0.35187
 Alpha virt. eigenvalues --   -0.21259   0.01623   0.03919   0.04673   0.05498
 Alpha virt. eigenvalues --    0.07062   0.13848   0.19335   0.19930   0.21221
 Alpha virt. eigenvalues --    0.25787   0.30909   0.33980   0.34781   0.39297

  Beta  occ. eigenvalues --  -89.97852 -19.67410  -8.33973  -6.26190  -6.25817
  Beta  occ. eigenvalues --   -6.25253  -1.08526  -0.83713  -0.52600  -0.49568
  Beta  occ. eigenvalues --   -0.39831  -0.35620  -0.35187
  Beta virt. eigenvalues --   -0.21259   0.01623   0.03919   0.04673   0.05498
  Beta virt. eigenvalues --    0.07062   0.13848   0.19335   0.19930   0.21221
  Beta virt. eigenvalues --    0.25787   0.30909   0.33980   0.34781   0.39297

 Mulliken charges and spin densities:
               1          2
     1  O   -0.405197  -0.000000
     2  S    0.046396   0.000000
     3  H    0.247098  -0.000000
     4  H    0.111704   0.000000
 Sum of Mulliken charges =  -0.00000  -0.00000

 Dipole moment (field-independent basis, Debye):
    X=              2.1811    Y=             -0.9981    Z=              0.3280  Tot=              2.4210
 Quadrupole moment (field-independent basis, Debye-Ang):
   XX=            -18.2598   YY=            -19.5721   ZZ=            -19.1988
   XY=              3.6121   XZ=              2.7908   YZ=              2.7136

 Normal termination of Gaussian 16 at Thu May 15 13:10:34 2025.
