 Gaussian 16, Revision A.03,
 Gaussian 16:  ES64L-G16RevA.03 25-Dec-2016

 --------------------------------------------
 #p opt UM062X/6-311+G** nosymm int=superfine
 --------------------------------------------

 -------------------
 Title Card Required
 -------------------
 Symbolic Z-matrix:
 Charge =  0 Multiplicity = 2

 SCF Done:  E(UM062X) =  -75.7265269662     A.U. after   12 cycles
 SCF Done:  E(UM062X) =  -75.7265271863     A.U. after    7 cycles
 Optimization completed.
    -- Stationary point found.

                          Input orientation:
 ---------------------------------------------------------------------
 Center     Atomic      Atomic             Coordinates (Angstroms)
 Number     Number       Type             X           Y           Z
 ---------------------------------------------------------------------
      1          8           0       -1.085769    0.000000    0.000000
      2          1           0       -2.057798   -0.000850    0.000000
 ---------------------------------------------------------------------

 Alpha  occ. eigenvalues --  -19.69505  -1.14849  -0.56781  -0.50632  -0.44205
 Alpha virt. eigenvalues --    0.06783   0.16661   0.17066   0.17221   0.20932
 Alpha virt. eigenvalues --    0.50036   1.00021   1.00527   1.04205   1.26669
 Alpha virt. eigenvalues --    1.35628   1.36991   2.01643   2.44802   2.81795

  Beta  occ. eigenvalues --  -19.67891  -1.06514  -0.53495  -0.40514
  Beta virt. eigenvalues --   -0.10728   0.06835   0.16790   0.17673   0.17816
  Beta virt. eigenvalues --    0.20102   0.51082   1.01251   1.05288   1.05477
  Beta virt. eigenvalues --    1.29199   1.37046   1.37479   2.03276   2.44824

 Mulliken charges and spin densities:
               1          2
     1  O   -0.251755   1.025537
     2  H    0.251755  -0.025537
 Sum of Mulliken charges =  -0.00000   1.00000

 Dipole moment (field-independent basis, Debye):
    X=             -1.8558    Y=             -0.0016    Z=             -0.0000  Tot=              1.8558
 Quadrupole moment (field-independent basis, Debye-Ang):
   XX=             -0.2947   YY=             -5.5166   ZZ=             -6.8602
   XY=              0.0028   XZ=              0.0000   YZ=             -0.0032

 1\1\GINC-NODE02\FOpt\UM062X\6-311+G(d,p)\H1O1(2)\SZHAO\16-Apr-2025\0\\
 #p opt UM062X/6-311+G** nosymm int=superfine\\Title Card Required\\0,2
 \O,-1.085768792,0.000000208,0.\H,-2.057798258,-0.000850238,0.\\Version
 =ES64L-G16RevA.03\HF=-75.7265272\S2=0.752708\S2-1=0.\S2A=0.750005\RMSD
 =4.348e-09\RMSF=7.915e-06\Dipole=-0.7301285,-0.0006388,0.\Quadrupole=2
 .9212213,-0.9611102,-1.9601111,0.0020857,0.0000021,-0.0023721\PG=C*V [
 C*(H1O1)]\\@

 Normal termination of Gaussian 16 at Wed Apr 16 08:48:22 2025.
