 Gaussian 16, Revision A.03,
 Gaussian 16:  ES64L-G16RevA.03 25-Dec-2016

 --------------------------------------------
 #p opt UM062X/6-311+G** nosymm int=superfine
 --------------------------------------------

 -------------------
 Title Card Required
 -------------------
 Symbolic Z-matrix:
 Charge =  0 Multiplicity = 1

 SCF Done:  E(UM062X) =  -379.925050214     A.U. after   11 cycles
 SCF Done:  E(UM062X) =  -379.925082580     A.U. after    8 cycles
 Optimization completed.
    -- Stationary point found.

                          Input orientation:
 ---------------------------------------------------------------------
 Center     Atomic      Atomic             Coordinates (Angstroms)
 Number     Number       Type             X           Y           Z
 ---------------------------------------------------------------------
      1          6           0       -0.890377    0.000000    0.000000
      2         15           0        0.890377    0.000000    0.000000
      3          1           0       -1.971061    0.000000    0.000000
 ---------------------------------------------------------------------

 Alpha  occ. eigenvalues --  -78.06808 -10.62410  -6.88704  -5.00129  -5.00129
 Alpha  occ. eigenvalues --   -5.00040  -0.77341  -0.62809  -0.42682  -0.31415
 Alpha  occ. eigenvalues --   -0.31415
 Alpha virt. eigenvalues --   -0.05432  -0.05432   0.01283   0.02655   0.04986
 Alpha virt. eigenvalues --    0.04986   0.07051   0.09753   0.10883   0.10883
 Alpha virt. eigenvalues --    0.16341   0.22723   0.32770   0.32770   0.34770

  Beta  occ. eigenvalues --  -78.06808 -10.62410  -6.88704  -5.00129  -5.00129
  Beta  occ. eigenvalues --   -5.00040  -0.77341  -0.62809  -0.42682  -0.31415
  Beta  occ. eigenvalues --   -0.31415
  Beta virt. eigenvalues --   -0.05432  -0.05432   0.01283   0.02655   0.04986
  Beta virt. eigenvalues --    0.04986   0.07051   0.09753   0.10883   0.10883
  Beta virt. eigenvalues --    0.16341   0.22723   0.32770   0.32770   0.34770

 Mulliken charges and spin densities:
               1          2
     1  C   -0.300938   0.000000
     2  P    0.097066  -0.000000
     3  H    0.203872  -0.000000
 Sum of Mulliken charges =  -0.00000   0.00000

 Dipole moment (field-independent basis, Debye):
    X=             -0.2925    Y=              0.0000    Z=              0.0000  Tot=              0.2925
 Quadrupole moment (field-independent basis, Debye-Ang):
   XX=            -15.0620   YY=            -21.0674   ZZ=            -21.0674
   XY=             -0.0000   XZ=             -0.0000   YZ=              0.0000

 Normal termination of Gaussian 16 at Mon Apr 21 19:23:32 2025.
