 Gaussian 16, Revision A.03,
 Gaussian 16:  ES64L-G16RevA.03 25-Dec-2016

 --------------------------------------------
 #p opt UM062X/6-311+G** nosymm int=superfine
 --------------------------------------------

 -------------------
 Title Card Required
 -------------------
 Symbolic Z-matrix:
 Charge =  0 Multiplicity = 1

 SCF Done:  E(UM062X) =  -380.994500663     A.U. after   16 cycles
 SCF Done:  E(UM062X) =  -380.996331129     A.U. after   14 cycles
 SCF Done:  E(UM062X) =  -380.996670268     A.U. after   14 cycles
 SCF Done:  E(UM062X) =  -380.996396326     A.U. after   16 cycles
 SCF Done:  E(UM062X) =  -380.996702373     A.U. after   13 cycles
 SCF Done:  E(UM062X) =  -380.996668216     A.U. after   14 cycles
 SCF Done:  E(UM062X) =  -380.996725539     A.U. after   16 cycles
 SCF Done:  E(UM062X) =  -380.996732812     A.U. after   14 cycles
 Optimization completed.
    -- Stationary point found.

                          Input orientation:
 ---------------------------------------------------------------------
 Center     Atomic      Atomic             Coordinates (Angstroms)
 Number     Number       Type             X           Y           Z
 ---------------------------------------------------------------------
      1          6           0       -1.355452    0.000000    0.000000
      2         15           0        1.355452    0.000000    0.000000
      3          1           0       -1.919950   -0.931505    0.001596
      4          1           0        1.242044   -1.416913    0.001639
      5          1           0       -1.907298    0.938429   -0.001898
 ---------------------------------------------------------------------

 Alpha  occ. eigenvalues --  -78.06137 -10.64078  -6.88061  -4.99711  -4.99307
 Alpha  occ. eigenvalues --   -4.99223  -0.77104  -0.66219  -0.52200  -0.38815
 Alpha  occ. eigenvalues --   -0.33604  -0.24898
 Alpha virt. eigenvalues --   -0.11320  -0.07213   0.02071   0.04227   0.04619
 Alpha virt. eigenvalues --    0.05926   0.06641   0.07090   0.09780   0.11043
 Alpha virt. eigenvalues --    0.13939   0.18562   0.19456   0.30452   0.32429

  Beta  occ. eigenvalues --  -78.06137 -10.64078  -6.88061  -4.99711  -4.99307
  Beta  occ. eigenvalues --   -4.99223  -0.77104  -0.66219  -0.52200  -0.38815
  Beta  occ. eigenvalues --   -0.33604  -0.24898
  Beta virt. eigenvalues --   -0.11320  -0.07213   0.02071   0.04227   0.04619
  Beta virt. eigenvalues --    0.05926   0.06641   0.07090   0.09780   0.11043
  Beta virt. eigenvalues --    0.13939   0.18562   0.19456   0.30452   0.32429

 Mulliken charges and spin densities:
               1          2
     1  C   -0.423230  -0.000000
     2  P    0.076666   0.000000
     3  H    0.181951   0.000000
     4  H   -0.017798  -0.000000
     5  H    0.182411   0.000000
 Sum of Mulliken charges =  -0.00000  -0.00000

 Dipole moment (field-independent basis, Debye):
    X=             -1.4733    Y=             -0.6028    Z=              0.0005  Tot=              1.5918
 Quadrupole moment (field-independent basis, Debye-Ang):
   XX=            -16.6156   YY=            -20.6149   ZZ=            -25.1355
   XY=             -1.2892   XZ=              0.0015   YZ=             -0.0063

 Normal termination of Gaussian 16 at Mon Apr 21 19:14:58 2025.
