 Gaussian 16, Revision A.03,
 Gaussian 16:  ES64L-G16RevA.03 25-Dec-2016

 --------------------------------------------
 #p opt UM062X/6-311+G** nosymm int=superfine
 --------------------------------------------

 -------------------
 Title Card Required
 -------------------
 Symbolic Z-matrix:
 Charge =  1 Multiplicity = 2

 SCF Done:  E(UM062X) =  -579.694311964     A.U. after   15 cycles
 SCF Done:  E(UM062X) =  -579.700613740     A.U. after   13 cycles
 SCF Done:  E(UM062X) =  -579.705208520     A.U. after   15 cycles
 SCF Done:  E(UM062X) =  -579.705278029     A.U. after   12 cycles
 SCF Done:  E(UM062X) =  -579.705418758     A.U. after   12 cycles
 SCF Done:  E(UM062X) =  -579.705515568     A.U. after   13 cycles
 SCF Done:  E(UM062X) =  -579.705516146     A.U. after   11 cycles
 Optimization completed.
    -- Stationary point found.

                          Input orientation:
 ---------------------------------------------------------------------
 Center     Atomic      Atomic             Coordinates (Angstroms)
 Number     Number       Type             X           Y           Z
 ---------------------------------------------------------------------
      1         14           0       -1.627975    0.000000    0.000000
      2         14           0        1.627975    0.000000    0.000000
      3          1           0       -1.849930   -1.487597   -0.000007
      4          1           0        1.850851    1.487425   -0.000007
 ---------------------------------------------------------------------

 Alpha  occ. eigenvalues --  -67.27366 -67.27365  -5.81541  -5.81540  -4.12662
 Alpha  occ. eigenvalues --   -4.12661  -4.12595  -4.12594  -4.11930  -4.11930
 Alpha  occ. eigenvalues --   -0.77896  -0.75410  -0.54149  -0.53391  -0.44823
 Alpha virt. eigenvalues --   -0.29943  -0.26761  -0.25095  -0.12156  -0.10565
 Alpha virt. eigenvalues --   -0.09072  -0.08725  -0.08410  -0.07608  -0.06031
 Alpha virt. eigenvalues --   -0.05800  -0.05793  -0.02994   0.12376   0.13810

  Beta  occ. eigenvalues --  -67.27082 -67.27081  -5.81438  -5.81437  -4.12521
  Beta  occ. eigenvalues --   -4.12520  -4.11978  -4.11977  -4.11737  -4.11736
  Beta  occ. eigenvalues --   -0.75964  -0.73524  -0.53873  -0.51530
  Beta virt. eigenvalues --   -0.29923  -0.29333  -0.26066  -0.20793  -0.12873
  Beta virt. eigenvalues --   -0.10364  -0.09009  -0.08778  -0.08176  -0.07081
  Beta virt. eigenvalues --   -0.05665  -0.05583  -0.05285  -0.02414   0.11280

 Mulliken charges and spin densities:
               1          2
     1  Si   0.566045   0.508461
     2  Si   0.565937   0.508682
     3  H   -0.066008  -0.008572
     4  H   -0.065974  -0.008571
 Sum of Mulliken charges =   1.00000   1.00000

 Dipole moment (field-independent basis, Debye):
    X=              0.0001    Y=             -0.0000    Z=             -0.0000  Tot=              0.0001
 Quadrupole moment (field-independent basis, Debye-Ang):
   XX=             -7.1873   YY=            -27.0316   ZZ=            -19.5554
   XY=              1.5993   XZ=              0.0000   YZ=             -0.0000

 Normal termination of Gaussian 16 at Mon Apr 21 20:39:14 2025.
