 Gaussian 16, Revision A.03,
 Gaussian 16:  ES64L-G16RevA.03 25-Dec-2016

 ---------------------------------------------------------
 #p opt UM062X/6-311+G** nosymm int=superfine SCF=NoVarAcc
 ---------------------------------------------------------

 -------------------
 Title Card Required
 -------------------
 Symbolic Z-matrix:
 Charge =  1 Multiplicity = 2

 SCF Done:  E(UM062X) =  -77.9127451150     A.U. after   10 cycles
 SCF Done:  E(UM062X) =  -77.9168519822     A.U. after    9 cycles
 SCF Done:  E(UM062X) =  -77.9194066072     A.U. after    9 cycles
 SCF Done:  E(UM062X) =  -77.9194100669     A.U. after    7 cycles
 Optimization completed.
    -- Stationary point found.

                          Input orientation:
 ---------------------------------------------------------------------
 Center     Atomic      Atomic             Coordinates (Angstroms)
 Number     Number       Type             X           Y           Z
 ---------------------------------------------------------------------
      1          6           0       -1.706027    0.000000    0.000000
      2          6           0        1.706027    0.000000    0.000000
      3          1           0       -2.264594   -0.941958   -0.000000
      4          1           0       -2.264542    0.941989   -0.000000
      5          1           0        2.264594    0.941958    0.000000
      6          1           0        2.264542   -0.941989    0.000000
 ---------------------------------------------------------------------

 Alpha  occ. eigenvalues --  -10.89065 -10.89064  -1.00381  -1.00161  -0.75008
 Alpha  occ. eigenvalues --   -0.74893  -0.59557  -0.56282
 Alpha virt. eigenvalues --   -0.32473  -0.31710  -0.13028  -0.10941  -0.09506
 Alpha virt. eigenvalues --   -0.07480  -0.06716  -0.05347  -0.04456  -0.01790
 Alpha virt. eigenvalues --   -0.00830  -0.00075   0.02014   0.06589   0.25688

  Beta  occ. eigenvalues --  -10.88227 -10.88226  -0.98182  -0.97819  -0.73980
  Beta  occ. eigenvalues --   -0.73846  -0.49127
  Beta virt. eigenvalues --   -0.34752  -0.30615  -0.29663  -0.12850  -0.11031
  Beta virt. eigenvalues --   -0.09356  -0.07274  -0.06720  -0.04636  -0.03916
  Beta virt. eigenvalues --   -0.01514  -0.00241   0.00311   0.02079   0.07338

 Mulliken charges and spin densities:
               1          2
     1  C    0.018245   0.485919
     2  C    0.018245   0.485919
     3  H    0.240878   0.007041
     4  H    0.240877   0.007040
     5  H    0.240878   0.007041
     6  H    0.240877   0.007040
 Sum of Mulliken charges =   1.00000   1.00000

 Dipole moment (field-independent basis, Debye):
    X=              0.0000    Y=              0.0000    Z=             -0.0000  Tot=              0.0000
 Quadrupole moment (field-independent basis, Debye-Ang):
   XX=             12.8963   YY=             -9.4277   ZZ=            -10.7367
   XY=             -0.0000   XZ=              0.0000   YZ=              0.0000

 Normal termination of Gaussian 16 at Tue Dec  3 13:29:11 2024.
