 Gaussian 16, Revision A.03,
 Gaussian 16:  ES64L-G16RevA.03 25-Dec-2016

 ---------------------------------------
 #p UM062X/6-311+G** force int=superfine
 ---------------------------------------

 -------------------
 Title Card Required
 -------------------
 Symbolic Z-matrix:
 Charge =  0 Multiplicity = 1

                         Standard orientation:
 ---------------------------------------------------------------------
 Center     Atomic      Atomic             Coordinates (Angstroms)
 Number     Number       Type             X           Y           Z
 ---------------------------------------------------------------------
      1          6           0        0.000000    0.576699    0.000000
      2          6           0       -0.000000   -0.576699    0.000000
      3          1           0        0.907176    1.179081   -0.000000
      4          1           0       -0.907155    1.179088    0.000000
      5          1           0       -0.907176   -1.179081   -0.000000
      6          1           0        0.907155   -1.179088    0.000000
 ---------------------------------------------------------------------

 SCF Done:  E(UM062X) =  -78.5162873413     A.U. after    8 cycles

 The electronic state is 1-AG.
 Alpha  occ. eigenvalues --  -10.51059 -10.50679  -0.90487  -0.64558  -0.55876
 Alpha  occ. eigenvalues --   -0.51103  -0.38420  -0.37256
 Alpha virt. eigenvalues --    0.03385   0.04208   0.04813   0.05342   0.07218
 Alpha virt. eigenvalues --    0.08513   0.09772   0.15671   0.16110   0.17777
 Alpha virt. eigenvalues --    0.19164   0.24134   0.32830   0.39586   0.43961

  Beta  occ. eigenvalues --  -10.51059 -10.50679  -0.90487  -0.64558  -0.55876
  Beta  occ. eigenvalues --   -0.51103  -0.38420  -0.37256
  Beta virt. eigenvalues --    0.03385   0.04208   0.04813   0.05342   0.07218
  Beta virt. eigenvalues --    0.08513   0.09772   0.15671   0.16110   0.17777
  Beta virt. eigenvalues --    0.19164   0.24134   0.32830   0.39586   0.43961

 Mulliken charges and spin densities:
               1          2
     1  C   -0.275126  -0.000000
     2  C   -0.275126  -0.000000
     3  H    0.137562   0.000000
     4  H    0.137564   0.000000
     5  H    0.137562   0.000000
     6  H    0.137564   0.000000
 Sum of Mulliken charges =  -0.00000  -0.00000

 Dipole moment (field-independent basis, Debye):
    X=             -0.0000    Y=              0.0000    Z=             -0.0000  Tot=              0.0000
 Quadrupole moment (field-independent basis, Debye-Ang):
   XX=            -12.3403   YY=            -12.4127   ZZ=            -15.1043
   XY=             -0.0000   XZ=              0.0000   YZ=              0.0000

 Normal termination of Gaussian 16 at Tue Nov 19 11:42:48 2024.
