 Gaussian 16, Revision A.03,
 Gaussian 16:  ES64L-G16RevA.03 25-Dec-2016

 ---------------------------------------
 #p UM062X/6-311+G** force int=superfine
 ---------------------------------------

 -------------------
 Title Card Required
 -------------------
 Symbolic Z-matrix:
 Charge =  0 Multiplicity = 1

                         Standard orientation:
 ---------------------------------------------------------------------
 Center     Atomic      Atomic             Coordinates (Angstroms)
 Number     Number       Type             X           Y           Z
 ---------------------------------------------------------------------
      1          6           0        0.992662   -0.000001   -0.000000
      2          6           0       -0.992662    0.000001    0.000000
      3          1           0       -1.289097   -0.447329    0.943541
      4          1           0        1.289100    0.593498    0.859149
      5          1           0       -1.289101   -0.593497   -0.859148
      6          1           0       -1.289152    1.040777   -0.084388
      7          1           0        1.289097    0.447329   -0.943541
      8          1           0        1.289155   -1.040777    0.084389
 ---------------------------------------------------------------------

 SCF Done:  E(UM062X) =  -79.7465232740     A.U. after    9 cycles

 The electronic state is 1-A.
 Alpha  occ. eigenvalues --  -10.54425 -10.54415  -0.79312  -0.72389  -0.48464
 Alpha  occ. eigenvalues --   -0.48464  -0.44095  -0.44094  -0.33848
 Alpha virt. eigenvalues --    0.02318   0.02860   0.05637   0.05637   0.08512
 Alpha virt. eigenvalues --    0.08512   0.09450   0.11885   0.14002   0.18224
 Alpha virt. eigenvalues --    0.18225   0.21997   0.21998   0.24287   0.27079

  Beta  occ. eigenvalues --  -10.54425 -10.54415  -0.79312  -0.72389  -0.48464
  Beta  occ. eigenvalues --   -0.48464  -0.44095  -0.44094  -0.33848
  Beta virt. eigenvalues --    0.02318   0.02860   0.05637   0.05637   0.08512
  Beta virt. eigenvalues --    0.08512   0.09450   0.11885   0.14002   0.18224
  Beta virt. eigenvalues --    0.18225   0.21997   0.21998   0.24287   0.27079

 Mulliken charges and spin densities:
               1          2
     1  C   -0.496403  -0.000000
     2  C   -0.496403  -0.000000
     3  H    0.165468   0.000000
     4  H    0.165468   0.000000
     5  H    0.165468   0.000000
     6  H    0.165467   0.000000
     7  H    0.165468   0.000000
     8  H    0.165467   0.000000
 Sum of Mulliken charges =  -0.00000  -0.00000

 Dipole moment (field-independent basis, Debye):
    X=             -0.0000    Y=              0.0000    Z=              0.0000  Tot=              0.0000
 Quadrupole moment (field-independent basis, Debye-Ang):
   XX=            -15.5956   YY=            -14.8878   ZZ=            -14.8879
   XY=             -0.0001   XZ=              0.0000   YZ=             -0.0000

 Normal termination of Gaussian 16 at Tue Nov 19 12:50:18 2024.
