 Gaussian 16, Revision A.03,
 Gaussian 16:  ES64L-G16RevA.03 25-Dec-2016

 --------------------------------------------
 #p opt UM062X/6-311+G** nosymm int=superfine
 --------------------------------------------

 -------------------
 Title Card Required
 -------------------
 Symbolic Z-matrix:
 Charge =  0 Multiplicity = 1

 SCF Done:  E(UM062X) =  -380.964749502     A.U. after   19 cycles
 SCF Done:  E(UM062X) =  -380.966353796     A.U. after   14 cycles
 SCF Done:  E(UM062X) =  -380.967168633     A.U. after   15 cycles
 SCF Done:  E(UM062X) =  -380.967171125     A.U. after   13 cycles
 SCF Done:  E(UM062X) =  -380.967185154     A.U. after   15 cycles
 SCF Done:  E(UM062X) =  -380.967197865     A.U. after   15 cycles
 SCF Done:  E(UM062X) =  -380.967200231     A.U. after   17 cycles
 SCF Done:  E(UM062X) =  -380.967200859     A.U. after   17 cycles
 SCF Done:  E(UM062X) =  -380.967200985     A.U. after   11 cycles
 Optimization completed.
    -- Stationary point found.

                          Input orientation:
 ---------------------------------------------------------------------
 Center     Atomic      Atomic             Coordinates (Angstroms)
 Number     Number       Type             X           Y           Z
 ---------------------------------------------------------------------
      1          6           0       -1.480452    0.000000    0.000000
      2         15           0        1.480452    0.000000    0.000000
      3          1           0       -2.123163   -0.888949    0.000478
      4          1           0        1.319247   -1.411472    0.000521
      5          1           0       -2.093129    0.909374   -0.000390
 ---------------------------------------------------------------------

 Alpha  occ. eigenvalues --  -78.04749 -10.64537  -6.86816  -4.98673  -4.98053
 Alpha  occ. eigenvalues --   -4.97750  -0.77937  -0.65238  -0.51644  -0.38009
 Alpha  occ. eigenvalues --   -0.34205  -0.23970
 Alpha virt. eigenvalues --   -0.11033  -0.08534   0.01548   0.04219   0.04749
 Alpha virt. eigenvalues --    0.06217   0.06914   0.07166   0.09240   0.11480
 Alpha virt. eigenvalues --    0.13813   0.17743   0.18547   0.30863   0.33654

  Beta  occ. eigenvalues --  -78.04749 -10.64537  -6.86816  -4.98673  -4.98053
  Beta  occ. eigenvalues --   -4.97751  -0.77936  -0.65238  -0.51644  -0.38009
  Beta  occ. eigenvalues --   -0.34205  -0.23970
  Beta virt. eigenvalues --   -0.11033  -0.08534   0.01548   0.04219   0.04749
  Beta virt. eigenvalues --    0.06217   0.06914   0.07166   0.09240   0.11480
  Beta virt. eigenvalues --    0.13812   0.17743   0.18546   0.30863   0.33654

 Mulliken charges and spin densities:
               1          2
     1  C   -0.365301   0.000041
     2  P    0.052971  -0.000039
     3  H    0.169929  -0.000001
     4  H   -0.027966   0.000001
     5  H    0.170367  -0.000001
 Sum of Mulliken charges =  -0.00000   0.00000

 Dipole moment (field-independent basis, Debye):
    X=             -2.3806    Y=             -0.5884    Z=              0.0003  Tot=              2.4522
 Quadrupole moment (field-independent basis, Debye-Ang):
   XX=            -15.0269   YY=            -21.1035   ZZ=            -25.5261
   XY=             -1.4118   XZ=              0.0007   YZ=             -0.0017

 Normal termination of Gaussian 16 at Mon Apr 21 19:17:13 2025.
