 Gaussian 16, Revision A.03,
 Gaussian 16:  ES64L-G16RevA.03 25-Dec-2016

 --------------------------------------------
 #p opt UM062X/6-311+G** nosymm int=superfine
 --------------------------------------------

 -------------------
 Title Card Required
 -------------------
 Symbolic Z-matrix:
 Charge =  1 Multiplicity = 2

 SCF Done:  E(UM062X) =  -80.2437989206     A.U. after   16 cycles
 SCF Done:  E(UM062X) =  -80.2439364905     A.U. after   12 cycles
 Optimization completed.
    -- Stationary point found.

                          Input orientation:
 ---------------------------------------------------------------------
 Center     Atomic      Atomic             Coordinates (Angstroms)
 Number     Number       Type             X           Y           Z
 ---------------------------------------------------------------------
      1          5           0       -0.902734    0.000000    0.000000
      2          7           0        0.902734    0.000000    0.000000
      3          1           0       -2.083181    0.000544    0.000000
      4          1           0        1.930209    0.001154   -0.000000
 ---------------------------------------------------------------------

 Alpha  occ. eigenvalues --  -15.09251  -7.53376  -1.19914  -0.88146  -0.81427
 Alpha  occ. eigenvalues --   -0.67226  -0.63426
 Alpha virt. eigenvalues --   -0.31606  -0.30535  -0.28415  -0.14338  -0.11069
 Alpha virt. eigenvalues --   -0.10065  -0.09651  -0.09353  -0.01655  -0.01430
 Alpha virt. eigenvalues --    0.04034   0.04805   0.08358   0.16575   0.17399

  Beta  occ. eigenvalues --  -15.07704  -7.53538  -1.11761  -0.88074  -0.79601
  Beta  occ. eigenvalues --   -0.57157
  Beta virt. eigenvalues --   -0.38051  -0.31777  -0.28098  -0.26946  -0.14273
  Beta virt. eigenvalues --   -0.11203  -0.09841  -0.09753  -0.09057  -0.01475
  Beta virt. eigenvalues --   -0.00859   0.02541   0.04221   0.09016   0.16534

 Mulliken charges and spin densities:
               1          2
     1  B    0.662991  -0.218158
     2  N   -0.303186   1.258408
     3  H    0.223393  -0.007881
     4  H    0.416802  -0.032370
 Sum of Mulliken charges =   1.00000   1.00000

 Dipole moment (field-independent basis, Debye):
    X=             -1.9470    Y=              0.0016    Z=             -0.0000  Tot=              1.9470
 Quadrupole moment (field-independent basis, Debye-Ang):
   XX=              2.2509   YY=             -9.8932   ZZ=            -11.9686
   XY=              0.0040   XZ=             -0.0000   YZ=              0.0000

 Normal termination of Gaussian 16 at Mon Apr 21 17:55:22 2025.
