 Gaussian 16, Revision A.03,
 Gaussian 16:  ES64L-G16RevA.03 25-Dec-2016

 --------------------------------------------
 #p opt UM062X/6-311+G** nosymm int=superfine
 --------------------------------------------

 -------------------
 Title Card Required
 -------------------
 Symbolic Z-matrix:
 Charge =  0 Multiplicity = 1

 SCF Done:  E(UM062X) =  -83.1414415651     A.U. after   10 cycles
 SCF Done:  E(UM062X) =  -83.1532688974     A.U. after    9 cycles
 SCF Done:  E(UM062X) =  -83.1545790904     A.U. after    8 cycles
 SCF Done:  E(UM062X) =  -83.1545815992     A.U. after    7 cycles
 Optimization completed.
    -- Stationary point found.

                          Input orientation:
 ---------------------------------------------------------------------
 Center     Atomic      Atomic             Coordinates (Angstroms)
 Number     Number       Type             X           Y           Z
 ---------------------------------------------------------------------
      1          5           0       -1.327429    0.000000    0.000000
      2          7           0        1.327429    0.000000    0.000000
      3          1           0        1.683086   -0.948509    0.000001
      4          1           0       -1.388361   -0.594069    1.028926
      5          1           0        1.682958    0.474316   -0.821456
      6          1           0        1.682946    0.474314    0.821463
      7          1           0       -1.388356    1.188109    0.000014
      8          1           0       -1.388371   -0.594048   -1.028938
 ---------------------------------------------------------------------

 Alpha  occ. eigenvalues --  -14.75126  -7.02432  -0.97984  -0.55890  -0.55885
 Alpha  occ. eigenvalues --   -0.55884  -0.38166  -0.38166  -0.36467
 Alpha virt. eigenvalues --   -0.00126   0.02298   0.04814   0.04814   0.07129
 Alpha virt. eigenvalues --    0.08784   0.11057   0.11057   0.16960   0.16960
 Alpha virt. eigenvalues --    0.18050   0.20348   0.20348   0.23212   0.29810

  Beta  occ. eigenvalues --  -14.75126  -7.02432  -0.97984  -0.55890  -0.55885
  Beta  occ. eigenvalues --   -0.55884  -0.38166  -0.38166  -0.36467
  Beta virt. eigenvalues --   -0.00126   0.02298   0.04814   0.04814   0.07129
  Beta virt. eigenvalues --    0.08784   0.11057   0.11057   0.16960   0.16960
  Beta virt. eigenvalues --    0.18050   0.20348   0.20348   0.23212   0.29810

 Mulliken charges and spin densities:
               1          2
     1  B    0.015775   0.000000
     2  N   -0.750039  -0.000000
     3  H    0.263058   0.000000
     4  H   -0.018304  -0.000000
     5  H    0.263059  -0.000000
     6  H    0.263059  -0.000000
     7  H   -0.018305   0.000000
     8  H   -0.018303  -0.000000
 Sum of Mulliken charges =  -0.00000  -0.00000

 Dipole moment (field-independent basis, Debye):
    X=              2.7880    Y=              0.0002    Z=              0.0000  Tot=              2.7880
 Quadrupole moment (field-independent basis, Debye-Ang):
   XX=            -12.7753   YY=            -15.8116   ZZ=            -15.8116
   XY=             -0.0000   XZ=             -0.0000   YZ=              0.0000

 Normal termination of Gaussian 16 at Mon Apr 21 17:37:34 2025.
