 Gaussian 16, Revision A.03,
 Gaussian 16:  ES64L-G16RevA.03 25-Dec-2016

 --------------------------------------------
 #p opt UM062X/6-311+G** nosymm int=superfine
 --------------------------------------------

 -------------------
 Title Card Required
 -------------------
 Symbolic Z-matrix:
 Charge =  0 Multiplicity = 1

 SCF Done:  E(UM062X) =  -438.547538774     A.U. after   11 cycles
 SCF Done:  E(UM062X) =  -438.558694886     A.U. after   11 cycles
 SCF Done:  E(UM062X) =  -438.562362704     A.U. after   11 cycles
 SCF Done:  E(UM062X) =  -438.562391005     A.U. after    9 cycles
 SCF Done:  E(UM062X) =  -438.562403789     A.U. after    9 cycles
 SCF Done:  E(UM062X) =  -438.562408173     A.U. after    9 cycles
 SCF Done:  E(UM062X) =  -438.562408486     A.U. after    7 cycles
 SCF Done:  E(UM062X) =  -438.562408575     A.U. after    7 cycles
 Optimization completed.
    -- Stationary point found.

                          Input orientation:
 ---------------------------------------------------------------------
 Center     Atomic      Atomic             Coordinates (Angstroms)
 Number     Number       Type             X           Y           Z
 ---------------------------------------------------------------------
      1          6           0       -1.485220    0.000000    0.000000
      2         16           0        1.485220    0.000000    0.000000
      3          1           0        1.453510   -1.343851   -0.001070
      4          1           0       -1.567585    1.077669    0.002642
      5          1           0       -1.594798   -0.531204   -0.934952
      6          1           0       -1.594877   -0.535767    0.932337
 ---------------------------------------------------------------------

 Alpha  occ. eigenvalues --  -89.88826 -10.63158  -8.25059  -6.17121  -6.17028
 Alpha  occ. eigenvalues --   -6.16493  -0.81746  -0.76334  -0.53416  -0.53317
 Alpha  occ. eigenvalues --   -0.42967  -0.30482  -0.28882
 Alpha virt. eigenvalues --   -0.11373   0.01680   0.04190   0.04935   0.05564
 Alpha virt. eigenvalues --    0.07596   0.07971   0.08499   0.11136   0.13549
 Alpha virt. eigenvalues --    0.16779   0.17421   0.22581   0.33059   0.36315

  Beta  occ. eigenvalues --  -89.88826 -10.63158  -8.25059  -6.17121  -6.17028
  Beta  occ. eigenvalues --   -6.16493  -0.81746  -0.76334  -0.53416  -0.53317
  Beta  occ. eigenvalues --   -0.42967  -0.30482  -0.28882
  Beta virt. eigenvalues --   -0.11373   0.01680   0.04190   0.04935   0.05564
  Beta virt. eigenvalues --    0.07596   0.07971   0.08499   0.11136   0.13549
  Beta virt. eigenvalues --    0.16779   0.17421   0.22581   0.33059   0.36315

 Mulliken charges and spin densities:
               1          2
     1  C   -0.448790  -0.000000
     2  S   -0.230324   0.000000
     3  H    0.057097  -0.000000
     4  H    0.208241   0.000000
     5  H    0.206907   0.000000
     6  H    0.206869   0.000000
 Sum of Mulliken charges =  -0.00000   0.00000

 Dipole moment (field-independent basis, Debye):
    X=             -3.4179    Y=             -0.9406    Z=             -0.0008  Tot=              3.5450
 Quadrupole moment (field-independent basis, Debye-Ang):
   XX=            -20.7687   YY=            -19.4473   ZZ=            -23.4823
   XY=             -1.5952   XZ=             -0.0013   YZ=              0.0032

 Normal termination of Gaussian 16 at Mon Apr 21 19:36:44 2025.
