 Gaussian 16, Revision A.03,
 Gaussian 16:  ES64L-G16RevA.03 25-Dec-2016

 --------------------------------------------
 #p opt UM062X/6-311+G** nosymm int=superfine
 --------------------------------------------

 -------------------
 Title Card Required
 -------------------
 Symbolic Z-matrix:
 Charge =  0 Multiplicity = 1

 SCF Done:  E(UM062X) =  -80.5137690158     A.U. after   13 cycles
 SCF Done:  E(UM062X) =  -80.5140532928     A.U. after   10 cycles
 SCF Done:  E(UM062X) =  -80.5140635408     A.U. after   12 cycles
 SCF Done:  E(UM062X) =  -80.5209461587     A.U. after   15 cycles
 SCF Done:  E(UM062X) =  -80.5300449655     A.U. after   15 cycles
 SCF Done:  E(UM062X) =  -80.5449664981     A.U. after   17 cycles
 SCF Done:  E(UM062X) =  -80.5466298118     A.U. after   15 cycles
 SCF Done:  E(UM062X) =  -80.5490603915     A.U. after   14 cycles
 SCF Done:  E(UM062X) =  -80.5507242949     A.U. after   14 cycles
 SCF Done:  E(UM062X) =  -80.5555076062     A.U. after   18 cycles
 SCF Done:  E(UM062X) =  -80.5619656616     A.U. after   15 cycles
 SCF Done:  E(UM062X) =  -80.5632692803     A.U. after   16 cycles
 SCF Done:  E(UM062X) =  -80.5644915864     A.U. after   12 cycles
 SCF Done:  E(UM062X) =  -80.5691546326     A.U. after   14 cycles
 SCF Done:  E(UM062X) =  -80.5736894527     A.U. after   15 cycles
 SCF Done:  E(UM062X) =  -80.5749465159     A.U. after   17 cycles
 SCF Done:  E(UM062X) =  -80.5756032255     A.U. after   12 cycles
 SCF Done:  E(UM062X) =  -80.5757216062     A.U. after   13 cycles
 SCF Done:  E(UM062X) =  -80.5757378951     A.U. after   11 cycles
 SCF Done:  E(UM062X) =  -80.5757386385     A.U. after   10 cycles
 Optimization completed.
    -- Stationary point found.

                          Input orientation:
 ---------------------------------------------------------------------
 Center     Atomic      Atomic             Coordinates (Angstroms)
 Number     Number       Type             X           Y           Z
 ---------------------------------------------------------------------
      1          5           0       -0.967066   -0.000000   -0.000018
      2          7           0        0.967066    0.000000    0.000018
      3          1           0       -2.134281   -0.142267   -0.126654
      4          1           0        1.053504    0.770667    0.685277
 ---------------------------------------------------------------------

 Alpha  occ. eigenvalues --  -14.77304  -7.19679  -0.85681  -0.60366  -0.43557
 Alpha  occ. eigenvalues --   -0.36099  -0.28475
 Alpha virt. eigenvalues --   -0.07215  -0.05829  -0.00462   0.00853   0.04244
 Alpha virt. eigenvalues --    0.04861   0.06736   0.13609   0.16022   0.18599
 Alpha virt. eigenvalues --    0.20245   0.23197   0.25642   0.37171   0.38658

  Beta  occ. eigenvalues --  -14.77304  -7.19679  -0.85681  -0.60366  -0.43557
  Beta  occ. eigenvalues --   -0.36099  -0.28475
  Beta virt. eigenvalues --   -0.07215  -0.05829  -0.00462   0.00853   0.04244
  Beta virt. eigenvalues --    0.04861   0.06736   0.13609   0.16022   0.18599
  Beta virt. eigenvalues --    0.20245   0.23197   0.25642   0.37171   0.38658

 Mulliken charges and spin densities:
               1          2
     1  B    0.182782  -0.000001
     2  N   -0.447622   0.000001
     3  H    0.073456  -0.000000
     4  H    0.191385  -0.000000
 Sum of Mulliken charges =  -0.00000   0.00000

 Dipole moment (field-independent basis, Debye):
    X=             -3.8701    Y=              0.9274    Z=              0.8244  Tot=              4.0641
 Quadrupole moment (field-independent basis, Debye-Ang):
   XX=            -11.4606   YY=            -13.4314   ZZ=            -13.8428
   XY=              1.4415   XZ=              1.2819   YZ=              1.7472

 Normal termination of Gaussian 16 at Mon Apr 21 18:04:14 2025.
