 Gaussian 16, Revision A.03,
 Gaussian 16:  ES64L-G16RevA.03 25-Dec-2016

 --------------------------------------------
 #p opt UM062X/6-311+G** nosymm int=superfine
 --------------------------------------------

 -------------------
 Title Card Required
 -------------------
 Symbolic Z-matrix:
 Charge =  1 Multiplicity = 2

 SCF Done:  E(UM062X) =  -79.3222775307     A.U. after   10 cycles
 SCF Done:  E(UM062X) =  -79.3230085139     A.U. after    9 cycles
 SCF Done:  E(UM062X) =  -79.3230112545     A.U. after    8 cycles
 Optimization completed.
    -- Stationary point found.

                          Input orientation:
 ---------------------------------------------------------------------
 Center     Atomic      Atomic             Coordinates (Angstroms)
 Number     Number       Type             X           Y           Z
 ---------------------------------------------------------------------
      1          6           0       -1.826140    0.000000    0.000000
      2          6           0        1.826140    0.000000    0.000000
      3          1           0        1.859043   -0.937650    0.542687
      4          1           0       -1.857499   -0.938752   -0.540867
      5          1           0        1.858390    0.938844    0.540657
      6          1           0        1.857484   -0.001164   -1.083418
      7          1           0       -1.859091    0.937750   -0.542512
      8          1           0       -1.858327    0.000941    1.083394
 ---------------------------------------------------------------------

 Alpha  occ. eigenvalues --  -10.84083 -10.84081  -1.02648  -1.02110  -0.73620
 Alpha  occ. eigenvalues --   -0.73619  -0.73406  -0.73406  -0.48936
 Alpha virt. eigenvalues --   -0.37188  -0.13107  -0.10209  -0.09753  -0.09753
 Alpha virt. eigenvalues --   -0.06239  -0.06239  -0.04484  -0.03143  -0.00671
 Alpha virt. eigenvalues --   -0.00668   0.01289   0.01291   0.03292   0.08297

  Beta  occ. eigenvalues --  -10.83871 -10.83871  -0.99974  -0.99618  -0.73111
  Beta  occ. eigenvalues --   -0.73111  -0.72878  -0.72878
  Beta virt. eigenvalues --   -0.32778  -0.26503  -0.15988  -0.11087  -0.11086
  Beta virt. eigenvalues --   -0.10171  -0.06277  -0.06276  -0.04996  -0.02210
  Beta virt. eigenvalues --   -0.01002  -0.00999   0.01565   0.01567   0.03304

 Mulliken charges and spin densities:
               1          2
     1  C   -0.259998   0.558778
     2  C   -0.259997   0.558778
     3  H    0.253348  -0.019595
     4  H    0.253307  -0.019600
     5  H    0.253329  -0.019600
     6  H    0.253320  -0.019584
     7  H    0.253350  -0.019594
     8  H    0.253341  -0.019583
 Sum of Mulliken charges =   1.00000   1.00000

 Dipole moment (field-independent basis, Debye):
    X=              0.0000    Y=             -0.0000    Z=             -0.0001  Tot=              0.0001
 Quadrupole moment (field-independent basis, Debye-Ang):
   XX=              4.8411   YY=            -11.0974   ZZ=            -11.0975
   XY=             -0.0016   XZ=              0.0010   YZ=             -0.0000

 Normal termination of Gaussian 16 at Wed Nov 13 12:50:48 2024.
