 Gaussian 16, Revision A.03,
 Gaussian 16:  ES64L-G16RevA.03 25-Dec-2016

 --------------------------------------------
 #p opt UM062X/6-311+G** nosymm int=superfine
 --------------------------------------------

 -------------------
 Title Card Required
 -------------------
 Symbolic Z-matrix:
 Charge =  1 Multiplicity = 2

 SCF Done:  E(UM062X) =  -77.8933177091     A.U. after   10 cycles
 SCF Done:  E(UM062X) =  -77.9410140327     A.U. after    9 cycles
 SCF Done:  E(UM062X) =  -77.9988166112     A.U. after   11 cycles
 SCF Done:  E(UM062X) =  -78.0126200559     A.U. after    9 cycles
 SCF Done:  E(UM062X) =  -78.0148022741     A.U. after    9 cycles
 SCF Done:  E(UM062X) =  -78.0148041475     A.U. after    7 cycles
 Optimization completed.
    -- Stationary point found.

                          Input orientation:
 ---------------------------------------------------------------------
 Center     Atomic      Atomic             Coordinates (Angstroms)
 Number     Number       Type             X           Y           Z
 ---------------------------------------------------------------------
      1          6           0       -1.116889    0.000000    0.000000
      2          6           0        1.116889    0.000000    0.000000
      3          1           0       -1.553156   -0.993067   -0.000000
      4          1           0       -1.553122    0.993274   -0.000000
      5          1           0        1.553156    0.993067   -0.000000
      6          1           0        1.553122   -0.993274   -0.000000
 ---------------------------------------------------------------------

 Alpha  occ. eigenvalues --  -10.92375 -10.92364  -1.05163  -1.00506  -0.80240
 Alpha  occ. eigenvalues --   -0.78142  -0.63877  -0.54463
 Alpha virt. eigenvalues --   -0.37637  -0.28675  -0.13898  -0.10920  -0.10359
 Alpha virt. eigenvalues --   -0.08150  -0.07533  -0.07011  -0.04742  -0.03850
 Alpha virt. eigenvalues --   -0.03389   0.00104   0.01900   0.09252   0.17942

  Beta  occ. eigenvalues --  -10.92132 -10.92125  -1.02217  -0.98201  -0.79772
  Beta  occ. eigenvalues --   -0.77781  -0.62212
  Beta virt. eigenvalues --   -0.34231  -0.28529  -0.26439  -0.15103  -0.11188
  Beta virt. eigenvalues --   -0.10506  -0.07523  -0.07381  -0.07290  -0.04004
  Beta virt. eigenvalues --   -0.03815  -0.02880   0.00626   0.00954   0.10112

 Mulliken charges and spin densities:
               1          2
     1  C   -0.067942   0.541703
     2  C   -0.067942   0.541704
     3  H    0.283959  -0.020850
     4  H    0.283983  -0.020853
     5  H    0.283959  -0.020850
     6  H    0.283983  -0.020853
 Sum of Mulliken charges =   1.00000   1.00000

 Dipole moment (field-independent basis, Debye):
    X=             -0.0000    Y=             -0.0000    Z=             -0.0000  Tot=              0.0000
 Quadrupole moment (field-independent basis, Debye-Ang):
   XX=             -0.5531   YY=             -8.0279   ZZ=            -12.7025
   XY=             -0.0006   XZ=              0.0000   YZ=              0.0000

 Normal termination of Gaussian 16 at Tue Nov 19 11:31:21 2024.
