 Gaussian 16, Revision A.03,
 Gaussian 16:  ES64L-G16RevA.03 25-Dec-2016

 -------------------------------------------------------------------
 #p opt UM062X/6-311+G** nosymm int=superfine SCF=NoVarAcc SCF=tight
 -------------------------------------------------------------------

 -------------------
 Title Card Required
 -------------------
 Symbolic Z-matrix:
 Charge =  1 Multiplicity = 2

 SCF Done:  E(UM062X) =  -77.8891484431     A.U. after   12 cycles
 SCF Done:  E(UM062X) =  -77.8931121150     A.U. after   10 cycles
 SCF Done:  E(UM062X) =  -77.8959144588     A.U. after   10 cycles
 SCF Done:  E(UM062X) =  -77.8959189018     A.U. after    8 cycles
 Optimization completed.
    -- Stationary point found.

                          Input orientation:
 ---------------------------------------------------------------------
 Center     Atomic      Atomic             Coordinates (Angstroms)
 Number     Number       Type             X           Y           Z
 ---------------------------------------------------------------------
      1          6           0       -7.106027    0.000000    0.000000
      2          6           0        7.106027    0.000000    0.000000
      3          1           0       -7.669024   -0.941446    0.000000
      4          1           0       -7.668959    0.941484    0.000000
      5          1           0        7.669024    0.941446   -0.000000
      6          1           0        7.668959   -0.941484   -0.000000
 ---------------------------------------------------------------------

 Alpha  occ. eigenvalues --  -10.84661 -10.84661  -0.96275  -0.96275  -0.70910
 Alpha  occ. eigenvalues --   -0.70910  -0.53651  -0.53651
 Alpha virt. eigenvalues --   -0.27945  -0.27945  -0.08807  -0.08807  -0.04471
 Alpha virt. eigenvalues --   -0.04471  -0.02683  -0.02683  -0.02498  -0.02497
 Alpha virt. eigenvalues --    0.03589   0.03589   0.04287   0.04287   0.30672

  Beta  occ. eigenvalues --  -10.83934 -10.83934  -0.94147  -0.94144  -0.69909
  Beta  occ. eigenvalues --   -0.69909  -0.39063
  Beta virt. eigenvalues --   -0.36970  -0.26356  -0.26356  -0.09109  -0.09107
  Beta virt. eigenvalues --   -0.04979  -0.04979  -0.03171  -0.03171  -0.02793
  Beta virt. eigenvalues --   -0.02792   0.03646   0.03646   0.04764   0.04766

 Mulliken charges and spin densities:
               1          2
     1  C    0.042200   0.486242
     2  C    0.042200   0.486242
     3  H    0.228900   0.006879
     4  H    0.228900   0.006879
     5  H    0.228900   0.006879
     6  H    0.228900   0.006879
 Sum of Mulliken charges =   1.00000   1.00000

 Dipole moment (field-independent basis, Debye):
    X=             -0.0000    Y=             -0.0000    Z=              0.0000  Tot=              0.0000
 Quadrupole moment (field-independent basis, Debye-Ang):
   XX=            276.9788   YY=             -9.5127   ZZ=            -10.6524
   XY=             -0.0007   XZ=             -0.0000   YZ=             -0.0000

 Normal termination of Gaussian 16 at Tue Dec  3 15:47:57 2024.
