 Gaussian 16, Revision A.03,
 Gaussian 16:  ES64L-G16RevA.03 25-Dec-2016

 --------------------------------------------
 #p opt UM062X/6-311+G** nosymm int=superfine
 --------------------------------------------

 -------------------
 Title Card Required
 -------------------
 Symbolic Z-matrix:
 Charge =  0 Multiplicity = 1

 SCF Done:  E(UM062X) =  -79.6502393862     A.U. after    8 cycles
 SCF Done:  E(UM062X) =  -79.6825928062     A.U. after    9 cycles
 SCF Done:  E(UM062X) =  -79.7078664375     A.U. after   10 cycles
 SCF Done:  E(UM062X) =  -79.7147852194     A.U. after    8 cycles
 SCF Done:  E(UM062X) =  -79.7148232653     A.U. after    7 cycles
 SCF Done:  E(UM062X) =  -79.7148241266     A.U. after    6 cycles
 Optimization completed.
    -- Stationary point found.

                          Input orientation:
 ---------------------------------------------------------------------
 Center     Atomic      Atomic             Coordinates (Angstroms)
 Number     Number       Type             X           Y           Z
 ---------------------------------------------------------------------
      1          6           0       -1.099508    0.000000    0.000000
      2          6           0        1.099620    0.000000    0.000000
      3          1           0        1.354098   -0.911457    0.527416
      4          1           0       -1.353980   -0.912487   -0.525636
      5          1           0        1.354095    0.912487    0.525634
      6          1           0        1.354107   -0.001027   -1.053050
      7          1           0       -1.353985    0.911457   -0.527416
      8          1           0       -1.353997    0.001026    1.053049
 ---------------------------------------------------------------------

 Alpha  occ. eigenvalues --  -10.55121 -10.55114  -0.78170  -0.73313  -0.48276
 Alpha  occ. eigenvalues --   -0.48276  -0.45297  -0.45297  -0.30866
 Alpha virt. eigenvalues --    0.01073   0.02416   0.05600   0.05600   0.08384
 Alpha virt. eigenvalues --    0.08384   0.08609   0.09758   0.13317   0.18170
 Alpha virt. eigenvalues --    0.18170   0.22102   0.22102   0.24352   0.26628

  Beta  occ. eigenvalues --  -10.55121 -10.55114  -0.78170  -0.73313  -0.48276
  Beta  occ. eigenvalues --   -0.48276  -0.45297  -0.45297  -0.30866
  Beta virt. eigenvalues --    0.01073   0.02416   0.05600   0.05600   0.08384
  Beta virt. eigenvalues --    0.08384   0.08609   0.09758   0.13317   0.18170
  Beta virt. eigenvalues --    0.18170   0.22102   0.22102   0.24352   0.26628

 Mulliken charges and spin densities:
               1          2
     1  C   -0.503706  -0.000000
     2  C   -0.503707   0.000000
     3  H    0.167902  -0.000000
     4  H    0.167902  -0.000000
     5  H    0.167902  -0.000000
     6  H    0.167902  -0.000000
     7  H    0.167902  -0.000000
     8  H    0.167902   0.000000
 Sum of Mulliken charges =  -0.00000  -0.00000

 Dipole moment (field-independent basis, Debye):
    X=             -0.0000    Y=             -0.0000    Z=             -0.0000  Tot=              0.0000
 Quadrupole moment (field-independent basis, Debye-Ang):
   XX=            -15.5560   YY=            -14.8414   ZZ=            -14.8414
   XY=             -0.0000   XZ=             -0.0001   YZ=             -0.0000

 Normal termination of Gaussian 16 at Tue Nov 19 12:12:51 2024.
