 Gaussian 16, Revision A.03,
 Gaussian 16:  ES64L-G16RevA.03 25-Dec-2016

 --------------------------------------------
 #p opt UM062X/6-311+G** nosymm int=superfine
 --------------------------------------------

 -------------------
 Title Card Required
 -------------------
 Symbolic Z-matrix:
 Charge =  0 Multiplicity = 1

 SCF Done:  E(UM062X) =  -111.730916118     A.U. after   14 cycles
 SCF Done:  E(UM062X) =  -111.750373426     A.U. after   14 cycles
 SCF Done:  E(UM062X) =  -111.757069681     A.U. after   14 cycles
 SCF Done:  E(UM062X) =  -111.758058794     A.U. after   10 cycles
 SCF Done:  E(UM062X) =  -111.759372768     A.U. after   13 cycles
 SCF Done:  E(UM062X) =  -111.759581740     A.U. after   11 cycles
 SCF Done:  E(UM062X) =  -111.759676059     A.U. after   11 cycles
 SCF Done:  E(UM062X) =  -111.759678255     A.U. after    8 cycles
 SCF Done:  E(UM062X) =  -111.759678477     A.U. after    8 cycles
 SCF Done:  E(UM062X) =  -111.759678500     A.U. after    7 cycles
 Optimization completed.
    -- Stationary point found.

                          Input orientation:
 ---------------------------------------------------------------------
 Center     Atomic      Atomic             Coordinates (Angstroms)
 Number     Number       Type             X           Y           Z
 ---------------------------------------------------------------------
      1          7           0       -1.086540    0.000000    0.000000
      2          7           0        1.086540    0.000000    0.000000
      3          1           0       -1.105556   -0.820613   -0.612769
      4          1           0        1.105453    0.416556   -0.935615
      5          1           0       -1.105435   -0.416652    0.935571
      6          1           0        1.105539    0.820672    0.612693
 ---------------------------------------------------------------------

 Alpha  occ. eigenvalues --  -14.79248 -14.79243  -0.96749  -0.91390  -0.55748
 Alpha  occ. eigenvalues --   -0.52412  -0.41445  -0.39719  -0.34182
 Alpha virt. eigenvalues --   -0.06776   0.04547   0.07693   0.08841   0.11641
 Alpha virt. eigenvalues --    0.13414   0.13565   0.15472   0.16013   0.20976
 Alpha virt. eigenvalues --    0.22341   0.27449   0.27698   0.51394   0.52098

  Beta  occ. eigenvalues --  -14.79248 -14.79243  -0.96749  -0.91390  -0.55748
  Beta  occ. eigenvalues --   -0.52412  -0.41445  -0.39719  -0.34182
  Beta virt. eigenvalues --   -0.06776   0.04547   0.07693   0.08841   0.11641
  Beta virt. eigenvalues --    0.13414   0.13565   0.15472   0.16013   0.20976
  Beta virt. eigenvalues --    0.22341   0.27449   0.27698   0.51394   0.52098

 Mulliken charges and spin densities:
               1          2
     1  N   -0.518359  -0.000000
     2  N   -0.518358   0.000000
     3  H    0.259176   0.000000
     4  H    0.259177  -0.000000
     5  H    0.259181   0.000000
     6  H    0.259182  -0.000000
 Sum of Mulliken charges =  -0.00000   0.00000

 Dipole moment (field-independent basis, Debye):
    X=              0.0000    Y=             -0.0001    Z=             -0.0002  Tot=              0.0002
 Quadrupole moment (field-independent basis, Debye-Ang):
   XX=            -15.4098   YY=            -13.9984   ZZ=            -11.2596
   XY=              5.0595   XZ=             -1.3200   YZ=              0.7669

 Normal termination of Gaussian 16 at Thu May 15 14:31:28 2025.
