 Gaussian 16, Revision A.03,
 Gaussian 16:  ES64L-G16RevA.03 25-Dec-2016

 ---------------------------------------------------
 #p UM062X/6-311+G** force int=superfine pop=saveNBO
 ---------------------------------------------------

 -------------------
 Title Card Required
 -------------------
 Symbolic Z-matrix:
 Charge =  0 Multiplicity = 1

                         Standard orientation:
 ---------------------------------------------------------------------
 Center     Atomic      Atomic             Coordinates (Angstroms)
 Number     Number       Type             X           Y           Z
 ---------------------------------------------------------------------
      1         15           0        0.000000    0.000000    1.063495
      2         15           0        0.000000    0.000000   -1.063495
 ---------------------------------------------------------------------

 SCF Done:  E(UM062X) =  -682.628889909     A.U. after    9 cycles

 The electronic state is 1-SGG.
 Alpha  occ. eigenvalues --  -78.07561 -78.07561  -6.89572  -6.89558  -5.00990
 Alpha  occ. eigenvalues --   -5.00990  -5.00985  -5.00985  -5.00817  -5.00767
 Alpha  occ. eigenvalues --   -0.73136  -0.55357  -0.34575  -0.31389  -0.31389
 Alpha virt. eigenvalues --   -0.09264  -0.09264   0.01402   0.02632   0.04222
 Alpha virt. eigenvalues --    0.04222   0.05877   0.07017   0.07017   0.07551
 Alpha virt. eigenvalues --    0.12942   0.26520   0.31219   0.31219   0.32737

  Beta  occ. eigenvalues --  -78.07561 -78.07561  -6.89572  -6.89558  -5.00990
  Beta  occ. eigenvalues --   -5.00990  -5.00985  -5.00985  -5.00817  -5.00767
  Beta  occ. eigenvalues --   -0.73136  -0.55357  -0.34575  -0.31389  -0.31389
  Beta virt. eigenvalues --   -0.09264  -0.09264   0.01402   0.02632   0.04222
  Beta virt. eigenvalues --    0.04222   0.05877   0.07017   0.07017   0.07551
  Beta virt. eigenvalues --    0.12942   0.26520   0.31219   0.31219   0.32737

 Mulliken charges and spin densities:
               1          2
     1  P    0.000000  -0.000000
     2  P    0.000000  -0.000000
 Sum of Mulliken charges =   0.00000  -0.00000

 Dipole moment (field-independent basis, Debye):
    X=              0.0000    Y=             -0.0000    Z=             -0.0000  Tot=              0.0000
 Quadrupole moment (field-independent basis, Debye-Ang):
   XX=            -27.2425   YY=            -27.2425   ZZ=            -26.1968
   XY=              0.0000   XZ=             -0.0000   YZ=              0.0000

 Summary of Natural Population Analysis:

                                       Natural Population
                Natural  -----------------------------------------------
    Atom  No    Charge         Core      Valence    Rydberg      Total
 -----------------------------------------------------------------------
      P    1   -0.00000      4.99979     2.48585    0.01437     7.50000
      P    2    0.00000      4.99979     2.48585    0.01437     7.50000
 =======================================================================
   * Total *    0.00000      9.99957     4.97169    0.02874    15.00000

 Normal termination of Gaussian 16 at Mon Apr 21 21:19:49 2025.
