 Gaussian 16, Revision A.03,
 Gaussian 16:  ES64L-G16RevA.03 25-Dec-2016

 --------------------------------
 #p UM062X/6-311+G** Pop=NBO Read
 --------------------------------

 ------------
 NBO Analysis
 ------------
 Symbolic Z-matrix:
 Charge =  0 Multiplicity = 1

                         Standard orientation:
 ---------------------------------------------------------------------
 Center     Atomic      Atomic             Coordinates (Angstroms)
 Number     Number       Type             X           Y           Z
 ---------------------------------------------------------------------
      1          6           0        0.706736   -0.000000    0.017992
      2          7           0       -0.747861   -0.000000   -0.119546
      3          1           0       -1.153184    0.814731    0.325030
      4          1           0        1.113069   -0.877952   -0.486516
      5          1           0       -1.153187   -0.814730    0.325030
      6          1           0        1.113068    0.877957   -0.486508
      7          1           0        1.074846   -0.000005    1.051837
 ---------------------------------------------------------------------

 SCF Done:  E(UM062X) =  -95.8109490524     A.U. after   11 cycles

 The electronic state is 1-A.
 Alpha  occ. eigenvalues --  -14.74161 -10.56097  -0.98151  -0.75011  -0.56382
 Alpha  occ. eigenvalues --   -0.50876  -0.46980  -0.43104  -0.30333
 Alpha virt. eigenvalues --    0.02058   0.04692   0.06018   0.06789   0.12183
 Alpha virt. eigenvalues --    0.14565   0.16740   0.22614   0.23432   0.24746
 Alpha virt. eigenvalues --    0.26851   0.28564   0.32023   0.35749   0.66996

  Beta  occ. eigenvalues --  -14.74161 -10.56097  -0.98151  -0.75011  -0.56382
  Beta  occ. eigenvalues --   -0.50876  -0.46980  -0.43104  -0.30333
  Beta virt. eigenvalues --    0.02058   0.04692   0.06018   0.06789   0.12183
  Beta virt. eigenvalues --    0.14565   0.16740   0.22614   0.23432   0.24746
  Beta virt. eigenvalues --    0.26851   0.28564   0.32023   0.35749   0.66996

 Mulliken charges and spin densities:
               1          2
     1  C   -0.376994   0.000000
     2  N   -0.446670  -0.000000
     3  H    0.223630   0.000000
     4  H    0.132725   0.000000
     5  H    0.223630   0.000000
     6  H    0.132725   0.000000
     7  H    0.110954  -0.000000
 Sum of Mulliken charges =  -0.00000   0.00000

 Dipole moment (field-independent basis, Debye):
    X=              0.2789    Y=              0.0000    Z=              1.4364  Tot=              1.4632
 Quadrupole moment (field-independent basis, Debye-Ang):
   XX=            -14.0234   YY=            -12.6703   ZZ=            -15.7869
   XY=              0.0000   XZ=             -2.2207   YZ=              0.0000

 Summary of Natural Population Analysis:

                                       Natural Population
                Natural  -----------------------------------------------
    Atom  No    Charge         Core      Valence    Rydberg      Total
 -----------------------------------------------------------------------
      C    1   -0.25736      0.99985     2.25220    0.00531     3.25736
      N    2   -0.47600      0.99985     2.96307    0.01308     3.97600
      H    3    0.19870      0.00000     0.29990    0.00139     0.30130
      H    4    0.11673      0.00000     0.38278    0.00049     0.38327
      H    5    0.19870      0.00000     0.29990    0.00139     0.30130
      H    6    0.11673      0.00000     0.38278    0.00049     0.38327
      H    7    0.10248      0.00000     0.39689    0.00063     0.39752
 =======================================================================
   * Total *   -0.00000      1.99970     6.97753    0.02278     9.00000

 Normal termination of Gaussian 16 at Wed Apr 16 02:14:22 2025.
