 Gaussian 16, Revision A.03,
 Gaussian 16:  ES64L-G16RevA.03 25-Dec-2016

 --------------------------------------------
 #p opt UM062X/6-311+G** nosymm int=superfine
 --------------------------------------------

 -------------------
 Title Card Required
 -------------------
 Symbolic Z-matrix:
 Charge = -1 Multiplicity = 2

 SCF Done:  E(UM062X) =  -51.8458190938     A.U. after   12 cycles
 SCF Done:  E(UM062X) =  -51.8458409911     A.U. after    9 cycles
 Optimization completed.
    -- Stationary point found.

                          Input orientation:
 ---------------------------------------------------------------------
 Center     Atomic      Atomic             Coordinates (Angstroms)
 Number     Number       Type             X           Y           Z
 ---------------------------------------------------------------------
      1          5           0       -2.172274    0.000000    0.000000
      2          5           0        2.172274    0.000000    0.000000
      3          1           0       -2.840888   -1.012993   -0.000012
      4          1           0        2.840888    1.012993   -0.000487
      5          1           0       -2.840890    1.012991   -0.000010
      6          1           0        2.840890   -1.012991    0.000465
 ---------------------------------------------------------------------

 Alpha  occ. eigenvalues --   -6.88147  -6.88147  -0.38265  -0.38204  -0.22390
 Alpha  occ. eigenvalues --   -0.22352  -0.05573  -0.03021
 Alpha virt. eigenvalues --    0.11647   0.12767   0.14870   0.15376   0.15581
 Alpha virt. eigenvalues --    0.17396   0.19649   0.20623   0.20732   0.22990
 Alpha virt. eigenvalues --    0.31984   0.33208   0.33760   0.36396   0.50653

  Beta  occ. eigenvalues --   -6.87556  -6.87555  -0.36922  -0.36789  -0.21689
  Beta  occ. eigenvalues --   -0.21637   0.01900
  Beta virt. eigenvalues --    0.12298   0.12999   0.13901   0.14447   0.15869
  Beta virt. eigenvalues --    0.17792   0.18130   0.22016   0.22246   0.24178
  Beta virt. eigenvalues --    0.25276   0.32049   0.33399   0.33919   0.37223

 Mulliken charges and spin densities:
               1          2
     1  B   -0.344590   0.491890
     2  B   -0.344590   0.491890
     3  H   -0.077705   0.004055
     4  H   -0.077705   0.004055
     5  H   -0.077705   0.004055
     6  H   -0.077705   0.004055
 Sum of Mulliken charges =  -1.00000   1.00000

 Dipole moment (field-independent basis, Debye):
    X=              0.0000    Y=             -0.0000    Z=             -0.0000  Tot=              0.0000
 Quadrupole moment (field-independent basis, Debye-Ang):
   XX=            -43.0023   YY=            -24.4268   ZZ=            -18.9355
   XY=              0.0000   XZ=             -0.0000   YZ=              0.0013

 Normal termination of Gaussian 16 at Mon Apr 21 17:22:05 2025.
