 Gaussian 16, Revision A.03,
 Gaussian 16:  ES64L-G16RevA.03 25-Dec-2016

 ---------------------------------------------------------
 #p opt UM062X/6-311+G** nosymm int=superfine SCF=NoVarAcc
 ---------------------------------------------------------

 -------------------
 Title Card Required
 -------------------
 Symbolic Z-matrix:
 Charge =  1 Multiplicity = 2

 SCF Done:  E(UM062X) =  -77.9986399116     A.U. after    9 cycles
 SCF Done:  E(UM062X) =  -77.9986497492     A.U. after    6 cycles
 SCF Done:  E(UM062X) =  -77.9986533263     A.U. after    7 cycles
 Optimization completed.
    -- Stationary point found.

                          Input orientation:
 ---------------------------------------------------------------------
 Center     Atomic      Atomic             Coordinates (Angstroms)
 Number     Number       Type             X           Y           Z
 ---------------------------------------------------------------------
      1          6           0       -1.156027    0.000000    0.000000
      2          6           0        1.156027    0.000000    0.000000
      3          1           0       -1.584046   -0.997223    0.000000
      4          1           0       -1.584047    0.997222   -0.000000
      5          1           0        1.584046    0.997223    0.000000
      6          1           0        1.584047   -0.997222   -0.000000
 ---------------------------------------------------------------------

 Alpha  occ. eigenvalues --  -10.92391 -10.92381  -1.04660  -1.00614  -0.80079
 Alpha  occ. eigenvalues --   -0.78305  -0.62704  -0.53852
 Alpha virt. eigenvalues --   -0.37991  -0.30044  -0.13810  -0.10885  -0.10410
 Alpha virt. eigenvalues --   -0.08068  -0.07548  -0.06943  -0.04726  -0.03738
 Alpha virt. eigenvalues --   -0.03620   0.00329   0.01835   0.09223   0.18040

  Beta  occ. eigenvalues --  -10.92144 -10.92138  -1.01751  -0.98279  -0.79629
  Beta  occ. eigenvalues --   -0.77943  -0.61010
  Beta virt. eigenvalues --   -0.33821  -0.28739  -0.27833  -0.14980  -0.11137
  Beta virt. eigenvalues --   -0.10577  -0.07453  -0.07378  -0.07178  -0.03946
  Beta virt. eigenvalues --   -0.03790  -0.03103   0.00817   0.00830   0.10124

 Mulliken charges and spin densities:
               1          2
     1  C   -0.067942   0.541833
     2  C   -0.067942   0.541833
     3  H    0.283971  -0.020916
     4  H    0.283971  -0.020916
     5  H    0.283971  -0.020916
     6  H    0.283971  -0.020916
 Sum of Mulliken charges =   1.00000   1.00000

 Dipole moment (field-independent basis, Debye):
    X=             -0.0000    Y=             -0.0000    Z=              0.0000  Tot=              0.0000
 Quadrupole moment (field-independent basis, Debye-Ang):
   XX=              0.0427   YY=             -7.9855   ZZ=            -12.7627
   XY=              0.0000   XZ=             -0.0000   YZ=             -0.0000

 Normal termination of Gaussian 16 at Tue Dec  3 13:21:33 2024.
