 Gaussian 16, Revision A.03,
 Gaussian 16:  ES64L-G16RevA.03 25-Dec-2016

 --------------------------------------------
 #p opt UM062X/6-311+G** nosymm int=superfine
 --------------------------------------------

 -------------------
 Title Card Required
 -------------------
 Symbolic Z-matrix:
 Charge =  0 Multiplicity = 1

 SCF Done:  E(UM062X) =  -797.546867272     A.U. after   10 cycles
 SCF Done:  E(UM062X) =  -797.547286991     A.U. after   10 cycles
 SCF Done:  E(UM062X) =  -797.546743377     A.U. after   11 cycles
 SCF Done:  E(UM062X) =  -797.547352636     A.U. after   10 cycles
 SCF Done:  E(UM062X) =  -797.547352699     A.U. after    8 cycles
 Optimization completed.
    -- Stationary point found.

                          Input orientation:
 ---------------------------------------------------------------------
 Center     Atomic      Atomic             Coordinates (Angstroms)
 Number     Number       Type             X           Y           Z
 ---------------------------------------------------------------------
      1         16           0       -1.143191    0.000000    0.000000
      2         16           0        1.143191    0.000000    0.000000
      3          1           0       -1.252731   -1.338482   -0.010685
      4          1           0        1.252286    0.049952    1.337775
 ---------------------------------------------------------------------

 Alpha  occ. eigenvalues --  -89.93374 -89.93374  -8.29686  -8.29683  -6.21842
 Alpha  occ. eigenvalues --   -6.21834  -6.21577  -6.21576  -6.21080  -6.21080
 Alpha  occ. eigenvalues --   -0.87115  -0.77284  -0.49893  -0.47198  -0.40417
 Alpha  occ. eigenvalues --   -0.32897  -0.32631
 Alpha virt. eigenvalues --   -0.06083   0.01595   0.03463   0.04935   0.04991
 Alpha virt. eigenvalues --    0.05991   0.07638   0.07723   0.07797   0.12647
 Alpha virt. eigenvalues --    0.13713   0.30230   0.31849   0.33057   0.33291

  Beta  occ. eigenvalues --  -89.93374 -89.93374  -8.29686  -8.29683  -6.21842
  Beta  occ. eigenvalues --   -6.21834  -6.21577  -6.21576  -6.21080  -6.21080
  Beta  occ. eigenvalues --   -0.87115  -0.77284  -0.49893  -0.47198  -0.40417
  Beta  occ. eigenvalues --   -0.32897  -0.32631
  Beta virt. eigenvalues --   -0.06083   0.01595   0.03463   0.04935   0.04991
  Beta virt. eigenvalues --    0.05991   0.07638   0.07723   0.07797   0.12647
  Beta virt. eigenvalues --    0.13713   0.30230   0.31849   0.33057   0.33291

 Mulliken charges and spin densities:
               1          2
     1  S   -0.088825   0.000000
     2  S   -0.088713  -0.000000
     3  H    0.088763   0.000000
     4  H    0.088775   0.000000
 Sum of Mulliken charges =   0.00000   0.00000

 Dipole moment (field-independent basis, Debye):
    X=              0.0002    Y=             -1.0298    Z=              1.0604  Tot=              1.4782
 Quadrupole moment (field-independent basis, Debye-Ang):
   XX=            -26.6052   YY=            -27.4223   ZZ=            -27.4330
   XY=              1.8334   XZ=              1.7793   YZ=              0.1906

 Normal termination of Gaussian 16 at Mon Apr 21 21:15:12 2025.
