 Gaussian 16, Revision A.03,
 Gaussian 16:  ES64L-G16RevA.03 25-Dec-2016

 ---------------------------------------------------
 #p UM062X/6-311+G** force int=superfine pop=saveNBO
 ---------------------------------------------------

 -------------------
 Title Card Required
 -------------------
 Symbolic Z-matrix:
 Charge =  0 Multiplicity = 1

                         Standard orientation:
 ---------------------------------------------------------------------
 Center     Atomic      Atomic             Coordinates (Angstroms)
 Number     Number       Type             X           Y           Z
 ---------------------------------------------------------------------
      1          8           0        0.000000    0.000000   -2.160091
      2         16           0        0.000000    0.000000    1.080045
 ---------------------------------------------------------------------

 SCF Done:  E(UM062X) =  -473.007927673     A.U. after   23 cycles

 Unable to determine electronic state:  an orbital has unidentified symmetry.
 Alpha  occ. eigenvalues --  -89.96615 -19.79328  -8.32632  -6.25415  -6.23851
 Alpha  occ. eigenvalues --   -6.23817  -1.08911  -0.76564  -0.47850  -0.47661
 Alpha  occ. eigenvalues --   -0.33755  -0.33740
 Alpha virt. eigenvalues --   -0.21899  -0.18686   0.03945   0.05355   0.05803
 Alpha virt. eigenvalues --    0.05913   0.15125   0.16674   0.17446   0.22598
 Alpha virt. eigenvalues --    0.34933   0.35076   0.35103   0.59266   0.78215

  Beta  occ. eigenvalues --  -89.96615 -19.79328  -8.32632  -6.25415  -6.23851
  Beta  occ. eigenvalues --   -6.23817  -1.08911  -0.76564  -0.47850  -0.47661
  Beta  occ. eigenvalues --   -0.33755  -0.33740
  Beta virt. eigenvalues --   -0.21899  -0.18686   0.03945   0.05355   0.05803
  Beta virt. eigenvalues --    0.05913   0.15125   0.16674   0.17446   0.22598
  Beta virt. eigenvalues --    0.34933   0.35076   0.35103   0.59266   0.78215

 Mulliken charges and spin densities:
               1          2
     1  O   -0.012265   0.000000
     2  S    0.012265   0.000000
 Sum of Mulliken charges =  -0.00000   0.00000

 Dipole moment (field-independent basis, Debye):
    X=              0.0000    Y=              0.0000    Z=              0.1814  Tot=              0.1814
 Quadrupole moment (field-independent basis, Debye-Ang):
   XX=            -18.9405   YY=            -21.1513   ZZ=            -15.6682
   XY=              0.0000   XZ=              0.0000   YZ=              0.0000

 Summary of Natural Population Analysis:

                                       Natural Population
                Natural  -----------------------------------------------
    Atom  No    Charge         Core      Valence    Rydberg      Total
 -----------------------------------------------------------------------
      O    1   -0.00534      1.00000     3.00502    0.00032     4.00534
      S    2    0.00534      4.99999     2.99424    0.00043     7.99466
 =======================================================================
   * Total *    0.00000      5.99999     5.99926    0.00075    12.00000

 Normal termination of Gaussian 16 at Mon Apr 21 20:00:16 2025.
