 Gaussian 16, Revision A.03,
 Gaussian 16:  ES64L-G16RevA.03 25-Dec-2016

 --------------------------------------------
 #p opt UM062X/6-311+G** nosymm int=superfine
 --------------------------------------------

 -------------------
 Title Card Required
 -------------------
 Symbolic Z-matrix:
 Charge =  1 Multiplicity = 2

 SCF Done:  E(UM062X) =  -79.3459731796     A.U. after   10 cycles
 SCF Done:  E(UM062X) =  -79.3459750328     A.U. after    7 cycles
 Optimization completed.
    -- Stationary point found.

                          Input orientation:
 ---------------------------------------------------------------------
 Center     Atomic      Atomic             Coordinates (Angstroms)
 Number     Number       Type             X           Y           Z
 ---------------------------------------------------------------------
      1          6           0       -1.412405    0.000000    0.000000
      2          6           0        1.412405    0.000000    0.000000
      3          1           0        1.472858   -0.936756    0.542157
      4          1           0       -1.471707   -0.937871   -0.540353
      5          1           0        1.472383    0.937957    0.540130
      6          1           0        1.471654   -0.001150   -1.082399
      7          1           0       -1.472892    0.936840   -0.542011
      8          1           0       -1.472287    0.000924    1.082365
 ---------------------------------------------------------------------

 Alpha  occ. eigenvalues --  -10.85325 -10.85322  -1.04878  -1.02638  -0.75305
 Alpha  occ. eigenvalues --   -0.75305  -0.74174  -0.74173  -0.54276
 Alpha virt. eigenvalues --   -0.34202  -0.14531  -0.10413  -0.10412  -0.10088
 Alpha virt. eigenvalues --   -0.06210  -0.06210  -0.05723  -0.03133  -0.02851
 Alpha virt. eigenvalues --   -0.02848   0.01447   0.01449   0.05349   0.07508

  Beta  occ. eigenvalues --  -10.85129 -10.85129  -1.01837  -1.00253  -0.74694
  Beta  occ. eigenvalues --   -0.74693  -0.73661  -0.73660
  Beta virt. eigenvalues --   -0.33019  -0.24718  -0.15467  -0.11121  -0.11121
  Beta virt. eigenvalues --   -0.09800  -0.06501  -0.06500  -0.05755  -0.02956
  Beta virt. eigenvalues --   -0.02953  -0.02326   0.01791   0.01793   0.06084

 Mulliken charges and spin densities:
               1          2
     1  C   -0.276313   0.571981
     2  C   -0.276315   0.571981
     3  H    0.258787  -0.024006
     4  H    0.258738  -0.024001
     5  H    0.258766  -0.024004
     6  H    0.258761  -0.023970
     7  H    0.258788  -0.024007
     8  H    0.258787  -0.023974
 Sum of Mulliken charges =   1.00000   1.00000

 Dipole moment (field-independent basis, Debye):
    X=              0.0000    Y=             -0.0000    Z=             -0.0001  Tot=              0.0001
 Quadrupole moment (field-independent basis, Debye-Ang):
   XX=             -1.6207   YY=            -10.9958   ZZ=            -10.9958
   XY=             -0.0013   XZ=              0.0008   YZ=             -0.0001

 Normal termination of Gaussian 16 at Wed Nov 13 12:45:19 2024.
