 Gaussian 16, Revision A.03,
 Gaussian 16:  ES64L-G16RevA.03 25-Dec-2016

 --------------------------------
 #p UM062X/6-311+G** Pop=NBO Read
 --------------------------------

 ------------
 NBO Analysis
 ------------
 Symbolic Z-matrix:
 Charge =  0 Multiplicity = 1

                         Standard orientation:
 ---------------------------------------------------------------------
 Center     Atomic      Atomic             Coordinates (Angstroms)
 Number     Number       Type             X           Y           Z
 ---------------------------------------------------------------------
      1          6           0       -0.662569   -0.020506    0.000019
      2          8           0        0.744625    0.122142    0.000019
      3          1           0        1.144723   -0.749119    0.000019
      4          1           0       -1.022541   -0.544050    0.891784
      5          1           0       -1.081982    0.984522   -0.000899
      6          1           0       -1.021787   -0.545454   -0.891164
 ---------------------------------------------------------------------

 SCF Done:  E(UM062X) =  -115.672760361     A.U. after   10 cycles

 The electronic state is 1-A.
 Alpha  occ. eigenvalues --  -19.64199 -10.58847  -1.14674  -0.77917  -0.58820
 Alpha  occ. eigenvalues --   -0.51769  -0.50079  -0.40908  -0.35328
 Alpha virt. eigenvalues --    0.01955   0.04060   0.06062   0.06296   0.17593
 Alpha virt. eigenvalues --    0.20441   0.22968   0.23453   0.24405   0.24648
 Alpha virt. eigenvalues --    0.28921   0.31863   0.36179   0.66693   0.69135

  Beta  occ. eigenvalues --  -19.64199 -10.58847  -1.14674  -0.77917  -0.58820
  Beta  occ. eigenvalues --   -0.51769  -0.50079  -0.40908  -0.35328
  Beta virt. eigenvalues --    0.01955   0.04060   0.06062   0.06296   0.17593
  Beta virt. eigenvalues --    0.20441   0.22968   0.23453   0.24405   0.24648
  Beta virt. eigenvalues --    0.28921   0.31863   0.36179   0.66693   0.69135

 Mulliken charges and spin densities:
               1          2
     1  C   -0.274463   0.000000
     2  O   -0.359957   0.000000
     3  H    0.260765  -0.000000
     4  H    0.116915  -0.000000
     5  H    0.139845  -0.000000
     6  H    0.116895  -0.000000
 Sum of Mulliken charges =  -0.00000   0.00000

 Dipole moment (field-independent basis, Debye):
    X=             -0.9315    Y=             -1.6528    Z=             -0.0002  Tot=              1.8972
 Quadrupole moment (field-independent basis, Debye-Ang):
   XX=            -13.0607   YY=            -12.3423   ZZ=            -13.9134
   XY=             -2.4435   XZ=             -0.0004   YZ=             -0.0001

 Summary of Natural Population Analysis:

                                       Natural Population
                Natural  -----------------------------------------------
    Atom  No    Charge         Core      Valence    Rydberg      Total
 -----------------------------------------------------------------------
      C    1   -0.17080      0.99982     2.16414    0.00684     3.17080
      O    2   -0.39255      0.99991     3.38292    0.00972     4.39255
      H    3    0.24993      0.00000     0.24740    0.00267     0.25007
      H    4    0.09988      0.00000     0.39949    0.00063     0.40012
      H    5    0.11367      0.00000     0.38583    0.00050     0.38633
      H    6    0.09988      0.00000     0.39950    0.00063     0.40012
 =======================================================================
   * Total *   -0.00000      1.99973     6.97928    0.02098     9.00000

 Normal termination of Gaussian 16 at Wed Apr 16 02:50:57 2025.
