 Gaussian 16, Revision A.03,
 Gaussian 16:  ES64L-G16RevA.03 25-Dec-2016

 --------------------------------------------
 #p opt UM062X/6-311+G** nosymm int=superfine
 --------------------------------------------

 -------------------
 Title Card Required
 -------------------
 Symbolic Z-matrix:
 Charge =  0 Multiplicity = 1

 SCF Done:  E(UM062X) =  -51.9118610825     A.U. after    9 cycles
 SCF Done:  E(UM062X) =  -51.9118491618     A.U. after    8 cycles
 SCF Done:  E(UM062X) =  -51.9118611544     A.U. after    8 cycles
 SCF Done:  E(UM062X) =  -51.9118611690     A.U. after    8 cycles
 Optimization completed.
    -- Stationary point found.

                          Input orientation:
 ---------------------------------------------------------------------
 Center     Atomic      Atomic             Coordinates (Angstroms)
 Number     Number       Type             X           Y           Z
 ---------------------------------------------------------------------
      1          5           0       -1.295607    0.000000    0.000000
      2          5           0        1.295607    0.000000    0.000000
      3          1           0       -1.836408   -0.746246   -0.742680
      4          1           0        1.836335    0.743528   -0.745455
      5          1           0       -1.836371    0.745830    0.743125
      6          1           0        1.836432   -0.743476    0.745435
 ---------------------------------------------------------------------

 Alpha  occ. eigenvalues --   -7.09230  -7.09224  -0.57726  -0.55543  -0.42769
 Alpha  occ. eigenvalues --   -0.42768  -0.26824
 Alpha virt. eigenvalues --   -0.03771  -0.03767   0.01707   0.02329   0.04900
 Alpha virt. eigenvalues --    0.04901   0.06363   0.07173   0.07468   0.07469
 Alpha virt. eigenvalues --    0.10992   0.15861   0.18545   0.20842   0.20848

  Beta  occ. eigenvalues --   -7.09230  -7.09224  -0.57726  -0.55543  -0.42769
  Beta  occ. eigenvalues --   -0.42768  -0.26824
  Beta virt. eigenvalues --   -0.03771  -0.03767   0.01707   0.02329   0.04900
  Beta virt. eigenvalues --    0.04901   0.06363   0.07173   0.07468   0.07469
  Beta virt. eigenvalues --    0.10992   0.15861   0.18545   0.20842   0.20848

 Mulliken charges and spin densities:
               1          2
     1  B   -0.033333  -0.000000
     2  B   -0.033330  -0.000000
     3  H    0.016666   0.000000
     4  H    0.016665   0.000000
     5  H    0.016665   0.000000
     6  H    0.016667   0.000000
 Sum of Mulliken charges =  -0.00000  -0.00000

 Dipole moment (field-independent basis, Debye):
    X=              0.0000    Y=              0.0001    Z=             -0.0001  Tot=              0.0002
 Quadrupole moment (field-independent basis, Debye-Ang):
   XX=            -15.6163   YY=            -15.2259   ZZ=            -15.2233
   XY=             -0.0007   XZ=              0.0007   YZ=             -0.0000

 Normal termination of Gaussian 16 at Mon Apr 21 18:52:16 2025.
