 Gaussian 16, Revision A.03,
 Gaussian 16:  ES64L-G16RevA.03 25-Dec-2016

 --------------------------------------------
 #p opt UM062X/6-311+G** nosymm int=superfine
 --------------------------------------------

 -------------------
 Title Card Required
 -------------------
 Symbolic Z-matrix:
 Charge =  0 Multiplicity = 1

 SCF Done:  E(UM062X) =  -579.882860288     A.U. after   10 cycles
 SCF Done:  E(UM062X) =  -579.885672086     A.U. after   10 cycles
 SCF Done:  E(UM062X) =  -579.885677089     A.U. after    7 cycles
 Optimization completed.
    -- Stationary point found.

                          Input orientation:
 ---------------------------------------------------------------------
 Center     Atomic      Atomic             Coordinates (Angstroms)
 Number     Number       Type             X           Y           Z
 ---------------------------------------------------------------------
      1         14           0       -2.103705    0.000000    0.000000
      2         14           0        2.103705    0.000000    0.000000
      3          1           0       -3.628960   -0.000027    0.000000
      4          1           0        3.628960    0.000040    0.000000
 ---------------------------------------------------------------------

 Alpha  occ. eigenvalues --  -67.04546 -67.04545  -5.58968  -5.58967  -3.90077
 Alpha  occ. eigenvalues --   -3.90077  -3.89626  -3.89626  -3.89485  -3.89485
 Alpha  occ. eigenvalues --   -0.55012  -0.54674  -0.33814  -0.31367  -0.17979
 Alpha virt. eigenvalues --   -0.10639  -0.09268  -0.08199   0.02275   0.02925
 Alpha virt. eigenvalues --    0.04532   0.05704   0.05945   0.06036   0.06589
 Alpha virt. eigenvalues --    0.07068   0.08667   0.16748   0.29407   0.29536

  Beta  occ. eigenvalues --  -67.04546 -67.04545  -5.58968  -5.58967  -3.90077
  Beta  occ. eigenvalues --   -3.90077  -3.89626  -3.89626  -3.89485  -3.89485
  Beta  occ. eigenvalues --   -0.55012  -0.54674  -0.33814  -0.31367  -0.17979
  Beta virt. eigenvalues --   -0.10639  -0.09268  -0.08199   0.02275   0.02925
  Beta virt. eigenvalues --    0.04532   0.05704   0.05945   0.06036   0.06589
  Beta virt. eigenvalues --    0.07068   0.08667   0.16748   0.29407   0.29536

 Mulliken charges and spin densities:
               1          2
     1  Si   0.148388  -0.000003
     2  Si   0.148388   0.000003
     3  H   -0.148388   0.000000
     4  H   -0.148388  -0.000000
 Sum of Mulliken charges =  -0.00000   0.00000

 Dipole moment (field-independent basis, Debye):
    X=             -0.0000    Y=              0.0000    Z=              0.0000  Tot=              0.0000
 Quadrupole moment (field-independent basis, Debye-Ang):
   XX=            -30.5157   YY=            -24.2752   ZZ=            -35.6775
   XY=             -0.0002   XZ=              0.0000   YZ=             -0.0171

 Normal termination of Gaussian 16 at Mon Apr 21 21:25:41 2025.
