 Gaussian 16, Revision A.03,
 Gaussian 16:  ES64L-G16RevA.03 25-Dec-2016

 --------------------------------------------
 #p opt UM062X/6-311+G** nosymm int=superfine
 --------------------------------------------

 -------------------
 Title Card Required
 -------------------
 Symbolic Z-matrix:
 Charge =  0 Multiplicity = 1

 SCF Done:  E(UM062X) =  -111.673211760     A.U. after   16 cycles
 SCF Done:  E(UM062X) =  -111.691430663     A.U. after   14 cycles
 SCF Done:  E(UM062X) =  -111.700570905     A.U. after   15 cycles
 SCF Done:  E(UM062X) =  -111.701601745     A.U. after   12 cycles
 SCF Done:  E(UM062X) =  -111.702977832     A.U. after   12 cycles
 SCF Done:  E(UM062X) =  -111.703372900     A.U. after   13 cycles
 SCF Done:  E(UM062X) =  -111.703483491     A.U. after   12 cycles
 SCF Done:  E(UM062X) =  -111.703512857     A.U. after   11 cycles
 SCF Done:  E(UM062X) =  -111.703526209     A.U. after    9 cycles
 SCF Done:  E(UM062X) =  -111.703527505     A.U. after   10 cycles
 SCF Done:  E(UM062X) =  -111.703527525     A.U. after    8 cycles
 Optimization completed.
    -- Stationary point found.

                          Input orientation:
 ---------------------------------------------------------------------
 Center     Atomic      Atomic             Coordinates (Angstroms)
 Number     Number       Type             X           Y           Z
 ---------------------------------------------------------------------
      1          7           0       -1.311540    0.000000    0.000000
      2          7           0        1.311540    0.000000    0.000000
      3          1           0       -1.259431   -0.821001   -0.614195
      4          1           0        1.259578    0.416555   -0.936898
      5          1           0       -1.259555   -0.416757    0.936808
      6          1           0        1.259396    0.821131    0.614019
 ---------------------------------------------------------------------

 Alpha  occ. eigenvalues --  -14.80227 -14.80224  -0.95564  -0.93363  -0.55216
 Alpha  occ. eigenvalues --   -0.53799  -0.41061  -0.39589  -0.32495
 Alpha virt. eigenvalues --   -0.12826   0.04607   0.07062   0.08763   0.11454
 Alpha virt. eigenvalues --    0.13148   0.13866   0.15621   0.15972   0.19834
 Alpha virt. eigenvalues --    0.21060   0.26844   0.27956   0.51465   0.51609

  Beta  occ. eigenvalues --  -14.80227 -14.80224  -0.95564  -0.93363  -0.55216
  Beta  occ. eigenvalues --   -0.53799  -0.41061  -0.39589  -0.32495
  Beta virt. eigenvalues --   -0.12826   0.04607   0.07062   0.08763   0.11454
  Beta virt. eigenvalues --    0.13148   0.13866   0.15621   0.15972   0.19834
  Beta virt. eigenvalues --    0.21060   0.26844   0.27956   0.51465   0.51609

 Mulliken charges and spin densities:
               1          2
     1  N   -0.509037   0.000000
     2  N   -0.509034  -0.000000
     3  H    0.254515  -0.000000
     4  H    0.254512   0.000000
     5  H    0.254521  -0.000000
     6  H    0.254524   0.000000
 Sum of Mulliken charges =  -0.00000  -0.00000

 Dipole moment (field-independent basis, Debye):
    X=             -0.0000    Y=             -0.0001    Z=             -0.0004  Tot=              0.0004
 Quadrupole moment (field-independent basis, Debye-Ang):
   XX=            -15.5705   YY=            -14.1194   ZZ=            -11.3864
   XY=              5.6943   XZ=             -1.4853   YZ=              0.7646

 Normal termination of Gaussian 16 at Thu May 15 14:39:39 2025.
