 Gaussian 16, Revision A.03,
 Gaussian 16:  ES64L-G16RevA.03 25-Dec-2016

 --------------------------------------------
 #p opt UM062X/6-311+G** nosymm int=superfine
 --------------------------------------------

 -------------------
 Title Card Required
 -------------------
 Symbolic Z-matrix:
 Charge = -1 Multiplicity = 2

 SCF Done:  E(UM062X) =  -50.5556328498     A.U. after   15 cycles
 SCF Done:  E(UM062X) =  -50.5602435538     A.U. after   15 cycles
 SCF Done:  E(UM062X) =  -50.5605780335     A.U. after   10 cycles
 Optimization completed.
    -- Stationary point found.

                          Input orientation:
 ---------------------------------------------------------------------
 Center     Atomic      Atomic             Coordinates (Angstroms)
 Number     Number       Type             X           Y           Z
 ---------------------------------------------------------------------
      1          5           0       -1.791404    0.000000    0.000000
      2          5           0        1.791404    0.000000    0.000000
      3          1           0       -3.063658   -0.000963   -0.000000
      4          1           0        3.063658    0.000963   -0.000000
 ---------------------------------------------------------------------

 Alpha  occ. eigenvalues --   -6.90845  -6.90845  -0.34319  -0.34073  -0.09975
 Alpha  occ. eigenvalues --   -0.05490   0.02558
 Alpha virt. eigenvalues --    0.11170   0.12453   0.14154   0.15607   0.16275
 Alpha virt. eigenvalues --    0.21860   0.22011   0.22224   0.22706   0.23516
 Alpha virt. eigenvalues --    0.25716   0.33769   0.37564   0.51551   0.57894

  Beta  occ. eigenvalues --   -6.90766  -6.90765  -0.33269  -0.33137  -0.08834
  Beta  occ. eigenvalues --   -0.04498
  Beta virt. eigenvalues --    0.10479   0.11448   0.12588   0.13127   0.13482
  Beta virt. eigenvalues --    0.13884   0.19171   0.20245   0.20517   0.21382
  Beta virt. eigenvalues --    0.21614   0.22246   0.33550   0.37617   0.51232

 Mulliken charges and spin densities:
               1          2
     1  B   -0.406333   0.510027
     2  B   -0.406333   0.510027
     3  H   -0.093667  -0.010027
     4  H   -0.093667  -0.010027
 Sum of Mulliken charges =  -1.00000   1.00000

 Dipole moment (field-independent basis, Debye):
    X=             -0.0000    Y=              0.0000    Z=             -0.0000  Tot=              0.0000
 Quadrupole moment (field-independent basis, Debye-Ang):
   XX=            -37.9258   YY=            -19.2412   ZZ=            -26.8144
   XY=             -0.0016   XZ=              0.0000   YZ=             -0.0007

 Normal termination of Gaussian 16 at Mon Apr 21 17:28:20 2025.
