 Gaussian 16, Revision A.03,
 Gaussian 16:  ES64L-G16RevA.03 25-Dec-2016

 --------------------------------------------
 #p opt UM062X/6-311+G** nosymm int=superfine
 --------------------------------------------

 -------------------
 Title Card Required
 -------------------
 Symbolic Z-matrix:
 Charge =  1 Multiplicity = 2

 SCF Done:  E(UM062X) =  -77.9571790654     A.U. after    9 cycles
 SCF Done:  E(UM062X) =  -77.9985543316     A.U. after    9 cycles
 SCF Done:  E(UM062X) =  -78.0367107391     A.U. after   11 cycles
 SCF Done:  E(UM062X) =  -78.0454765261     A.U. after    9 cycles
 SCF Done:  E(UM062X) =  -78.0462493312     A.U. after    9 cycles
 SCF Done:  E(UM062X) =  -78.0462588704     A.U. after    8 cycles
 Optimization completed.
    -- Stationary point found.

                          Input orientation:
 ---------------------------------------------------------------------
 Center     Atomic      Atomic             Coordinates (Angstroms)
 Number     Number       Type             X           Y           Z
 ---------------------------------------------------------------------
      1          6           0       -1.046200    0.000000    0.000000
      2          6           0        1.046200    0.000000    0.000000
      3          1           0       -1.499337   -0.985850    0.000000
      4          1           0       -1.499292    0.985902    0.000000
      5          1           0        1.499337    0.985850    0.000000
      6          1           0        1.499292   -0.985902    0.000000
 ---------------------------------------------------------------------

 Alpha  occ. eigenvalues --  -10.92279 -10.92265  -1.06237  -1.00211  -0.80548
 Alpha  occ. eigenvalues --   -0.77704  -0.66173  -0.55720
 Alpha virt. eigenvalues --   -0.36864  -0.25723  -0.14062  -0.10992  -0.10201
 Alpha virt. eigenvalues --   -0.08316  -0.07494  -0.07135  -0.04755  -0.04062
 Alpha virt. eigenvalues --   -0.02950  -0.00356   0.02048   0.09317   0.17925

  Beta  occ. eigenvalues --  -10.92041 -10.92033  -1.03197  -0.97958  -0.80035
  Beta  occ. eigenvalues --   -0.77349  -0.64582
  Beta virt. eigenvalues --   -0.35064  -0.28034  -0.23389  -0.15347  -0.11305
  Beta virt. eigenvalues --   -0.10288  -0.07738  -0.07506  -0.07384  -0.04146
  Beta virt. eigenvalues --   -0.03881  -0.02467   0.00204   0.01202   0.10088

 Mulliken charges and spin densities:
               1          2
     1  C   -0.067691   0.541404
     2  C   -0.067691   0.541404
     3  H    0.283845  -0.020702
     4  H    0.283847  -0.020703
     5  H    0.283845  -0.020702
     6  H    0.283847  -0.020703
 Sum of Mulliken charges =   1.00000   1.00000

 Dipole moment (field-independent basis, Debye):
    X=             -0.0000    Y=             -0.0000    Z=              0.0000  Tot=              0.0000
 Quadrupole moment (field-independent basis, Debye-Ang):
   XX=             -1.5821   YY=             -8.1034   ZZ=            -12.5764
   XY=             -0.0000   XZ=              0.0000   YZ=              0.0000

 Normal termination of Gaussian 16 at Tue Nov 19 11:24:29 2024.
