 Gaussian 16, Revision A.03,
 Gaussian 16:  ES64L-G16RevA.03 25-Dec-2016

 ---------------------------------------------------------------------
 #p opt UM062X/6-311+G** nosymm int=superfine SCF=(Tight,MaxCycle=200)
 ---------------------------------------------------------------------

 -------------------
 Title Card Required
 -------------------
 Symbolic Z-matrix:
 Charge =  1 Multiplicity = 2

 SCF Done:  E(UM062X) =  -1614.19265466     A.U. after   32 cycles
 SCF Done:  E(UM062X) =  -1614.60225817     A.U. after   28 cycles
 SCF Done:  E(UM062X) =  -1615.12661968     A.U. after   26 cycles
 SCF Done:  E(UM062X) =  -1615.44126924     A.U. after   23 cycles
 SCF Done:  E(UM062X) =  -1615.51592463     A.U. after   21 cycles
 SCF Done:  E(UM062X) =  -1615.54273076     A.U. after   22 cycles
 SCF Done:  E(UM062X) =  -1615.54974939     A.U. after   25 cycles
 SCF Done:  E(UM062X) =  -1615.55209390     A.U. after   20 cycles
 SCF Done:  E(UM062X) =  -1615.55090634     A.U. after   20 cycles
 SCF Done:  E(UM062X) =  -1615.55336249     A.U. after   22 cycles
 SCF Done:  E(UM062X) =  -1615.55372827     A.U. after   20 cycles
 SCF Done:  E(UM062X) =  -1615.55381857     A.U. after   20 cycles
 SCF Done:  E(UM062X) =  -1615.55380396     A.U. after   20 cycles
 SCF Done:  E(UM062X) =  -1615.55384466     A.U. after   19 cycles
 SCF Done:  E(UM062X) =  -1615.55384934     A.U. after   18 cycles
 SCF Done:  E(UM062X) =  -1615.55385028     A.U. after   14 cycles
 SCF Done:  E(UM062X) =  -1615.55385061     A.U. after   15 cycles
 SCF Done:  E(UM062X) =  -1615.55385073     A.U. after   12 cycles
 Optimization completed.
    -- Stationary point found.

                          Input orientation:
 ---------------------------------------------------------------------
 Center     Atomic      Atomic             Coordinates (Angstroms)
 Number     Number       Type             X           Y           Z
 ---------------------------------------------------------------------
      1          6           0       -0.913044   -0.000000   -0.000000
      2          6           0        0.913044   -0.000000    0.000000
      3          6           0        0.000003   -2.194216    0.000293
      4          6           0       -0.000005   -3.555265    0.000425
      5          6           0       -1.111234   -4.326671    0.376279
      6          6           0       -1.138631   -1.469976    0.363770
      7          6           0        0.644002   -5.724321   -0.218689
      8          1           0        1.233495   -6.607012   -0.422054
      9          6           0       -1.393036    0.949526    1.072970
     10          6           0       -0.644182   -5.724270    0.219526
     11          1           0       -1.233740   -6.606915    0.422903
     12          6           0        1.111149   -4.326758   -0.375481
     13          6           0        1.138614   -1.470057   -0.363444
     14          6           0        1.600616    2.352740   -0.930713
     15          6           0       -1.385061    0.167605   -1.454337
     16          6           0       -1.869468    3.136417    2.086187
     17          1           0       -2.024232    4.200697    1.950337
     18          6           0       -2.239911   -3.627786    0.763429
     19          1           0       -3.145108   -4.139130    1.071508
     20          6           0       -1.499544    1.404901   -2.148015
     21          6           0        2.252969   -2.189876   -0.744596
     22          1           0        3.175093   -1.683696   -1.010460
     23          6           0        1.385098    0.167921    1.454288
     24          6           0        1.499532    1.405364    2.147717
     25          6           0        2.239782   -3.627963   -0.762909
     26          1           0        3.144901   -4.139376   -1.071103
     27          6           0       -1.600686    2.352921    0.930222
     28          6           0       -1.480722    0.431385    2.372443
     29          1           0       -1.302632   -0.621299    2.535346
     30          6           0        1.618271   -0.983776    2.229284
     31          1           0        1.590358   -1.964291    1.782939
     32          6           0       -1.943511    2.592699    3.345074
     33          1           0       -2.150589    3.215947    4.205870
     34          6           0       -2.253052   -2.189705    0.744908
     35          1           0       -3.175204   -1.683457    1.010548
     36          6           0       -1.740042    1.420119   -3.540787
     37          1           0       -1.794387    2.382958   -4.035642
     38          6           0        1.393017    0.949308   -1.073173
     39          6           0       -1.528029    3.115064   -0.279173
     40          1           0       -1.565752    4.189828   -0.128466
     41          6           0       -1.934772    0.267329   -4.267783
     42          1           0       -2.130268    0.308760   -5.331887
     43          6           0       -1.434391    2.717995   -1.571546
     44          1           0       -1.411808    3.523186   -2.299650
     45          6           0        1.740066    1.420879    3.540480
     46          1           0        1.794368    2.383821    4.035140
     47          6           0       -1.745221    1.217651    3.484413
     48          1           0       -1.787056    0.753720    4.462746
     49          6           0       -1.618165   -0.984261   -2.229106
     50          1           0       -1.590226   -1.964685   -1.782565
     51          6           0        1.934871    0.268245    4.267702
     52          1           0        2.130382    0.309898    5.331795
     53          6           0        1.869351    3.136016   -2.086836
     54          1           0        2.024067    4.200330   -1.951201
     55          6           0        1.893915   -0.943884    3.589212
     56          1           0        2.069000   -1.874697    4.115092
     57          6           0        1.943401    2.592048   -3.345613
     58          1           0        2.150449    3.215130   -4.206537
     59          6           0        1.527917    3.115131    0.278521
     60          1           0        1.565579    4.189865    0.127582
     61          6           0       -1.893773   -0.944660   -3.589049
     62          1           0       -2.068798   -1.875588   -4.114743
     63          6           0        1.434301    2.718332    1.570981
     64          1           0        1.411678    3.523673    2.298919
     65          6           0        1.480718    0.430909   -2.372541
     66          1           0        1.302667   -0.621813   -2.535232
     67          6           0        1.745167    1.216964   -3.484672
     68          1           0        1.787011    0.752837   -4.462912
 ---------------------------------------------------------------------

 Alpha  occ. eigenvalues --  -10.71476 -10.71463 -10.68803 -10.68803 -10.68737
 Alpha  occ. eigenvalues --  -10.68736 -10.68328 -10.68328 -10.67665 -10.67664
 Alpha  occ. eigenvalues --  -10.67546 -10.67546 -10.67367 -10.67367 -10.66797
 Alpha  occ. eigenvalues --  -10.66797 -10.66784 -10.66784 -10.66069 -10.66069
 Alpha  occ. eigenvalues --  -10.66021 -10.66021 -10.65733 -10.65733 -10.65658
 Alpha  occ. eigenvalues --  -10.65658 -10.65628 -10.65628 -10.65328 -10.65328
 Alpha  occ. eigenvalues --  -10.65286 -10.65286 -10.65014 -10.65014 -10.64980
 Alpha  occ. eigenvalues --  -10.64980 -10.64566 -10.64566 -10.63816 -10.63721
 Alpha  occ. eigenvalues --  -10.63636 -10.62217  -1.13023  -1.10365  -1.09747
 Alpha  occ. eigenvalues --   -1.08568  -1.07934  -1.06237  -1.03652  -1.03019
 Alpha  occ. eigenvalues --   -1.02548  -1.00578  -0.99425  -0.98001  -0.97936
 Alpha  occ. eigenvalues --   -0.96916  -0.96221  -0.94627  -0.93439  -0.93420
 Alpha  occ. eigenvalues --   -0.92364  -0.91705  -0.88145  -0.86435  -0.84990
 Alpha  occ. eigenvalues --   -0.84841  -0.82395  -0.81671  -0.80955  -0.80054
 Alpha  occ. eigenvalues --   -0.79708  -0.79497  -0.77916  -0.76269  -0.76016
 Alpha  occ. eigenvalues --   -0.75278  -0.74960  -0.73800  -0.70204  -0.70089
 Alpha  occ. eigenvalues --   -0.68767  -0.68010  -0.67727  -0.67620  -0.67236
 Alpha  occ. eigenvalues --   -0.66903  -0.65418  -0.64958  -0.64958  -0.64567
 Alpha  occ. eigenvalues --   -0.63718  -0.63022  -0.62291  -0.61888  -0.61463
 Alpha  occ. eigenvalues --   -0.61452  -0.60574  -0.60324  -0.60009  -0.59642
 Alpha  occ. eigenvalues --   -0.59598  -0.58778  -0.58187  -0.57794  -0.57680
 Alpha  occ. eigenvalues --   -0.57019  -0.56032  -0.55967  -0.55672  -0.55582
 Alpha  occ. eigenvalues --   -0.55314  -0.54521  -0.54384  -0.52971  -0.52864
 Alpha  occ. eigenvalues --   -0.52503  -0.52046  -0.51970  -0.51598  -0.51178
 Alpha  occ. eigenvalues --   -0.50724  -0.50613  -0.50483  -0.48910  -0.48669
 Alpha  occ. eigenvalues --   -0.48430  -0.48115  -0.47820  -0.44096  -0.43688
 Alpha  occ. eigenvalues --   -0.43537  -0.42757  -0.41199  -0.40448  -0.39639
 Alpha  occ. eigenvalues --   -0.38233  -0.37532  -0.36891  -0.36092
 Alpha virt. eigenvalues --   -0.15933  -0.15257  -0.14983  -0.12702  -0.10368
 Alpha virt. eigenvalues --   -0.09869  -0.08906  -0.08887  -0.08436  -0.07780
 Alpha virt. eigenvalues --   -0.07650  -0.07589  -0.07189  -0.06576  -0.06288

  Beta  occ. eigenvalues --  -10.71447 -10.71435 -10.68770 -10.68770 -10.68704
  Beta  occ. eigenvalues --  -10.68704 -10.68310 -10.68310 -10.67628 -10.67627
  Beta  occ. eigenvalues --  -10.67531 -10.67531 -10.67319 -10.67319 -10.66760
  Beta  occ. eigenvalues --  -10.66760 -10.66716 -10.66716 -10.66064 -10.66064
  Beta  occ. eigenvalues --  -10.66040 -10.66040 -10.65720 -10.65720 -10.65659
  Beta  occ. eigenvalues --  -10.65658 -10.65655 -10.65655 -10.65309 -10.65309
  Beta  occ. eigenvalues --  -10.65282 -10.65282 -10.65020 -10.65020 -10.64989
  Beta  occ. eigenvalues --  -10.64989 -10.64565 -10.64564 -10.63816 -10.63721
  Beta  occ. eigenvalues --  -10.63636 -10.62218  -1.12911  -1.10247  -1.09539
  Beta  occ. eigenvalues --   -1.08432  -1.07791  -1.06129  -1.03587  -1.02757
  Beta  occ. eigenvalues --   -1.02319  -1.00484  -0.99332  -0.97810  -0.97773
  Beta  occ. eigenvalues --   -0.96839  -0.96151  -0.94598  -0.93201  -0.93196
  Beta  occ. eigenvalues --   -0.92245  -0.91577  -0.87972  -0.86316  -0.84825
  Beta  occ. eigenvalues --   -0.84683  -0.82335  -0.81552  -0.80886  -0.79921
  Beta  occ. eigenvalues --   -0.79623  -0.79419  -0.77755  -0.76098  -0.75876
  Beta  occ. eigenvalues --   -0.75149  -0.74944  -0.73702  -0.70058  -0.69977
  Beta  occ. eigenvalues --   -0.68697  -0.67866  -0.67650  -0.67479  -0.67096
  Beta  occ. eigenvalues --   -0.66778  -0.65315  -0.64880  -0.64833  -0.64454
  Beta  occ. eigenvalues --   -0.63402  -0.62968  -0.62210  -0.61790  -0.61304
  Beta  occ. eigenvalues --   -0.61274  -0.60465  -0.60224  -0.59900  -0.59546
  Beta  occ. eigenvalues --   -0.59423  -0.58547  -0.58144  -0.57646  -0.57210
  Beta  occ. eigenvalues --   -0.56964  -0.55878  -0.55831  -0.55543  -0.54984
  Beta  occ. eigenvalues --   -0.54842  -0.54465  -0.54032  -0.52845  -0.52759
  Beta  occ. eigenvalues --   -0.52430  -0.51904  -0.51839  -0.51426  -0.51078
  Beta  occ. eigenvalues --   -0.50491  -0.50387  -0.49485  -0.48848  -0.48362
  Beta  occ. eigenvalues --   -0.48146  -0.47967  -0.47564  -0.43510  -0.43031
  Beta  occ. eigenvalues --   -0.42686  -0.42263  -0.40934  -0.40049  -0.39592
  Beta  occ. eigenvalues --   -0.37377  -0.36912  -0.36190
  Beta virt. eigenvalues --   -0.26587  -0.15626  -0.14881  -0.14604  -0.12451
  Beta virt. eigenvalues --   -0.09934  -0.09746  -0.08824  -0.08435  -0.08206
  Beta virt. eigenvalues --   -0.07607  -0.07542  -0.07441  -0.06803  -0.06573

 Mulliken charges and spin densities:
               1          2
     1  C    0.062186  -0.027359
     2  C    0.062210  -0.027372
     3  C    0.203449   0.001592
     4  C    0.098725  -0.000277
     5  C    0.122679   0.003560
     6  C    0.108697   0.005719
     7  C   -0.295718   0.000347
     8  H    0.174768  -0.000023
     9  C    0.136876   0.080472
    10  C   -0.295858   0.000347
    11  H    0.174769  -0.000023
    12  C    0.122731   0.003561
    13  C    0.108770   0.005720
    14  C    0.038036   0.002990
    15  C    0.111445   0.056597
    16  C   -0.154528   0.085401
    17  H    0.170093  -0.003188
    18  C   -0.503149   0.004328
    19  H    0.173012   0.000196
    20  C    0.307281   0.003334
    21  C   -0.161750   0.009568
    22  H    0.173742  -0.000126
    23  C    0.111423   0.056601
    24  C    0.307588   0.003327
    25  C   -0.503081   0.004327
    26  H    0.173014   0.000196
    27  C    0.037707   0.002985
    28  C   -0.152065  -0.062929
    29  H    0.198119   0.001689
    30  C   -0.378101  -0.013687
    31  H    0.209550   0.000515
    32  C   -0.191291  -0.008383
    33  H    0.178880   0.000529
    34  C   -0.161761   0.009570
    35  H    0.173735  -0.000126
    36  C   -0.218876   0.021489
    37  H    0.164332  -0.000964
    38  C    0.136862   0.080473
    39  C   -0.172626   0.119637
    40  H    0.170280  -0.008115
    41  C   -0.295181   0.000272
    42  H    0.176762   0.000311
    43  C   -0.175017   0.073119
    44  H    0.164748  -0.003598
    45  C   -0.218992   0.021499
    46  H    0.164335  -0.000965
    47  C   -0.185256   0.141538
    48  H    0.178817  -0.007269
    49  C   -0.378043  -0.013683
    50  H    0.209538   0.000515
    51  C   -0.295259   0.000271
    52  H    0.176763   0.000311
    53  C   -0.154765   0.085402
    54  H    0.170096  -0.003188
    55  C    0.036390   0.025027
    56  H    0.176125  -0.001659
    57  C   -0.191308  -0.008387
    58  H    0.178880   0.000529
    59  C   -0.172645   0.119660
    60  H    0.170279  -0.008116
    61  C    0.036286   0.025016
    62  H    0.176123  -0.001659
    63  C   -0.175092   0.073120
    64  H    0.164750  -0.003598
    65  C   -0.152146  -0.062937
    66  H    0.198115   0.001689
    67  C   -0.185277   0.141556
    68  H    0.178817  -0.007270
 Sum of Mulliken charges =   1.00000   1.00000

 Dipole moment (field-independent basis, Debye):
    X=             -0.0001    Y=              3.8717    Z=             -0.0007  Tot=              3.8717
 Quadrupole moment (field-independent basis, Debye-Ang):
   XX=           -222.3138   YY=           -173.7594   ZZ=           -177.0804
   XY=             -0.0004   XZ=             -2.6890   YZ=              0.0018

 Normal termination of Gaussian 16 at Fri Mar 21 08:41:02 2025.
