 Gaussian 16, Revision A.03,
 Gaussian 16:  ES64L-G16RevA.03 25-Dec-2016

 --------------------------------------------
 #p opt UM062X/6-311+G** nosymm int=superfine
 --------------------------------------------

 -------------------
 Title Card Required
 -------------------
 Symbolic Z-matrix:
 Charge =  1 Multiplicity = 2

 SCF Done:  E(UM062X) =  -582.171996044     A.U. after   11 cycles
 SCF Done:  E(UM062X) =  -582.172031994     A.U. after    8 cycles
 SCF Done:  E(UM062X) =  -582.172033262     A.U. after    7 cycles
 Optimization completed.
    -- Stationary point found.

                          Input orientation:
 ---------------------------------------------------------------------
 Center     Atomic      Atomic             Coordinates (Angstroms)
 Number     Number       Type             X           Y           Z
 ---------------------------------------------------------------------
      1         14           0       -1.476292    0.000000    0.000000
      2         14           0        1.476292    0.000000    0.000000
      3          1           0        1.661365   -1.454476    0.000029
      4          1           0       -1.661220   -0.727146    1.259678
      5          1           0        1.661734    0.727257   -1.259535
      6          1           0        1.661071    0.727239    1.259648
      7          1           0       -1.661391    1.454473   -0.000077
      8          1           0       -1.661559   -0.727357   -1.259504
 ---------------------------------------------------------------------

 Alpha  occ. eigenvalues --  -67.24025 -67.24025  -5.78907  -5.78906  -4.10623
 Alpha  occ. eigenvalues --   -4.10617  -4.09791  -4.09791  -4.09791  -4.09791
 Alpha  occ. eigenvalues --   -0.85192  -0.81262  -0.64010  -0.64010  -0.62452
 Alpha  occ. eigenvalues --   -0.62452  -0.50882
 Alpha virt. eigenvalues --   -0.22989  -0.15857  -0.11835  -0.11834  -0.11584
 Alpha virt. eigenvalues --   -0.11014  -0.11014  -0.09994  -0.09097  -0.09097
 Alpha virt. eigenvalues --   -0.07218  -0.06539  -0.06539  -0.03433   0.00594

  Beta  occ. eigenvalues --  -67.23750 -67.23750  -5.78834  -5.78833  -4.09928
  Beta  occ. eigenvalues --   -4.09925  -4.09701  -4.09701  -4.09701  -4.09701
  Beta  occ. eigenvalues --   -0.82549  -0.79674  -0.63509  -0.63509  -0.62121
  Beta  occ. eigenvalues --   -0.62121
  Beta virt. eigenvalues --   -0.32601  -0.18859  -0.15130  -0.11301  -0.11300
  Beta virt. eigenvalues --   -0.10902  -0.10902  -0.10668  -0.09804  -0.08414
  Beta virt. eigenvalues --   -0.08414  -0.06257  -0.06257  -0.04833  -0.02581

 Mulliken charges and spin densities:
               1          2
     1  Si   0.488886   0.532842
     2  Si   0.488886   0.532842
     3  H    0.003707  -0.010944
     4  H    0.003701  -0.010944
     5  H    0.003712  -0.010962
     6  H    0.003695  -0.010935
     7  H    0.003707  -0.010945
     8  H    0.003706  -0.010953
 Sum of Mulliken charges =   1.00000   1.00000

 Dipole moment (field-independent basis, Debye):
    X=              0.0000    Y=              0.0000    Z=             -0.0000  Tot=              0.0000
 Quadrupole moment (field-independent basis, Debye-Ang):
   XX=            -10.9269   YY=            -25.6942   ZZ=            -25.6944
   XY=             -0.0002   XZ=              0.0000   YZ=              0.0000

 Normal termination of Gaussian 16 at Mon Apr 21 20:09:10 2025.
