 Gaussian 16, Revision A.03,
 Gaussian 16:  ES64L-G16RevA.03 25-Dec-2016

 ---------------------------------------
 #p UM062X/6-311+G** force int=superfine
 ---------------------------------------

 -------------------
 Title Card Required
 -------------------
 Symbolic Z-matrix:
 Charge =  1 Multiplicity = 2

                         Standard orientation:
 ---------------------------------------------------------------------
 Center     Atomic      Atomic             Coordinates (Angstroms)
 Number     Number       Type             X           Y           Z
 ---------------------------------------------------------------------
      1          6           0        0.000000    0.000000    0.466007
      2          6           0        0.000000    0.000000   -0.466007
      3          1           0        0.000000    0.000000    1.537343
      4          1           0        0.000000    0.000000   -1.537343
 ---------------------------------------------------------------------

 SCF Done:  E(UM062X) =  -76.5886626936     A.U. after    9 cycles

 Unable to determine electronic state:  an orbital has unidentified symmetry.
 Alpha  occ. eigenvalues --  -10.90787 -10.88311  -1.33289  -0.94699  -0.91631
 Alpha  occ. eigenvalues --   -0.84755  -0.81080
 Alpha virt. eigenvalues --   -0.17923  -0.16297  -0.14782  -0.13638  -0.11980
 Alpha virt. eigenvalues --   -0.11655  -0.11307  -0.02996  -0.02187  -0.01676
 Alpha virt. eigenvalues --    0.02505   0.04096   0.16953   0.21673   0.24865

  Beta  occ. eigenvalues --  -10.90384 -10.88009  -1.27022  -0.93189  -0.90704
  Beta  occ. eigenvalues --   -0.78421
  Beta virt. eigenvalues --   -0.53515  -0.15519  -0.15329  -0.14368  -0.13271
  Beta virt. eigenvalues --   -0.11894  -0.11814  -0.11385  -0.01654  -0.01254
  Beta virt. eigenvalues --   -0.00569   0.02811   0.04567   0.17462   0.22052

 Mulliken charges and spin densities:
               1          2
     1  C    0.245734   0.521807
     2  C    0.245734   0.521807
     3  H    0.254266  -0.021807
     4  H    0.254266  -0.021807
 Sum of Mulliken charges =   1.00000   1.00000

 Dipole moment (field-independent basis, Debye):
    X=              0.0000    Y=             -0.0000    Z=             -0.0000  Tot=              0.0000
 Quadrupole moment (field-independent basis, Debye-Ang):
   XX=             -8.6628   YY=            -10.1482   ZZ=             -2.3858
   XY=             -0.0000   XZ=             -0.0000   YZ=              0.0000

 Normal termination of Gaussian 16 at Tue Nov 19 13:26:11 2024.
