 Gaussian 16, Revision A.03,
 Gaussian 16:  ES64L-G16RevA.03 25-Dec-2016

 --------------------------------------------
 #p opt UM062X/6-311+G** nosymm int=superfine
 --------------------------------------------

 -------------------
 Title Card Required
 -------------------
 Symbolic Z-matrix:
 Charge =  0 Multiplicity = 1

 SCF Done:  E(UM062X) =  -797.414127969     A.U. after   13 cycles
 SCF Done:  E(UM062X) =  -797.414684223     A.U. after   12 cycles
 SCF Done:  E(UM062X) =  -797.415693460     A.U. after   15 cycles
 SCF Done:  E(UM062X) =  -797.415744130     A.U. after   14 cycles
 SCF Done:  E(UM062X) =  -797.415760059     A.U. after   14 cycles
 SCF Done:  E(UM062X) =  -797.415500492     A.U. after   17 cycles
 SCF Done:  E(UM062X) =  -797.415766149     A.U. after   17 cycles
 SCF Done:  E(UM062X) =  -797.415768438     A.U. after   12 cycles
 SCF Done:  E(UM062X) =  -797.415768519     A.U. after   13 cycles
 SCF Done:  E(UM062X) =  -797.415768599     A.U. after   18 cycles
 Optimization completed.
    -- Stationary point found.

                          Input orientation:
 ---------------------------------------------------------------------
 Center     Atomic      Atomic             Coordinates (Angstroms)
 Number     Number       Type             X           Y           Z
 ---------------------------------------------------------------------
      1         16           0       -1.868191    0.000000    0.000000
      2         16           0        1.868191    0.000000    0.000000
      3          1           0       -1.755026   -1.324473   -0.214065
      4          1           0        1.753643    0.272527    1.313348
 ---------------------------------------------------------------------

 Alpha  occ. eigenvalues --  -89.94705 -89.94705  -8.30902  -8.30901  -6.23057
 Alpha  occ. eigenvalues --   -6.23056  -6.22794  -6.22793  -6.22230  -6.22229
 Alpha  occ. eigenvalues --   -0.81710  -0.80988  -0.47402  -0.47336  -0.33536
 Alpha  occ. eigenvalues --   -0.33267  -0.32252
 Alpha virt. eigenvalues --   -0.20421   0.01942   0.03087   0.04467   0.04942
 Alpha virt. eigenvalues --    0.06475   0.06981   0.07318   0.07456   0.10014
 Alpha virt. eigenvalues --    0.13055   0.30635   0.31175   0.33090   0.34367

  Beta  occ. eigenvalues --  -89.94705 -89.94705  -8.30902  -8.30901  -6.23057
  Beta  occ. eigenvalues --   -6.23056  -6.22794  -6.22793  -6.22230  -6.22229
  Beta  occ. eigenvalues --   -0.81710  -0.80988  -0.47402  -0.47336  -0.33536
  Beta  occ. eigenvalues --   -0.33267  -0.32252
  Beta virt. eigenvalues --   -0.20421   0.01942   0.03087   0.04467   0.04942
  Beta virt. eigenvalues --    0.06475   0.06981   0.07318   0.07456   0.10014
  Beta virt. eigenvalues --    0.13055   0.30635   0.31175   0.33090   0.34367

 Mulliken charges and spin densities:
               1          2
     1  S   -0.085181   0.000000
     2  S   -0.085096  -0.000000
     3  H    0.085149  -0.000000
     4  H    0.085128  -0.000000
 Sum of Mulliken charges =   0.00000   0.00000

 Dipole moment (field-independent basis, Debye):
    X=             -0.0010    Y=             -0.8657    Z=              0.9052  Tot=              1.2526
 Quadrupole moment (field-independent basis, Debye-Ang):
   XX=            -25.1546   YY=            -28.0181   ZZ=            -28.1470
   XY=              2.4818   XZ=              2.3719   YZ=              1.4470

 Normal termination of Gaussian 16 at Mon Apr 21 21:14:12 2025.
