 Gaussian 16, Revision A.03,
 Gaussian 16:  ES64L-G16RevA.03 25-Dec-2016

 --------------------------------------------
 #p opt UM062X/6-311+G** nosymm int=superfine
 --------------------------------------------

 -------------------
 Title Card Required
 -------------------
 Symbolic Z-matrix:
 Charge =  0 Multiplicity = 1

 SCF Done:  E(UM062X) =  -95.5969448886     A.U. after   14 cycles
 SCF Done:  E(UM062X) =  -95.6131137945     A.U. after   12 cycles
 SCF Done:  E(UM062X) =  -95.6246158922     A.U. after   14 cycles
 SCF Done:  E(UM062X) =  -95.6250484125     A.U. after   11 cycles
 SCF Done:  E(UM062X) =  -95.6253364069     A.U. after   15 cycles
 SCF Done:  E(UM062X) =  -95.6254215505     A.U. after   12 cycles
 SCF Done:  E(UM062X) =  -95.6254373927     A.U. after   12 cycles
 SCF Done:  E(UM062X) =  -95.6254411400     A.U. after   10 cycles
 SCF Done:  E(UM062X) =  -95.6254426784     A.U. after   11 cycles
 SCF Done:  E(UM062X) =  -95.6254443172     A.U. after    9 cycles
 SCF Done:  E(UM062X) =  -95.6254453376     A.U. after   11 cycles
 Optimization completed.
    -- Stationary point found.

                          Input orientation:
 ---------------------------------------------------------------------
 Center     Atomic      Atomic             Coordinates (Angstroms)
 Number     Number       Type             X           Y           Z
 ---------------------------------------------------------------------
      1          6           0       -1.705542    0.000000    0.000000
      2          7           0        1.705542    0.000000    0.000000
      3          1           0        1.663530   -1.015495    0.139735
      4          1           0       -1.712834    1.080237    0.009039
      5          1           0        1.663715    0.367903    0.956777
      6          1           0       -1.712585   -0.524221   -0.944557
      7          1           0       -1.839379   -0.547889    0.921825
 ---------------------------------------------------------------------

 Alpha  occ. eigenvalues --  -14.74954 -10.61935  -0.90194  -0.80691  -0.52871
 Alpha  occ. eigenvalues --   -0.52669  -0.50666  -0.35955  -0.25746
 Alpha virt. eigenvalues --   -0.13202   0.01745   0.04702   0.05102   0.07028
 Alpha virt. eigenvalues --    0.09963   0.13146   0.15918   0.16757   0.17049
 Alpha virt. eigenvalues --    0.18723   0.20752   0.22210   0.28220   0.41169

  Beta  occ. eigenvalues --  -14.74954 -10.61935  -0.90194  -0.80691  -0.52871
  Beta  occ. eigenvalues --   -0.52669  -0.50666  -0.35955  -0.25746
  Beta virt. eigenvalues --   -0.13202   0.01745   0.04702   0.05102   0.07028
  Beta virt. eigenvalues --    0.09963   0.13146   0.15918   0.16757   0.17049
  Beta virt. eigenvalues --    0.18723   0.20752   0.22210   0.28220   0.41169

 Mulliken charges and spin densities:
               1          2
     1  C   -0.431077   0.000000
     2  N   -0.584748  -0.000000
     3  H    0.212914   0.000000
     4  H    0.200992  -0.000000
     5  H    0.212915   0.000000
     6  H    0.201047  -0.000000
     7  H    0.187956  -0.000000
 Sum of Mulliken charges =  -0.00000  -0.00000

 Dipole moment (field-independent basis, Debye):
    X=             -3.1329    Y=             -0.9903    Z=              1.6767  Tot=              3.6888
 Quadrupole moment (field-independent basis, Debye-Ang):
   XX=            -15.4628   YY=            -13.4197   ZZ=            -14.2207
   XY=             -1.7674   XZ=              2.9934   YZ=              0.7266

 Normal termination of Gaussian 16 at Mon Apr 21 18:12:04 2025.
