 Gaussian 16, Revision A.03,
 Gaussian 16:  ES64L-G16RevA.03 25-Dec-2016

 --------------------------------------------
 #p opt UM062X/6-311+G** nosymm int=superfine
 --------------------------------------------

 -------------------
 Title Card Required
 -------------------
 Symbolic Z-matrix:
 Charge =  1 Multiplicity = 2

 SCF Done:  E(UM062X) =  -76.4274871909     A.U. after    9 cycles
 SCF Done:  E(UM062X) =  -76.5477054400     A.U. after    9 cycles
 SCF Done:  E(UM062X) =  -76.5816057773     A.U. after   10 cycles
 SCF Done:  E(UM062X) =  -76.5886600897     A.U. after    9 cycles
 SCF Done:  E(UM062X) =  -76.5886620481     A.U. after    7 cycles
 Optimization completed.
    -- Stationary point found.

                          Input orientation:
 ---------------------------------------------------------------------
 Center     Atomic      Atomic             Coordinates (Angstroms)
 Number     Number       Type             X           Y           Z
 ---------------------------------------------------------------------
      1          6           0       -0.466007    0.000000    0.000000
      2          6           0        0.466007    0.000000    0.000000
      3          1           0       -1.537343   -0.000000    0.000000
      4          1           0        1.537343   -0.000000    0.000000
 ---------------------------------------------------------------------

 Alpha  occ. eigenvalues --  -10.90787 -10.88311  -1.33289  -0.94699  -0.91631
 Alpha  occ. eigenvalues --   -0.84755  -0.81080
 Alpha virt. eigenvalues --   -0.17923  -0.16297  -0.14787  -0.13638  -0.11984
 Alpha virt. eigenvalues --   -0.11659  -0.11323  -0.02997  -0.02188  -0.01677
 Alpha virt. eigenvalues --    0.02504   0.04095   0.16946   0.21673   0.24864

  Beta  occ. eigenvalues --  -10.90384 -10.88009  -1.27022  -0.93189  -0.90704
  Beta  occ. eigenvalues --   -0.78421
  Beta virt. eigenvalues --   -0.53515  -0.15519  -0.15329  -0.14368  -0.13271
  Beta virt. eigenvalues --   -0.11894  -0.11814  -0.11385  -0.01654  -0.01254
  Beta virt. eigenvalues --   -0.00569   0.02811   0.04567   0.17462   0.22052

 Mulliken charges and spin densities:
               1          2
     1  C    0.245734   0.521807
     2  C    0.245734   0.521807
     3  H    0.254266  -0.021807
     4  H    0.254266  -0.021807
 Sum of Mulliken charges =   1.00000   1.00000

 Dipole moment (field-independent basis, Debye):
    X=             -0.0000    Y=             -0.0000    Z=              0.0000  Tot=              0.0000
 Quadrupole moment (field-independent basis, Debye-Ang):
   XX=             -2.3858   YY=             -8.6791   ZZ=            -10.1318
   XY=             -0.0000   XZ=              0.0000   YZ=              0.1550

 Normal termination of Gaussian 16 at Tue Nov 19 12:47:45 2024.
