 Gaussian 16, Revision A.03,
 Gaussian 16:  ES64L-G16RevA.03 25-Dec-2016

 --------------------------------------------
 #p opt UM062X/6-311+G** nosymm int=superfine
 --------------------------------------------

 -------------------
 Title Card Required
 -------------------
 Symbolic Z-matrix:
 Charge =  1 Multiplicity = 2

 SCF Done:  E(UM062X) =  -76.3781993786     A.U. after   12 cycles
 SCF Done:  E(UM062X) =  -76.4697625451     A.U. after   11 cycles
 SCF Done:  E(UM062X) =  -76.5840444369     A.U. after   10 cycles
 SCF Done:  E(UM062X) =  -76.6399844354     A.U. after   11 cycles
 SCF Done:  E(UM062X) =  -76.6548258127     A.U. after   10 cycles
 SCF Done:  E(UM062X) =  -76.6618316954     A.U. after   10 cycles
 SCF Done:  E(UM062X) =  -76.6619694636     A.U. after    8 cycles
 Optimization completed.
    -- Stationary point found.

                          Input orientation:
 ---------------------------------------------------------------------
 Center     Atomic      Atomic             Coordinates (Angstroms)
 Number     Number       Type             X           Y           Z
 ---------------------------------------------------------------------
      1          6           0       -0.360515    0.000000    0.000000
      2          6           0        0.360515    0.000000    0.000000
      3          1           0       -1.246724   -0.722836   -0.000000
      4          1           0       -1.244901    0.726018   -0.000000
      5          1           0        1.246724    0.722836    0.000000
      6          1           0        1.244901   -0.726018    0.000000
 ---------------------------------------------------------------------

 Alpha  occ. eigenvalues --  -10.93401 -10.78051  -1.21574  -0.95959  -0.93851
 Alpha  occ. eigenvalues --   -0.87196  -0.84793  -0.56750
 Alpha virt. eigenvalues --   -0.21398  -0.15922  -0.14076  -0.12012  -0.11442
 Alpha virt. eigenvalues --   -0.09296  -0.07892  -0.06060  -0.01406   0.00065
 Alpha virt. eigenvalues --    0.01909   0.02820   0.17500   0.17910   0.21214

  Beta  occ. eigenvalues --  -10.93523 -10.78127  -1.20754  -0.91435  -0.91181
  Beta  occ. eigenvalues --   -0.84758  -0.84734
  Beta virt. eigenvalues --   -0.36686  -0.18761  -0.15736  -0.13667  -0.11636
  Beta virt. eigenvalues --   -0.11337  -0.09131  -0.04375  -0.02303  -0.00734
  Beta virt. eigenvalues --    0.01054   0.03255   0.04009   0.16672   0.17032

 Mulliken charges and spin densities:
               1          2
     1  C   -0.126546   0.072405
     2  C   -0.126546   0.072405
     3  H    0.313196   0.213129
     4  H    0.313350   0.214466
     5  H    0.313196   0.213129
     6  H    0.313350   0.214466
 Sum of Mulliken charges =   1.00000   1.00000

 Dipole moment (field-independent basis, Debye):
    X=             -0.0000    Y=             -0.0000    Z=             -0.0000  Tot=              0.0000
 Quadrupole moment (field-independent basis, Debye-Ang):
   XX=             -2.4421   YY=             -7.9263   ZZ=            -11.0803
   XY=             -0.0086   XZ=              0.0000   YZ=             -0.0000

 Normal termination of Gaussian 16 at Tue Nov 19 10:27:24 2024.
