 Gaussian 16, Revision A.03,
 Gaussian 16:  ES64L-G16RevA.03 25-Dec-2016

 ---------------------------------------------------
 #p UM062X/6-311+G** force int=superfine pop=saveNBO
 ---------------------------------------------------

 -------------------
 Title Card Required
 -------------------
 Symbolic Z-matrix:
 Charge =  0 Multiplicity = 1

                         Standard orientation:
 ---------------------------------------------------------------------
 Center     Atomic      Atomic             Coordinates (Angstroms)
 Number     Number       Type             X           Y           Z
 ---------------------------------------------------------------------
      1          6           0        0.000000    0.000000   -1.012665
      2          8           0        0.000000    0.000000    0.759499
 ---------------------------------------------------------------------

 SCF Done:  E(UM062X) =  -113.010044161     A.U. after   15 cycles

 The electronic state is 1-SG.
 Alpha  occ. eigenvalues --  -19.72331 -10.82227  -1.05137  -0.69830  -0.43560
 Alpha  occ. eigenvalues --   -0.40511  -0.40511
 Alpha virt. eigenvalues --   -0.14236  -0.14236  -0.01060   0.03552   0.06553
 Alpha virt. eigenvalues --    0.06553   0.08130   0.19940   0.22551   0.22551
 Alpha virt. eigenvalues --    0.31796   0.52815   0.52815   0.53159   0.70383

  Beta  occ. eigenvalues --  -19.72331 -10.82227  -1.05137  -0.69830  -0.43560
  Beta  occ. eigenvalues --   -0.40511  -0.40511
  Beta virt. eigenvalues --   -0.14236  -0.14236  -0.01060   0.03552   0.06553
  Beta virt. eigenvalues --    0.06553   0.08130   0.19940   0.22551   0.22551
  Beta virt. eigenvalues --    0.31796   0.52815   0.52815   0.53159   0.70383

 Mulliken charges and spin densities:
               1          2
     1  C    0.305810  -0.000000
     2  O   -0.305810  -0.000000
 Sum of Mulliken charges =  -0.00000  -0.00000

 Dipole moment (field-independent basis, Debye):
    X=              0.0000    Y=              0.0000    Z=             -2.6234  Tot=              2.6234
 Quadrupole moment (field-independent basis, Debye-Ang):
   XX=            -11.3900   YY=            -11.3900   ZZ=            -11.4429
   XY=              0.0000   XZ=              0.0000   YZ=              0.0000

 Summary of Natural Population Analysis:

                                       Natural Population
                Natural  -----------------------------------------------
    Atom  No    Charge         Core      Valence    Rydberg      Total
 -----------------------------------------------------------------------
      C    1    0.31581      0.99999     1.67933    0.00488     2.68419
      O    2   -0.31581      0.99999     3.31242    0.00340     4.31581
 =======================================================================
   * Total *   -0.00000      1.99998     4.99175    0.00827     7.00000

 Normal termination of Gaussian 16 at Mon Apr 21 19:31:29 2025.
