 Gaussian 16, Revision A.03,
 Gaussian 16:  ES64L-G16RevA.03 25-Dec-2016

 --------------------------------------------
 #p opt UM062X/6-311+G** nosymm int=superfine
 --------------------------------------------

 -------------------
 Title Card Required
 -------------------
 Symbolic Z-matrix:
 Charge =  0 Multiplicity = 1

 SCF Done:  E(UM062X) =  -380.926826736     A.U. after   18 cycles
 SCF Done:  E(UM062X) =  -380.929850983     A.U. after   17 cycles
 SCF Done:  E(UM062X) =  -380.930833443     A.U. after   11 cycles
 SCF Done:  E(UM062X) =  -380.930857534     A.U. after   17 cycles
 SCF Done:  E(UM062X) =  -380.931023974     A.U. after   16 cycles
 SCF Done:  E(UM062X) =  -380.931090678     A.U. after   18 cycles
 SCF Done:  E(UM062X) =  -380.931113409     A.U. after   14 cycles
 SCF Done:  E(UM062X) =  -380.931119478     A.U. after   15 cycles
 SCF Done:  E(UM062X) =  -380.931119844     A.U. after   10 cycles
 SCF Done:  E(UM062X) =  -380.931120059     A.U. after   10 cycles
 SCF Done:  E(UM062X) =  -380.931120791     A.U. after   22 cycles
 SCF Done:  E(UM062X) =  -380.931120736     A.U. after   17 cycles
 SCF Done:  E(UM062X) =  -380.931121833     A.U. after   18 cycles
 SCF Done:  E(UM062X) =  -380.931066800     A.U. after   25 cycles
 SCF Done:  E(UM062X) =  -380.931123992     A.U. after   20 cycles
 SCF Done:  E(UM062X) =  -380.931128221     A.U. after   15 cycles
 SCF Done:  E(UM062X) =  -380.931128791     A.U. after   17 cycles
 SCF Done:  E(UM062X) =  -380.931130184     A.U. after   20 cycles
 SCF Done:  E(UM062X) =  -380.931130547     A.U. after   14 cycles
 Optimization completed.
    -- Stationary point found.

                          Input orientation:
 ---------------------------------------------------------------------
 Center     Atomic      Atomic             Coordinates (Angstroms)
 Number     Number       Type             X           Y           Z
 ---------------------------------------------------------------------
      1          6           0       -2.230452    0.000000    0.000000
      2         15           0        2.230452    0.000000    0.000000
      3          1           0       -2.960390   -0.832455    0.037584
      4          1           0        1.911110   -1.382421   -0.078291
      5          1           0       -2.886527    0.891886   -0.034834
 ---------------------------------------------------------------------

 Alpha  occ. eigenvalues --  -78.04729 -10.61895  -6.87000  -4.99015  -4.98238
 Alpha  occ. eigenvalues --   -4.97775  -0.76636  -0.65857  -0.48653  -0.38516
 Alpha  occ. eigenvalues --   -0.32555  -0.24644
 Alpha virt. eigenvalues --   -0.11589  -0.09166   0.01500   0.03640   0.04570
 Alpha virt. eigenvalues --    0.05955   0.06907   0.07190   0.08767   0.10232
 Alpha virt. eigenvalues --    0.13414   0.17407   0.18952   0.31251   0.33274

  Beta  occ. eigenvalues --  -78.04729 -10.61895  -6.87000  -4.99015  -4.98238
  Beta  occ. eigenvalues --   -4.97775  -0.76636  -0.65857  -0.48653  -0.38516
  Beta  occ. eigenvalues --   -0.32555  -0.24644
  Beta virt. eigenvalues --   -0.11589  -0.09166   0.01500   0.03640   0.04570
  Beta virt. eigenvalues --    0.05955   0.06907   0.07190   0.08767   0.10232
  Beta virt. eigenvalues --    0.13414   0.17407   0.18952   0.31251   0.33274

 Mulliken charges and spin densities:
               1          2
     1  C   -0.279285  -0.000000
     2  P    0.041072  -0.000000
     3  H    0.135484  -0.000000
     4  H   -0.032632   0.000000
     5  H    0.135360   0.000000
 Sum of Mulliken charges =  -0.00000   0.00000

 Dipole moment (field-independent basis, Debye):
    X=             -2.4553    Y=             -0.5828    Z=             -0.0338  Tot=              2.5237
 Quadrupole moment (field-independent basis, Debye-Ang):
   XX=            -12.0210   YY=            -21.3106   ZZ=            -25.2070
   XY=             -2.3049   XZ=             -0.1192   YZ=              0.2893

 Normal termination of Gaussian 16 at Mon Apr 21 19:25:29 2025.
