 Gaussian 16, Revision A.03,
 Gaussian 16:  ES64L-G16RevA.03 25-Dec-2016

 --------------------------------------------
 #p opt UM062X/6-311+G** nosymm int=superfine
 --------------------------------------------

 -------------------
 Title Card Required
 -------------------
 Symbolic Z-matrix:
 Charge =  1 Multiplicity = 2

 SCF Done:  E(UM062X) =  -79.3195435922     A.U. after   10 cycles
 SCF Done:  E(UM062X) =  -79.3204869377     A.U. after    9 cycles
 SCF Done:  E(UM062X) =  -79.3204919479     A.U. after    8 cycles
 Optimization completed.
    -- Stationary point found.

                          Input orientation:
 ---------------------------------------------------------------------
 Center     Atomic      Atomic             Coordinates (Angstroms)
 Number     Number       Type             X           Y           Z
 ---------------------------------------------------------------------
      1          6           0       -1.897474    0.000000    0.000000
      2          6           0        1.897474    0.000000    0.000000
      3          1           0        1.927457   -0.937625    0.542675
      4          1           0       -1.925825   -0.938724   -0.540854
      5          1           0        1.926762    0.938817    0.540645
      6          1           0        1.925855   -0.001166   -1.083382
      7          1           0       -1.927507    0.937727   -0.542496
      8          1           0       -1.926741    0.000943    1.083359
 ---------------------------------------------------------------------

 Alpha  occ. eigenvalues --  -10.83830 -10.83828  -1.02385  -1.01955  -0.73399
 Alpha  occ. eigenvalues --   -0.73398  -0.73239  -0.73239  -0.48233
 Alpha virt. eigenvalues --   -0.37409  -0.12933  -0.10191  -0.09602  -0.09602
 Alpha virt. eigenvalues --   -0.06231  -0.06231  -0.04414  -0.03051  -0.00381
 Alpha virt. eigenvalues --   -0.00378   0.01320   0.01321   0.02977   0.08489

  Beta  occ. eigenvalues --  -10.83614 -10.83614  -0.99724  -0.99445  -0.72884
  Beta  occ. eigenvalues --   -0.72884  -0.72705  -0.72704
  Beta virt. eigenvalues --   -0.32704  -0.26593  -0.16271  -0.11013  -0.11012
  Beta virt. eigenvalues --   -0.10199  -0.06245  -0.06244  -0.05071  -0.02108
  Beta virt. eigenvalues --   -0.00677  -0.00674   0.01589   0.01591   0.02827

 Mulliken charges and spin densities:
               1          2
     1  C   -0.255632   0.557728
     2  C   -0.255633   0.557728
     3  H    0.251902  -0.019235
     4  H    0.251861  -0.019239
     5  H    0.251883  -0.019239
     6  H    0.251848  -0.019254
     7  H    0.251902  -0.019235
     8  H    0.251868  -0.019255
 Sum of Mulliken charges =   1.00000   1.00000

 Dipole moment (field-independent basis, Debye):
    X=             -0.0000    Y=             -0.0000    Z=             -0.0001  Tot=              0.0001
 Quadrupole moment (field-independent basis, Debye-Ang):
   XX=              6.0341   YY=            -11.1068   ZZ=            -11.1070
   XY=             -0.0017   XZ=              0.0010   YZ=              0.0000

 Normal termination of Gaussian 16 at Wed Nov 13 12:53:02 2024.
