 Gaussian 16, Revision A.03,
 Gaussian 16:  ES64L-G16RevA.03 25-Dec-2016

 --------------------------------------------
 #p opt UM062X/6-311+G** nosymm int=superfine
 --------------------------------------------

 -------------------
 Title Card Required
 -------------------
 Symbolic Z-matrix:
 Charge =  0 Multiplicity = 1

 SCF Done:  E(UM062X) =  -83.1095890584     A.U. after   10 cycles
 SCF Done:  E(UM062X) =  -83.1407277907     A.U. after    9 cycles
 SCF Done:  E(UM062X) =  -83.1500467212     A.U. after    9 cycles
 SCF Done:  E(UM062X) =  -83.1608921666     A.U. after   10 cycles
 SCF Done:  E(UM062X) =  -83.1328616630     A.U. after   10 cycles
 SCF Done:  E(UM062X) =  -83.1856311210     A.U. after   10 cycles
 SCF Done:  E(UM062X) =  -83.1654341155     A.U. after   10 cycles
 SCF Done:  E(UM062X) =  -83.1856733845     A.U. after    9 cycles
 SCF Done:  E(UM062X) =  -83.1889688406     A.U. after    9 cycles
 SCF Done:  E(UM062X) =  -83.1893474480     A.U. after    8 cycles
 SCF Done:  E(UM062X) =  -83.1893507422     A.U. after    7 cycles
 Optimization completed.
    -- Stationary point found.

                          Input orientation:
 ---------------------------------------------------------------------
 Center     Atomic      Atomic             Coordinates (Angstroms)
 Number     Number       Type             X           Y           Z
 ---------------------------------------------------------------------
      1          5           0       -0.848008   -0.000093    0.000029
      2          7           0        0.806850    0.000078   -0.000054
      3          1           0        1.170533   -0.821558    0.475366
      4          1           0       -1.156520   -1.010940   -0.582260
      5          1           0        1.170370    0.822692    0.473798
      6          1           0        1.170369   -0.000793   -0.949384
      7          1           0       -1.156729    1.009566   -0.584208
      8          1           0       -1.156556    0.000999    1.166581
 ---------------------------------------------------------------------

 Alpha  occ. eigenvalues --  -14.82294  -6.96422  -1.05685  -0.62403  -0.62402
 Alpha  occ. eigenvalues --   -0.59309  -0.42104  -0.33426  -0.33426
 Alpha virt. eigenvalues --   -0.01495   0.04115   0.04115   0.05163   0.08343
 Alpha virt. eigenvalues --    0.11015   0.11015   0.14137   0.15037   0.15037
 Alpha virt. eigenvalues --    0.21180   0.21180   0.21510   0.26439   0.31856

  Beta  occ. eigenvalues --  -14.82294  -6.96422  -1.05685  -0.62403  -0.62402
  Beta  occ. eigenvalues --   -0.59309  -0.42104  -0.33426  -0.33426
  Beta virt. eigenvalues --   -0.01495   0.04115   0.04115   0.05163   0.08343
  Beta virt. eigenvalues --    0.11015   0.11015   0.14137   0.15037   0.15037
  Beta virt. eigenvalues --    0.21180   0.21180   0.21510   0.26439   0.31856

 Mulliken charges and spin densities:
               1          2
     1  B   -0.236501   0.000000
     2  N   -0.539921  -0.000000
     3  H    0.308736   0.000000
     4  H   -0.049929   0.000000
     5  H    0.308736   0.000000
     6  H    0.308737   0.000000
     7  H   -0.049929   0.000000
     8  H   -0.049928   0.000000
 Sum of Mulliken charges =   0.00000   0.00000

 Dipole moment (field-independent basis, Debye):
    X=              5.4102    Y=              0.0006    Z=             -0.0003  Tot=              5.4102
 Quadrupole moment (field-independent basis, Debye-Ang):
   XX=            -15.8053   YY=            -16.2000   ZZ=            -16.2000
   XY=              0.0000   XZ=             -0.0001   YZ=              0.0000

 Normal termination of Gaussian 16 at Wed Apr 16 00:57:11 2025.
