 Gaussian 16, Revision A.03,
 Gaussian 16:  ES64L-G16RevA.03 25-Dec-2016

 ---------------------------------------------------
 #p UM062X/6-311+G** force int=superfine pop=saveNBO
 ---------------------------------------------------

 -------------------
 Title Card Required
 -------------------
 Symbolic Z-matrix:
 Charge =  0 Multiplicity = 1

                         Standard orientation:
 ---------------------------------------------------------------------
 Center     Atomic      Atomic             Coordinates (Angstroms)
 Number     Number       Type             X           Y           Z
 ---------------------------------------------------------------------
      1          6           0        0.000000    0.000000   -3.257158
      2         16           0        0.000000    0.000000    1.221434
 ---------------------------------------------------------------------

 SCF Done:  E(UM062X) =  -435.717426277     A.U. after   38 cycles

 The electronic state is 1-SG.
 Alpha  occ. eigenvalues --  -89.92804 -10.82423  -8.28673  -6.20449  -6.20449
 Alpha  occ. eigenvalues --   -6.20433  -0.72569  -0.71335  -0.28237  -0.27562
 Alpha  occ. eigenvalues --   -0.27562
 Alpha virt. eigenvalues --   -0.21116  -0.21116  -0.20238   0.02342   0.05526
 Alpha virt. eigenvalues --    0.05526   0.05555   0.08092   0.08236   0.08236
 Alpha virt. eigenvalues --    0.12958   0.36448   0.36805   0.36805   0.50996

  Beta  occ. eigenvalues --  -89.92804 -10.82423  -8.28673  -6.20449  -6.20449
  Beta  occ. eigenvalues --   -6.20433  -0.72569  -0.71335  -0.28237  -0.27562
  Beta  occ. eigenvalues --   -0.27562
  Beta virt. eigenvalues --   -0.21116  -0.21116  -0.20238   0.02342   0.05526
  Beta virt. eigenvalues --    0.05526   0.05555   0.08092   0.08236   0.08236
  Beta virt. eigenvalues --    0.12958   0.36448   0.36805   0.36805   0.50996

 Mulliken charges and spin densities:
               1          2
     1  C    0.218868  -0.000000
     2  S   -0.218868   0.000000
 Sum of Mulliken charges =   0.00000  -0.00000

 Dipole moment (field-independent basis, Debye):
    X=              0.0000    Y=              0.0000    Z=             -4.7574  Tot=              4.7574
 Quadrupole moment (field-independent basis, Debye-Ang):
   XX=            -20.8868   YY=            -20.8868   ZZ=             -8.9177
   XY=              0.0000   XZ=              0.0000   YZ=              0.0000

 Summary of Natural Population Analysis:

                                       Natural Population
                Natural  -----------------------------------------------
    Atom  No    Charge         Core      Valence    Rydberg      Total
 -----------------------------------------------------------------------
      C    1    0.12110      1.00000     1.87853    0.00037     2.87890
      S    2   -0.12110      5.00000     3.12090    0.00020     8.12110
 =======================================================================
   * Total *    0.00000      6.00000     4.99943    0.00057    11.00000

 Normal termination of Gaussian 16 at Mon Apr 21 19:47:08 2025.
