 Gaussian 16, Revision A.03,
 Gaussian 16:  ES64L-G16RevA.03 25-Dec-2016

 --------------------------------------------
 #p opt UM062X/6-311+G** nosymm int=superfine
 --------------------------------------------

 -------------------
 Title Card Required
 -------------------
 Symbolic Z-matrix:
 Charge =  0 Multiplicity = 1

 SCF Done:  E(UM062X) =  -581.190114983     A.U. after   12 cycles

 Alpha  occ. eigenvalues --  -67.04235 -67.00034  -5.58908  -5.54705  -3.90210
 Alpha  occ. eigenvalues --   -3.89636  -3.89505  -3.85937  -3.85434  -3.85301
 Alpha  occ. eigenvalues --   -0.59818  -0.55930  -0.40799  -0.36843  -0.30793
 Alpha  occ. eigenvalues --   -0.26972
 Alpha virt. eigenvalues --   -0.09774  -0.05492   0.01644   0.02720   0.03694
 Alpha virt. eigenvalues --    0.04454   0.05144   0.05921   0.06149   0.06388
 Alpha virt. eigenvalues --    0.08524   0.09291   0.11271   0.17272   0.27391

  Beta  occ. eigenvalues --  -67.04235 -67.00034  -5.58908  -5.54705  -3.90210
  Beta  occ. eigenvalues --   -3.89636  -3.89505  -3.85937  -3.85434  -3.85301
  Beta  occ. eigenvalues --   -0.59818  -0.55930  -0.40799  -0.36843  -0.30793
  Beta  occ. eigenvalues --   -0.26972
  Beta virt. eigenvalues --   -0.09774  -0.05492   0.01644   0.02720   0.03694
  Beta virt. eigenvalues --    0.04454   0.05144   0.05921   0.06149   0.06388
  Beta virt. eigenvalues --    0.08524   0.09291   0.11271   0.17272   0.27391

 Mulliken charges and spin densities:
               1          2
     1  Si   0.265805   0.000000
     2  Si   0.300430   0.000000
     3  H   -0.158185  -0.000000
     4  H   -0.124877   0.000000
     5  H   -0.158574  -0.000000
     6  H   -0.124598   0.000000
 Sum of Mulliken charges =  -0.00000   0.00000

 Dipole moment (field-independent basis, Debye):
    X=              1.8162    Y=             -0.0103    Z=              0.2365  Tot=              1.8315
 Quadrupole moment (field-independent basis, Debye-Ang):
   XX=            -28.9854   YY=            -32.3373   ZZ=            -30.4881
   XY=              0.0649   XZ=             -1.8030   YZ=             -0.0610

 Optimization completed.
    -- Stationary point found.

                          Input orientation:
 ---------------------------------------------------------------------
 Center     Atomic      Atomic             Coordinates (Angstroms)
 Number     Number       Type             X           Y           Z
 ---------------------------------------------------------------------
      1         14           0       -1.787518    0.000000    0.000000
      2         14           0        1.787518    0.000000    0.000000
      3          1           0       -1.556776   -1.139398    0.977285
      4          1           0        2.799694    1.115549    0.044749
      5          1           0       -1.550695    1.045563    1.075706
      6          1           0        2.813862   -1.102579   -0.043586
 ---------------------------------------------------------------------

 Normal termination of Gaussian 16 at Mon Apr 21 22:47:58 2025.
