 Gaussian 16, Revision A.03,
 Gaussian 16:  ES64L-G16RevA.03 25-Dec-2016

 ---------------------------------------------------------
 #p opt UM062X/6-311+G** nosymm int=superfine SCF=NoVarAcc
 ---------------------------------------------------------

 -------------------
 Title Card Required
 -------------------
 Symbolic Z-matrix:
 Charge =  1 Multiplicity = 2

 SCF Done:  E(UM062X) =  -77.8949815316     A.U. after   10 cycles
 SCF Done:  E(UM062X) =  -77.8989639656     A.U. after    9 cycles
 SCF Done:  E(UM062X) =  -77.9016107946     A.U. after   10 cycles
 SCF Done:  E(UM062X) =  -77.9016143271     A.U. after    8 cycles
 Optimization completed.
    -- Stationary point found.

                          Input orientation:
 ---------------------------------------------------------------------
 Center     Atomic      Atomic             Coordinates (Angstroms)
 Number     Number       Type             X           Y           Z
 ---------------------------------------------------------------------
      1          6           0       -2.281027    0.000000    0.000000
      2          6           0        2.281027    0.000000    0.000000
      3          1           0       -2.841232   -0.942238    0.000000
      4          1           0       -2.841172    0.942273    0.000000
      5          1           0        2.841232    0.942237    0.000000
      6          1           0        2.841172   -0.942272    0.000000
 ---------------------------------------------------------------------

 Alpha  occ. eigenvalues --  -10.87841 -10.87841  -0.99239  -0.99223  -0.73910
 Alpha  occ. eigenvalues --   -0.73900  -0.57113  -0.56583
 Alpha virt. eigenvalues --   -0.31064  -0.30917  -0.12353  -0.10671  -0.08549
 Alpha virt. eigenvalues --   -0.06681  -0.06305  -0.06105  -0.04003  -0.01060
 Alpha virt. eigenvalues --    0.00145   0.00783   0.02493   0.04568   0.27911

  Beta  occ. eigenvalues --  -10.87080 -10.87079  -0.97087  -0.96981  -0.72893
  Beta  occ. eigenvalues --   -0.72878  -0.45105
  Beta virt. eigenvalues --   -0.36888  -0.29329  -0.29136  -0.12052  -0.10838
  Beta virt. eigenvalues --   -0.08391  -0.06516  -0.06302  -0.04338  -0.04309
  Beta virt. eigenvalues --   -0.00923   0.00933   0.01073   0.02650   0.05236

 Mulliken charges and spin densities:
               1          2
     1  C    0.027010   0.486144
     2  C    0.027010   0.486143
     3  H    0.236496   0.006928
     4  H    0.236495   0.006928
     5  H    0.236495   0.006928
     6  H    0.236495   0.006928
 Sum of Mulliken charges =   1.00000   1.00000

 Dipole moment (field-independent basis, Debye):
    X=             -0.0000    Y=             -0.0000    Z=              0.0000  Tot=              0.0000
 Quadrupole moment (field-independent basis, Debye-Ang):
   XX=             27.7011   YY=             -9.4620   ZZ=            -10.7238
   XY=             -0.0001   XZ=             -0.0000   YZ=             -0.0000

 Normal termination of Gaussian 16 at Tue Dec  3 13:37:38 2024.
