 Gaussian 16, Revision A.03,
 Gaussian 16:  ES64L-G16RevA.03 25-Dec-2016

 ---------------------------------------------------------
 #p opt UM062X/6-311+G** nosymm int=superfine SCF=NoVarAcc
 ---------------------------------------------------------

 -------------------
 Title Card Required
 -------------------
 Symbolic Z-matrix:
 Charge =  1 Multiplicity = 2

 SCF Done:  E(UM062X) =  -77.9127813828     A.U. after  128 cycles
 SCF Done:  E(UM062X) =  -77.9160137805     A.U. after   12 cycles
 SCF Done:  E(UM062X) =  -77.9174582332     A.U. after   12 cycles
 SCF Done:  E(UM062X) =  -77.9174636752     A.U. after   14 cycles
 Optimization completed.
    -- Stationary point found.

                          Input orientation:
 ---------------------------------------------------------------------
 Center     Atomic      Atomic             Coordinates (Angstroms)
 Number     Number       Type             X           Y           Z
 ---------------------------------------------------------------------
      1          6           0       -6.281027    0.000000    0.000000
      2          6           0        6.281027    0.000000    0.000000
      3          1           0       -6.816788   -0.956248   -0.000128
      4          1           0       -6.816729    0.956281   -0.000128
      5          1           0        6.687797    1.002413    0.000012
      6          1           0        6.687734   -1.002439    0.000012
 ---------------------------------------------------------------------

 Alpha  occ. eigenvalues --  -10.87553 -10.79043  -0.96944  -0.94382  -0.73380
 Alpha  occ. eigenvalues --   -0.70308  -0.52088  -0.40120
 Alpha virt. eigenvalues --   -0.37798  -0.29052  -0.10803  -0.06595  -0.06366
 Alpha virt. eigenvalues --   -0.04730  -0.04489  -0.04074  -0.02273  -0.01805
 Alpha virt. eigenvalues --    0.01099   0.02589   0.03113   0.08796   0.28014

  Beta  occ. eigenvalues --  -10.88389 -10.77526  -0.99460  -0.86916  -0.74523
  Beta  occ. eigenvalues --   -0.68639  -0.57047
  Beta virt. eigenvalues --   -0.31038  -0.21469  -0.19893  -0.10414  -0.07152
  Beta virt. eigenvalues --   -0.06029  -0.04152  -0.03970  -0.03373   0.00978
  Beta virt. eigenvalues --    0.01822   0.02245   0.02612   0.05745   0.10047

 Mulliken charges and spin densities:
               1          2
     1  C    0.096220  -0.571888
     2  C   -0.065237   1.619340
     3  H    0.244434  -0.006601
     4  H    0.244434  -0.006601
     5  H    0.240074  -0.017126
     6  H    0.240074  -0.017126
 Sum of Mulliken charges =   1.00000   1.00000

 Dipole moment (field-independent basis, Debye):
    X=             -5.9103    Y=              0.0000    Z=             -0.0004  Tot=              5.9103
 Quadrupole moment (field-independent basis, Debye-Ang):
   XX=            206.9054   YY=             -8.6930   ZZ=            -11.7461
   XY=             -0.0003   XZ=              0.0022   YZ=              0.0000

 Normal termination of Gaussian 16 at Tue Dec  3 13:32:18 2024.
