 Gaussian 16, Revision A.03,
 Gaussian 16:  ES64L-G16RevA.03 25-Dec-2016

 --------------------------------------------
 #p opt UM062X/6-311+G** nosymm int=superfine
 --------------------------------------------

 -------------------
 Title Card Required
 -------------------
 Symbolic Z-matrix:
 Charge =  1 Multiplicity = 2

 SCF Done:  E(UM062X) =  -80.1563965516     A.U. after   15 cycles
 SCF Done:  E(UM062X) =  -80.1572400451     A.U. after   10 cycles
 SCF Done:  E(UM062X) =  -80.1572427975     A.U. after    8 cycles
 Optimization completed.
    -- Stationary point found.

                          Input orientation:
 ---------------------------------------------------------------------
 Center     Atomic      Atomic             Coordinates (Angstroms)
 Number     Number       Type             X           Y           Z
 ---------------------------------------------------------------------
      1          5           0       -1.827734    0.000000    0.000000
      2          7           0        1.827734    0.000000    0.000000
      3          1           0       -3.033367   -0.000235   -0.000000
      4          1           0        2.863263    0.000070   -0.000000
 ---------------------------------------------------------------------

 Alpha  occ. eigenvalues --  -14.95583  -7.53696  -1.08650  -0.86148  -0.62561
 Alpha  occ. eigenvalues --   -0.55110  -0.55110
 Alpha virt. eigenvalues --   -0.44453  -0.34826  -0.34826  -0.15454  -0.11594
 Alpha virt. eigenvalues --   -0.09943  -0.09943  -0.07581  -0.03916   0.01236
 Alpha virt. eigenvalues --    0.01236   0.03390   0.07853   0.12752   0.12752

  Beta  occ. eigenvalues --  -14.93109  -7.54933  -0.95815  -0.89766  -0.68196
  Beta  occ. eigenvalues --   -0.56905
  Beta virt. eigenvalues --   -0.35937  -0.35937  -0.19863  -0.19863  -0.14597
  Beta virt. eigenvalues --   -0.10650  -0.09696  -0.09696  -0.07095  -0.02769
  Beta virt. eigenvalues --    0.03225   0.03225   0.06278   0.08267   0.16212

 Mulliken charges and spin densities:
               1          2
     1  B    0.753179  -0.842522
     2  N   -0.245112   2.053445
     3  H    0.223615  -0.143225
     4  H    0.268319  -0.067699
 Sum of Mulliken charges =   1.00000   1.00000

 Dipole moment (field-independent basis, Debye):
    X=             -7.2115    Y=             -0.0001    Z=             -0.0000  Tot=              7.2115
 Quadrupole moment (field-independent basis, Debye-Ang):
   XX=             17.6724   YY=            -10.2798   ZZ=            -10.2798
   XY=              0.0007   XZ=              0.0000   YZ=              0.0000

 Normal termination of Gaussian 16 at Mon Apr 21 17:59:34 2025.
