 Gaussian 16, Revision A.03,
 Gaussian 16:  ES64L-G16RevA.03 25-Dec-2016

 --------------------------------------------
 #p opt UM062X/6-311+G** nosymm int=superfine
 --------------------------------------------

 -------------------
 Title Card Required
 -------------------
 Symbolic Z-matrix:
 Charge =  0 Multiplicity = 1

 SCF Done:  E(UM062X) =  -797.400397395     A.U. after   14 cycles
 SCF Done:  E(UM062X) =  -797.400722714     A.U. after   12 cycles
 SCF Done:  E(UM062X) =  -797.401472520     A.U. after   14 cycles
 SCF Done:  E(UM062X) =  -797.401736430     A.U. after   13 cycles
 SCF Done:  E(UM062X) =  -797.401753417     A.U. after   13 cycles
 SCF Done:  E(UM062X) =  -797.401749062     A.U. after   13 cycles
 SCF Done:  E(UM062X) =  -797.401756298     A.U. after   13 cycles
 SCF Done:  E(UM062X) =  -797.401756480     A.U. after   12 cycles
 Optimization completed.
    -- Stationary point found.

                          Input orientation:
 ---------------------------------------------------------------------
 Center     Atomic      Atomic             Coordinates (Angstroms)
 Number     Number       Type             X           Y           Z
 ---------------------------------------------------------------------
      1         16           0       -2.018191    0.000000    0.000000
      2         16           0        2.018191    0.000000    0.000000
      3          1           0       -1.875958   -1.311095   -0.270739
      4          1           0        1.874551    0.293089    1.306140
 ---------------------------------------------------------------------

 Alpha  occ. eigenvalues --  -89.94579 -89.94578  -8.30804  -8.30803  -6.22953
 Alpha  occ. eigenvalues --   -6.22952  -6.22698  -6.22697  -6.22131  -6.22131
 Alpha  occ. eigenvalues --   -0.81556  -0.81101  -0.47404  -0.47346  -0.33496
 Alpha  occ. eigenvalues --   -0.33306  -0.31305
 Alpha virt. eigenvalues --   -0.21335   0.01903   0.03075   0.04441   0.04883
 Alpha virt. eigenvalues --    0.06576   0.06876   0.07294   0.07430   0.09447
 Alpha virt. eigenvalues --    0.12996   0.30794   0.30928   0.32468   0.35581

  Beta  occ. eigenvalues --  -89.94579 -89.94578  -8.30804  -8.30803  -6.22953
  Beta  occ. eigenvalues --   -6.22952  -6.22698  -6.22697  -6.22131  -6.22131
  Beta  occ. eigenvalues --   -0.81556  -0.81101  -0.47404  -0.47346  -0.33496
  Beta  occ. eigenvalues --   -0.33306  -0.31305
  Beta virt. eigenvalues --   -0.21335   0.01903   0.03075   0.04441   0.04883
  Beta virt. eigenvalues --    0.06576   0.06876   0.07294   0.07430   0.09447
  Beta virt. eigenvalues --    0.12996   0.30794   0.30928   0.32468   0.35581

 Mulliken charges and spin densities:
               1          2
     1  S   -0.083541   0.000000
     2  S   -0.083438   0.000000
     3  H    0.083483   0.000000
     4  H    0.083496   0.000000
 Sum of Mulliken charges =  -0.00000   0.00000

 Dipole moment (field-independent basis, Debye):
    X=             -0.0004    Y=             -0.8432    Z=              0.8579  Tot=              1.2029
 Quadrupole moment (field-independent basis, Debye-Ang):
   XX=            -25.4134   YY=            -28.0712   ZZ=            -28.1282
   XY=              2.6204   XZ=              2.5739   YZ=              1.6614

 Normal termination of Gaussian 16 at Mon Apr 21 21:17:38 2025.
