 Gaussian 16, Revision A.03,
 Gaussian 16:  ES64L-G16RevA.03 25-Dec-2016

 --------------------------------------------
 #p opt UM062X/6-311+G** nosymm int=superfine
 --------------------------------------------

 -------------------
 Title Card Required
 -------------------
 Symbolic Z-matrix:
 Charge =  0 Multiplicity = 1

 SCF Done:  E(UM062X) =  -26.5712592823     A.U. after    8 cycles
 SCF Done:  E(UM062X) =  -26.5902936192     A.U. after    9 cycles
 SCF Done:  E(UM062X) =  -26.5921226014     A.U. after    6 cycles
 SCF Done:  E(UM062X) =  -26.5921305985     A.U. after    6 cycles
 Optimization completed.
    -- Stationary point found.

                          Input orientation:
 ---------------------------------------------------------------------
 Center     Atomic      Atomic             Coordinates (Angstroms)
 Number     Number       Type             X           Y           Z
 ---------------------------------------------------------------------
      1          5           0       -1.058942   -0.000009   -0.000022
      2          1           0       -1.060234   -0.593794    1.028656
      3          1           0       -1.060234    1.187741    0.000116
      4          1           0       -1.056087   -0.593928   -1.028732
 ---------------------------------------------------------------------

 Alpha  occ. eigenvalues --   -7.05687  -0.59018  -0.41377  -0.41376
 Alpha virt. eigenvalues --   -0.03917   0.02451   0.04375   0.04375   0.06743
 Alpha virt. eigenvalues --    0.17242   0.17243   0.18079   0.35161   0.35162
 Alpha virt. eigenvalues --    0.40228   0.43369   0.57231   0.57234   0.60806

  Beta  occ. eigenvalues --   -7.05687  -0.59018  -0.41377  -0.41376
  Beta virt. eigenvalues --   -0.03917   0.02451   0.04375   0.04375   0.06743
  Beta virt. eigenvalues --    0.17242   0.17243   0.18079   0.35161   0.35162
  Beta virt. eigenvalues --    0.40228   0.43369   0.57231   0.57234   0.60806

 Mulliken charges and spin densities:
               1          2
     1  B    0.016419   0.000000
     2  H   -0.005474  -0.000000
     3  H   -0.005473  -0.000000
     4  H   -0.005473   0.000000
 Sum of Mulliken charges =  -0.00000  -0.00000

 Dipole moment (field-independent basis, Debye):
    X=             -0.0002    Y=              0.0000    Z=              0.0000  Tot=              0.0002
 Quadrupole moment (field-independent basis, Debye-Ang):
   XX=             -7.1901   YY=             -9.3154   ZZ=             -9.3152
   XY=              0.0024   XZ=              0.0043   YZ=              0.0002

 Normal termination of Gaussian 16 at Wed Apr 16 07:42:21 2025.
 Normal termination of Gaussian 16 at Wed Apr 16 07:42:10 2025.
