 Gaussian 16, Revision A.03,
 Gaussian 16:  ES64L-G16RevA.03 25-Dec-2016

 --------------------------------------------
 #p opt UM062X/6-311+G** nosymm int=superfine
 --------------------------------------------

 -------------------
 Title Card Required
 -------------------
 Symbolic Z-matrix:
 Charge =  0 Multiplicity = 1

 SCF Done:  E(UM062X) =  -111.611155979     A.U. after   17 cycles
 SCF Done:  E(UM062X) =  -111.615021198     A.U. after   14 cycles
 SCF Done:  E(UM062X) =  -111.617273295     A.U. after   17 cycles
 SCF Done:  E(UM062X) =  -111.618769665     A.U. after   16 cycles
 SCF Done:  E(UM062X) =  -111.620398818     A.U. after   16 cycles
 SCF Done:  E(UM062X) =  -111.621608666     A.U. after   15 cycles
 SCF Done:  E(UM062X) =  -111.622276105     A.U. after   15 cycles
 SCF Done:  E(UM062X) =  -111.622557690     A.U. after   15 cycles
 SCF Done:  E(UM062X) =  -111.622842466     A.U. after   17 cycles
 SCF Done:  E(UM062X) =  -111.623071680     A.U. after   16 cycles
 SCF Done:  E(UM062X) =  -111.623157657     A.U. after   14 cycles
 SCF Done:  E(UM062X) =  -111.623179173     A.U. after   14 cycles
 SCF Done:  E(UM062X) =  -111.623203864     A.U. after   13 cycles
 SCF Done:  E(UM062X) =  -111.623230403     A.U. after   45 cycles
 SCF Done:  E(UM062X) =  -111.623255728     A.U. after   44 cycles
 SCF Done:  E(UM062X) =  -111.623259662     A.U. after   14 cycles
 SCF Done:  E(UM062X) =  -111.623274199     A.U. after   10 cycles
 SCF Done:  E(UM062X) =  -111.623275377     A.U. after   11 cycles
 SCF Done:  E(UM062X) =  -111.623275502     A.U. after   11 cycles
 Optimization completed.
    -- Stationary point found.

                          Input orientation:
 ---------------------------------------------------------------------
 Center     Atomic      Atomic             Coordinates (Angstroms)
 Number     Number       Type             X           Y           Z
 ---------------------------------------------------------------------
      1          7           0       -1.986540    0.000000    0.000000
      2          7           0        1.986540    0.000000    0.000000
      3          1           0       -1.866200   -0.810311   -0.620571
      4          1           0        1.866615    0.401497   -0.938413
      5          1           0       -1.865808   -0.402990    0.937663
      6          1           0        1.866193    0.811385    0.619165
 ---------------------------------------------------------------------

 Alpha  occ. eigenvalues --  -14.80491 -14.80490  -0.95201  -0.94992  -0.55348
 Alpha  occ. eigenvalues --   -0.55249  -0.40764  -0.40606  -0.28013
 Alpha virt. eigenvalues --   -0.19086   0.04096   0.05937   0.08821   0.11561
 Alpha virt. eigenvalues --    0.12208   0.13228   0.15342   0.16455   0.17798
 Alpha virt. eigenvalues --    0.18612   0.22987   0.29099   0.51028   0.51738

  Beta  occ. eigenvalues --  -14.80491 -14.80490  -0.95201  -0.94992  -0.55348
  Beta  occ. eigenvalues --   -0.55249  -0.40764  -0.40606  -0.28013
  Beta virt. eigenvalues --   -0.19086   0.04096   0.05937   0.08821   0.11561
  Beta virt. eigenvalues --    0.12208   0.13228   0.15342   0.16455   0.17798
  Beta virt. eigenvalues --    0.18612   0.22987   0.29099   0.51028   0.51738

 Mulliken charges and spin densities:
               1          2
     1  N   -0.478803   0.000000
     2  N   -0.478909  -0.000000
     3  H    0.239414  -0.000000
     4  H    0.239421   0.000000
     5  H    0.239436  -0.000000
     6  H    0.239441   0.000000
 Sum of Mulliken charges =  -0.00000   0.00000

 Dipole moment (field-independent basis, Debye):
    X=              0.0009    Y=             -0.0008    Z=             -0.0035  Tot=              0.0037
 Quadrupole moment (field-independent basis, Debye-Ang):
   XX=            -17.1125   YY=            -14.3783   ZZ=            -11.5369
   XY=              8.1879   XZ=             -2.1476   YZ=              0.8003

 Normal termination of Gaussian 16 at Thu May 15 15:14:58 2025.
