 Gaussian 16, Revision A.03,
 Gaussian 16:  ES64L-G16RevA.03 25-Dec-2016

 --------------------------------------------
 #p opt UM062X/6-311+G** nosymm int=superfine
 --------------------------------------------

 -------------------
 Title Card Required
 -------------------
 Symbolic Z-matrix:
 Charge =  1 Multiplicity = 2

 SCF Done:  E(UM062X) =  -76.5682492352     A.U. after   11 cycles
 SCF Done:  E(UM062X) =  -76.6062418322     A.U. after   13 cycles
 SCF Done:  E(UM062X) =  -76.6633300437     A.U. after   11 cycles
 SCF Done:  E(UM062X) =  -76.6853773611     A.U. after   11 cycles
 SCF Done:  E(UM062X) =  -76.6855113954     A.U. after    9 cycles
 Optimization completed.
    -- Stationary point found.

                          Input orientation:
 ---------------------------------------------------------------------
 Center     Atomic      Atomic             Coordinates (Angstroms)
 Number     Number       Type             X           Y           Z
 ---------------------------------------------------------------------
      1          6           0       -0.894733    0.000000    0.000000
      2          6           0        0.894733    0.000000    0.000000
      3          1           0       -1.994698    0.000000    0.000000
      4          1           0        1.994679    0.000000    0.000000
 ---------------------------------------------------------------------

 Alpha  occ. eigenvalues --  -11.00588 -11.00558  -1.08529  -0.99460  -0.82677
 Alpha  occ. eigenvalues --   -0.62193  -0.60133
 Alpha virt. eigenvalues --   -0.37509  -0.35528  -0.31487  -0.14142  -0.11602
 Alpha virt. eigenvalues --   -0.10327  -0.08898  -0.08668  -0.05349  -0.05052
 Alpha virt. eigenvalues --    0.00969   0.03466   0.06693   0.23294   0.31231

  Beta  occ. eigenvalues --  -11.00329 -11.00309  -1.04916  -0.97641  -0.81687
  Beta  occ. eigenvalues --   -0.58235
  Beta virt. eigenvalues --   -0.39930  -0.33794  -0.29426  -0.29076  -0.15122
  Beta virt. eigenvalues --   -0.11927  -0.10849  -0.09270  -0.09112  -0.05341
  Beta virt. eigenvalues --   -0.05086   0.00019   0.03559   0.06899   0.23805

 Mulliken charges and spin densities:
               1          2
     1  C    0.130786   0.522359
     2  C    0.130784   0.522338
     3  H    0.369219  -0.022349
     4  H    0.369211  -0.022348
 Sum of Mulliken charges =   1.00000   1.00000

 Dipole moment (field-independent basis, Debye):
    X=             -0.0001    Y=              0.0000    Z=              0.0000  Tot=              0.0001
 Quadrupole moment (field-independent basis, Debye-Ang):
   XX=              4.0499   YY=            -12.8979   ZZ=            -10.9403
   XY=              0.0000   XZ=             -0.0000   YZ=              0.4099

 Normal termination of Gaussian 16 at Tue Nov 19 13:19:27 2024.
