 Gaussian 16, Revision A.03,
 Gaussian 16:  ES64L-G16RevA.03 25-Dec-2016

 --------------------------------------------
 #p opt UM062X/6-311+G** nosymm int=superfine
 --------------------------------------------

 -------------------
 Title Card Required
 -------------------
 Symbolic Z-matrix:
 Charge =  1 Multiplicity = 2

 SCF Done:  E(UM062X) =  -76.5850228163     A.U. after  116 cycles
 SCF Done:  E(UM062X) =  -76.5853622968     A.U. after   83 cycles
 Optimization completed.
    -- Stationary point found.

                          Input orientation:
 ---------------------------------------------------------------------
 Center     Atomic      Atomic             Coordinates (Angstroms)
 Number     Number       Type             X           Y           Z
 ---------------------------------------------------------------------
      1          6           0       -1.857160    0.000000    0.000000
      2          6           0        1.857160    0.000000    0.000000
      3          1           0       -2.974852    0.000000   -0.000000
      4          1           0        2.974851   -0.000000    0.000000
 ---------------------------------------------------------------------

 Alpha  occ. eigenvalues --  -10.94550 -10.94550  -0.98235  -0.98075  -0.64235
 Alpha  occ. eigenvalues --   -0.62681  -0.48258
 Alpha virt. eigenvalues --   -0.40548  -0.33438  -0.33029  -0.12367  -0.11383
 Alpha virt. eigenvalues --   -0.07736  -0.07277  -0.05369  -0.04790  -0.04436
 Alpha virt. eigenvalues --   -0.01580  -0.00518   0.05897   0.24922   0.29979

  Beta  occ. eigenvalues --  -10.94139 -10.94139  -0.95840  -0.95764  -0.62903
  Beta  occ. eigenvalues --   -0.61268
  Beta virt. eigenvalues --   -0.31620  -0.31105  -0.30034  -0.29450  -0.12847
  Beta virt. eigenvalues --   -0.11306  -0.07153  -0.06389  -0.06079  -0.04058
  Beta virt. eigenvalues --   -0.03131  -0.02093   0.01062   0.07483   0.24144

 Mulliken charges and spin densities:
               1          2
     1  C    0.267239   0.516484
     2  C    0.267239   0.516484
     3  H    0.232761  -0.016484
     4  H    0.232761  -0.016484
 Sum of Mulliken charges =   1.00000   1.00000

 Dipole moment (field-independent basis, Debye):
    X=             -0.0000    Y=              0.0000    Z=             -0.0000  Tot=              0.0000
 Quadrupole moment (field-independent basis, Debye-Ang):
   XX=             21.1356   YY=            -11.3406   ZZ=             -9.6518
   XY=             -0.0000   XZ=              0.0000   YZ=              0.5461

 Normal termination of Gaussian 16 at Tue Dec  3 11:32:31 2024.
