 Gaussian 16, Revision A.03,
 Gaussian 16:  ES64L-G16RevA.03 25-Dec-2016

 --------------------------------------------
 #p opt UM062X/6-311+G** nosymm int=superfine
 --------------------------------------------

 -------------------
 Title Card Required
 -------------------
 Symbolic Z-matrix:
 Charge =  1 Multiplicity = 2

 SCF Done:  E(UM062X) =  -79.3164177126     A.U. after   10 cycles
 SCF Done:  E(UM062X) =  -79.3176605075     A.U. after    9 cycles
 SCF Done:  E(UM062X) =  -79.3176698538     A.U. after    9 cycles
 Optimization completed.
    -- Stationary point found.

                          Input orientation:
 ---------------------------------------------------------------------
 Center     Atomic      Atomic             Coordinates (Angstroms)
 Number     Number       Type             X           Y           Z
 ---------------------------------------------------------------------
      1          6           0       -1.997341    0.000000    0.000000
      2          6           0        1.997341    0.000000    0.000000
      3          1           0        2.024131   -0.937548    0.542634
      4          1           0       -2.022375   -0.938645   -0.540812
      5          1           0        2.023378    0.938739    0.540605
      6          1           0        2.022408   -0.001168   -1.083293
      7          1           0       -2.024185    0.937653   -0.542450
      8          1           0       -2.023356    0.000947    1.083272
 ---------------------------------------------------------------------

 Alpha  occ. eigenvalues --  -10.83476 -10.83475  -1.02046  -1.01726  -0.73104
 Alpha  occ. eigenvalues --   -0.73104  -0.72998  -0.72998  -0.47359
 Alpha virt. eigenvalues --   -0.37635  -0.12708  -0.10149  -0.09391  -0.09391
 Alpha virt. eigenvalues --   -0.06216  -0.06216  -0.04387  -0.02893  -0.00007
 Alpha virt. eigenvalues --   -0.00004   0.01382   0.01384   0.02646   0.08759

  Beta  occ. eigenvalues --  -10.83256 -10.83256  -0.99389  -0.99193  -0.72580
  Beta  occ. eigenvalues --   -0.72580  -0.72457  -0.72456
  Beta virt. eigenvalues --   -0.32490  -0.26655  -0.16685  -0.10829  -0.10828
  Beta virt. eigenvalues --   -0.10225  -0.06203  -0.06202  -0.05302  -0.01939
  Beta virt. eigenvalues --   -0.00230  -0.00227   0.01642   0.01645   0.02428

 Mulliken charges and spin densities:
               1          2
     1  C   -0.248936   0.557220
     2  C   -0.248937   0.557220
     3  H    0.249667  -0.019069
     4  H    0.249628  -0.019071
     5  H    0.249649  -0.019073
     6  H    0.249622  -0.019078
     7  H    0.249668  -0.019069
     8  H    0.249641  -0.019081
 Sum of Mulliken charges =   1.00000   1.00000

 Dipole moment (field-independent basis, Debye):
    X=             -0.0000    Y=             -0.0000    Z=             -0.0001  Tot=              0.0001
 Quadrupole moment (field-independent basis, Debye-Ang):
   XX=              7.7615   YY=            -11.1155   ZZ=            -11.1157
   XY=             -0.0019   XZ=              0.0011   YZ=              0.0000

 Normal termination of Gaussian 16 at Wed Nov 13 12:55:58 2024.
