 Gaussian 16, Revision A.03,
 Gaussian 16:  ES64L-G16RevA.03 25-Dec-2016

 --------------------------------------------
 #p opt UM062X/6-311+G** nosymm int=superfine
 --------------------------------------------

 -------------------
 Title Card Required
 -------------------
 Symbolic Z-matrix:
 Charge =  0 Multiplicity = 1

 SCF Done:  E(UM062X) =  -76.9903851492     A.U. after   13 cycles
 SCF Done:  E(UM062X) =  -76.9901591887     A.U. after   13 cycles
 SCF Done:  E(UM062X) =  -76.9908802182     A.U. after   12 cycles
 SCF Done:  E(UM062X) =  -76.9910249607     A.U. after   12 cycles
 SCF Done:  E(UM062X) =  -76.9910252098     A.U. after   10 cycles
 Optimization completed.
    -- Stationary point found.

                          Input orientation:
 ---------------------------------------------------------------------
 Center     Atomic      Atomic             Coordinates (Angstroms)
 Number     Number       Type             X           Y           Z
 ---------------------------------------------------------------------
      1          6           0       -1.132625    0.000000    0.000000
      2          6           0        1.132625    0.000000    0.000000
      3          1           0       -1.150743    0.344038    1.063888
      4          1           0        1.150928    1.020586   -0.456757
 ---------------------------------------------------------------------

 Alpha  occ. eigenvalues --  -10.66388 -10.66380  -0.75530  -0.69119  -0.39955
 Alpha  occ. eigenvalues --   -0.37980  -0.29397
 Alpha virt. eigenvalues --   -0.09365  -0.08778  -0.01531   0.02726   0.06275
 Alpha virt. eigenvalues --    0.07654   0.07938   0.09902   0.10111   0.10388
 Alpha virt. eigenvalues --    0.15707   0.16544   0.21008   0.45532   0.47379

  Beta  occ. eigenvalues --  -10.66388 -10.66380  -0.75530  -0.69119  -0.39955
  Beta  occ. eigenvalues --   -0.37980  -0.29397
  Beta virt. eigenvalues --   -0.09365  -0.08778  -0.01531   0.02726   0.06275
  Beta virt. eigenvalues --    0.07654   0.07938   0.09902   0.10111   0.10388
  Beta virt. eigenvalues --    0.15707   0.16544   0.21008   0.45532   0.47379

 Mulliken charges and spin densities:
               1          2
     1  C   -0.138470   0.000000
     2  C   -0.138509  -0.000000
     3  H    0.138486  -0.000000
     4  H    0.138492   0.000000
 Sum of Mulliken charges =  -0.00000   0.00000

 Dipole moment (field-independent basis, Debye):
    X=              0.0001    Y=              1.8677    Z=              0.8309  Tot=              2.0442
 Quadrupole moment (field-independent basis, Debye-Ang):
   XX=            -17.2578   YY=            -12.9875   ZZ=            -13.1401
   XY=              1.1896   XZ=             -2.6734   YZ=              0.0847

 Normal termination of Gaussian 16 at Tue Dec  3 21:30:42 2024.
