 Gaussian 16, Revision A.03,
 Gaussian 16:  ES64L-G16RevA.03 25-Dec-2016

 --------------------------------------------
 #p opt UM062X/6-311+G** nosymm int=superfine
 --------------------------------------------

 -------------------
 Title Card Required
 -------------------
 Symbolic Z-matrix:
 Charge =  0 Multiplicity = 1

 SCF Done:  E(UM062X) =  -77.3036147467     A.U. after    9 cycles
 SCF Done:  E(UM062X) =  -77.3080497367     A.U. after    9 cycles
 SCF Done:  E(UM062X) =  -77.3080535710     A.U. after    7 cycles
 Optimization completed.
    -- Stationary point found.

                          Input orientation:
 ---------------------------------------------------------------------
 Center     Atomic      Atomic             Coordinates (Angstroms)
 Number     Number       Type             X           Y           Z
 ---------------------------------------------------------------------
      1          6           0       -0.568590    0.000000    0.000000
      2          6           0        0.568590    0.000000    0.000000
      3          1           0       -1.631809    0.000000   -0.000000
      4          1           0        1.631809   -0.000000    0.000000
 ---------------------------------------------------------------------

 Alpha  occ. eigenvalues --  -10.53056 -10.52613  -0.86698  -0.63877  -0.56835
 Alpha  occ. eigenvalues --   -0.36902  -0.36902
 Alpha virt. eigenvalues --    0.02677   0.03004   0.05566   0.05566   0.07502
 Alpha virt. eigenvalues --    0.07502   0.09322   0.16109   0.16109   0.16210
 Alpha virt. eigenvalues --    0.20505   0.24608   0.41813   0.44469   0.56104

  Beta  occ. eigenvalues --  -10.53056 -10.52613  -0.86698  -0.63877  -0.56835
  Beta  occ. eigenvalues --   -0.36902  -0.36902
  Beta virt. eigenvalues --    0.02677   0.03004   0.05566   0.05566   0.07502
  Beta virt. eigenvalues --    0.07502   0.09322   0.16109   0.16109   0.16210
  Beta virt. eigenvalues --    0.20505   0.24608   0.41813   0.44469   0.56104

 Mulliken charges and spin densities:
               1          2
     1  C   -0.162387  -0.000000
     2  C   -0.162387   0.000000
     3  H    0.162387   0.000000
     4  H    0.162387   0.000000
 Sum of Mulliken charges =  -0.00000  -0.00000

 Dipole moment (field-independent basis, Debye):
    X=              0.0000    Y=             -0.0000    Z=              0.0000  Tot=              0.0000
 Quadrupole moment (field-independent basis, Debye-Ang):
   XX=             -7.0795   YY=            -13.4948   ZZ=            -13.4948
   XY=             -0.0000   XZ=              0.0000   YZ=             -0.0000

 Normal termination of Gaussian 16 at Tue Dec  3 20:02:05 2024.
