 Gaussian 16, Revision A.03,
 Gaussian 16:  ES64L-G16RevA.03 25-Dec-2016

 --------------------------------------------
 #p opt UM062X/6-311+G** nosymm int=superfine
 --------------------------------------------

 -------------------
 Title Card Required
 -------------------
 Symbolic Z-matrix:
 Charge =  1 Multiplicity = 2

 SCF Done:  E(UM062X) =  -79.3576158512     A.U. after   10 cycles
 SCF Done:  E(UM062X) =  -79.3676656288     A.U. after    9 cycles
 SCF Done:  E(UM062X) =  -79.3677126321     A.U. after    8 cycles
 Optimization completed.
    -- Stationary point found.

                          Input orientation:
 ---------------------------------------------------------------------
 Center     Atomic      Atomic             Coordinates (Angstroms)
 Number     Number       Type             X           Y           Z
 ---------------------------------------------------------------------
      1          6           0       -0.927337    0.000000    0.000000
      2          6           0        0.927337    0.000000    0.000000
      3          1           0        1.091810   -0.929900    0.538108
      4          1           0       -1.091072   -0.931083   -0.536326
      5          1           0        1.091196    0.931095    0.536264
      6          1           0        1.091077   -0.001041   -1.074503
      7          1           0       -1.091817    0.929908   -0.538093
      8          1           0       -1.091193    0.000988    1.074484
 ---------------------------------------------------------------------

 Alpha  occ. eigenvalues --  -10.86154 -10.86139  -1.13162  -1.00779  -0.80043
 Alpha  occ. eigenvalues --   -0.80039  -0.73054  -0.73054  -0.66236
 Alpha virt. eigenvalues --   -0.19129  -0.16841  -0.11464  -0.11463  -0.09581
 Alpha virt. eigenvalues --   -0.07634  -0.06609  -0.06606  -0.05796  -0.05794
 Alpha virt. eigenvalues --   -0.01406   0.01368   0.01373   0.03835   0.07573

  Beta  occ. eigenvalues --  -10.85924 -10.85924  -1.09501  -0.97489  -0.78920
  Beta  occ. eigenvalues --   -0.78917  -0.72149  -0.72147
  Beta virt. eigenvalues --   -0.42205  -0.16298  -0.15127  -0.11279  -0.11279
  Beta virt. eigenvalues --   -0.07871  -0.06728  -0.06726  -0.06609  -0.05388
  Beta virt. eigenvalues --   -0.05385  -0.00231   0.02105   0.02110   0.04415

 Mulliken charges and spin densities:
               1          2
     1  C   -0.326008   0.532118
     2  C   -0.326008   0.532118
     3  H    0.275337  -0.010766
     4  H    0.275333  -0.010675
     5  H    0.275338  -0.010678
     6  H    0.275333  -0.010674
     7  H    0.275337  -0.010767
     8  H    0.275338  -0.010677
 Sum of Mulliken charges =   1.00000   1.00000

 Dipole moment (field-independent basis, Debye):
    X=              0.0000    Y=             -0.0000    Z=             -0.0000  Tot=              0.0000
 Quadrupole moment (field-independent basis, Debye-Ang):
   XX=             -7.1215   YY=            -10.6843   ZZ=            -10.6839
   XY=             -0.0002   XZ=              0.0001   YZ=              0.0003

 Normal termination of Gaussian 16 at Wed Nov 13 13:30:02 2024.
