 Gaussian 16, Revision A.03,
 Gaussian 16:  ES64L-G16RevA.03 25-Dec-2016

 ---------------------------------------
 #p UM062X/6-311+G** force int=superfine
 ---------------------------------------

 -------------------
 Title Card Required
 -------------------
 Symbolic Z-matrix:
 Charge =  1 Multiplicity = 2

                         Standard orientation:
 ---------------------------------------------------------------------
 Center     Atomic      Atomic             Coordinates (Angstroms)
 Number     Number       Type             X           Y           Z
 ---------------------------------------------------------------------
      1          6           0        0.000000    0.000000    0.453580
      2          6           0        0.000000    0.000000   -0.453580
      3          1           0        0.000000    0.000000    1.523982
      4          1           0        0.000000    0.000000   -1.523982
 ---------------------------------------------------------------------

 SCF Done:  E(UM062X) =  -76.5157217330     A.U. after    9 cycles

 Unable to determine electronic state:  an orbital has unidentified symmetry.
 Alpha  occ. eigenvalues --  -10.91092 -10.88023  -1.33708  -0.94477  -0.91756
 Alpha  occ. eigenvalues --   -0.86039  -0.82262
 Alpha virt. eigenvalues --   -0.17161  -0.15602  -0.14819  -0.13558  -0.11976
 Alpha virt. eigenvalues --   -0.11779  -0.11429  -0.02722  -0.01860  -0.01400
 Alpha virt. eigenvalues --    0.02536   0.04008   0.16924   0.22066   0.24441

  Beta  occ. eigenvalues --  -10.90660 -10.87712  -1.27268  -0.92970  -0.90787
  Beta  occ. eigenvalues --   -0.79586
  Beta virt. eigenvalues --   -0.54330  -0.15489  -0.14713  -0.13892  -0.13209
  Beta virt. eigenvalues --   -0.11917  -0.11876  -0.11468  -0.01303  -0.01011
  Beta virt. eigenvalues --   -0.00195   0.02888   0.04499   0.17408   0.22447

 Mulliken charges and spin densities:
               1          2
     1  C    0.250210   0.522320
     2  C    0.250210   0.522320
     3  H    0.249790  -0.022320
     4  H    0.249790  -0.022320
 Sum of Mulliken charges =   1.00000   1.00000

 Dipole moment (field-independent basis, Debye):
    X=              0.0000    Y=             -0.0000    Z=             -0.0000  Tot=              0.0000
 Quadrupole moment (field-independent basis, Debye-Ang):
   XX=             -8.5804   YY=            -10.0355   ZZ=             -2.5094
   XY=             -0.0000   XZ=             -0.0000   YZ=              0.0000

 Normal termination of Gaussian 16 at Tue Nov 19 13:25:45 2024.
