 Gaussian 16, Revision A.03,
 Gaussian 16:  ES64L-G16RevA.03 25-Dec-2016

 --------------------------------------------
 #p opt UM062X/6-311+G** nosymm int=superfine
 --------------------------------------------

 -------------------
 Title Card Required
 -------------------
 Symbolic Z-matrix:
 Charge =  0 Multiplicity = 1

 SCF Done:  E(UM062X) =  -380.974704139     A.U. after   18 cycles
 SCF Done:  E(UM062X) =  -380.976231470     A.U. after   14 cycles
 SCF Done:  E(UM062X) =  -380.976757803     A.U. after   15 cycles
 SCF Done:  E(UM062X) =  -380.976741487     A.U. after   15 cycles
 SCF Done:  E(UM062X) =  -380.976777476     A.U. after   18 cycles
 SCF Done:  E(UM062X) =  -380.976793392     A.U. after   16 cycles
 SCF Done:  E(UM062X) =  -380.976797585     A.U. after   17 cycles
 SCF Done:  E(UM062X) =  -380.976799270     A.U. after   13 cycles
 SCF Done:  E(UM062X) =  -380.976800220     A.U. after   15 cycles
 Optimization completed.
    -- Stationary point found.

                          Input orientation:
 ---------------------------------------------------------------------
 Center     Atomic      Atomic             Coordinates (Angstroms)
 Number     Number       Type             X           Y           Z
 ---------------------------------------------------------------------
      1          6           0       -1.430452    0.000000    0.000000
      2         15           0        1.430452    0.000000    0.000000
      3          1           0       -2.044574   -0.905279    0.000380
      4          1           0        1.293731   -1.414483    0.000446
      5          1           0       -2.021082    0.920160   -0.000303
 ---------------------------------------------------------------------

 Alpha  occ. eigenvalues --  -78.05354 -10.64533  -6.87354  -4.99134  -4.98595
 Alpha  occ. eigenvalues --   -4.98372  -0.77679  -0.65653  -0.51941  -0.38341
 Alpha  occ. eigenvalues --   -0.33943  -0.24265
 Alpha virt. eigenvalues --   -0.11235  -0.08260   0.01772   0.04198   0.04703
 Alpha virt. eigenvalues --    0.06127   0.06819   0.07106   0.09455   0.11320
 Alpha virt. eigenvalues --    0.13855   0.18278   0.18618   0.30704   0.33169

  Beta  occ. eigenvalues --  -78.05354 -10.64533  -6.87354  -4.99134  -4.98595
  Beta  occ. eigenvalues --   -4.98372  -0.77679  -0.65653  -0.51941  -0.38341
  Beta  occ. eigenvalues --   -0.33943  -0.24265
  Beta virt. eigenvalues --   -0.11235  -0.08260   0.01772   0.04198   0.04703
  Beta virt. eigenvalues --    0.06127   0.06819   0.07106   0.09455   0.11320
  Beta virt. eigenvalues --    0.13855   0.18278   0.18618   0.30704   0.33169

 Mulliken charges and spin densities:
               1          2
     1  C   -0.389114  -0.000000
     2  P    0.061554   0.000000
     3  H    0.175543   0.000000
     4  H   -0.023931  -0.000000
     5  H    0.175948   0.000000
 Sum of Mulliken charges =  -0.00000   0.00000

 Dipole moment (field-independent basis, Debye):
    X=             -2.0412    Y=             -0.5932    Z=              0.0003  Tot=              2.1257
 Quadrupole moment (field-independent basis, Debye-Ang):
   XX=            -15.5481   YY=            -20.9331   ZZ=            -25.4243
   XY=             -1.3513   XZ=              0.0006   YZ=             -0.0015

 Normal termination of Gaussian 16 at Mon Apr 21 19:15:34 2025.
