 Gaussian 16, Revision A.03,
 Gaussian 16:  ES64L-G16RevA.03 25-Dec-2016

 --------------------------------------------
 #p opt UM062X/6-311+G** nosymm int=superfine
 --------------------------------------------

 -------------------
 Title Card Required
 -------------------
 Symbolic Z-matrix:
 Charge =  0 Multiplicity = 1

 SCF Done:  E(UM062X) =  -474.496463867     A.U. after   13 cycles
 SCF Done:  E(UM062X) =  -474.496473600     A.U. after   13 cycles
 SCF Done:  E(UM062X) =  -474.496534493     A.U. after   13 cycles
 SCF Done:  E(UM062X) =  -474.496534905     A.U. after   10 cycles
 SCF Done:  E(UM062X) =  -474.496534921     A.U. after    9 cycles
 Optimization completed.
    -- Stationary point found.

                          Input orientation:
 ---------------------------------------------------------------------
 Center     Atomic      Atomic             Coordinates (Angstroms)
 Number     Number       Type             X           Y           Z
 ---------------------------------------------------------------------
      1          8           0       -1.136006   -0.000014    0.000005
      2         16           0        1.136007    0.000014   -0.000004
      3          1           0       -1.220218   -0.041088    0.963163
      4          1           0        1.090511   -1.233001   -0.532250
 ---------------------------------------------------------------------

 Alpha  occ. eigenvalues --  -89.96870 -19.67227  -8.32899  -6.25117  -6.24752
 Alpha  occ. eigenvalues --   -6.24214  -1.09609  -0.82782  -0.53420  -0.49256
 Alpha  occ. eigenvalues --   -0.41519  -0.39843  -0.34354
 Alpha virt. eigenvalues --   -0.12414   0.01524   0.04149   0.04885   0.05816
 Alpha virt. eigenvalues --    0.07710   0.15477   0.19459   0.20006   0.21787
 Alpha virt. eigenvalues --    0.27390   0.31612   0.33875   0.35123   0.40646

  Beta  occ. eigenvalues --  -89.96870 -19.67227  -8.32899  -6.25117  -6.24752
  Beta  occ. eigenvalues --   -6.24214  -1.09609  -0.82782  -0.53420  -0.49256
  Beta  occ. eigenvalues --   -0.41519  -0.39843  -0.34354
  Beta virt. eigenvalues --   -0.12414   0.01524   0.04149   0.04885   0.05816
  Beta virt. eigenvalues --    0.07710   0.15477   0.19459   0.20006   0.21787
  Beta virt. eigenvalues --    0.27390   0.31612   0.33875   0.35123   0.40646

 Mulliken charges and spin densities:
               1          2
     1  O   -0.436927  -0.000000
     2  S    0.078369   0.000000
     3  H    0.253327   0.000000
     4  H    0.105232   0.000000
 Sum of Mulliken charges =  -0.00000  -0.00000

 Dipole moment (field-independent basis, Debye):
    X=              1.5847    Y=             -1.0978    Z=              1.2039  Tot=              2.2729
 Quadrupole moment (field-independent basis, Debye-Ang):
   XX=            -18.5377   YY=            -19.0136   ZZ=            -19.3046
   XY=             -1.2846   XZ=             -3.0498   YZ=              1.3916

 Normal termination of Gaussian 16 at Mon Apr 21 22:40:05 2025.
