 Gaussian 16, Revision A.03,
 Gaussian 16:  ES64L-G16RevA.03 25-Dec-2016

 --------------------------------------------
 #p opt UM062X/6-311+G** nosymm int=superfine
 --------------------------------------------

 -------------------
 Title Card Required
 -------------------
 Symbolic Z-matrix:
 Charge =  0 Multiplicity = 1

 SCF Done:  E(UM062X) =  -797.402397773     A.U. after   14 cycles
 SCF Done:  E(UM062X) =  -797.402754495     A.U. after   12 cycles
 SCF Done:  E(UM062X) =  -797.403560824     A.U. after   17 cycles
 SCF Done:  E(UM062X) =  -797.403773627     A.U. after   13 cycles
 SCF Done:  E(UM062X) =  -797.403797494     A.U. after   13 cycles
 SCF Done:  E(UM062X) =  -797.403803731     A.U. after   12 cycles
 SCF Done:  E(UM062X) =  -797.403803987     A.U. after   14 cycles
 SCF Done:  E(UM062X) =  -797.403804036     A.U. after   12 cycles
 SCF Done:  E(UM062X) =  -797.403804119     A.U. after   13 cycles
 Optimization completed.
    -- Stationary point found.

                          Input orientation:
 ---------------------------------------------------------------------
 Center     Atomic      Atomic             Coordinates (Angstroms)
 Number     Number       Type             X           Y           Z
 ---------------------------------------------------------------------
      1         16           0       -1.993191    0.000000    0.000000
      2         16           0        1.993191    0.000000    0.000000
      3          1           0       -1.854858   -1.312268   -0.267059
      4          1           0        1.854040    0.291012    1.307083
 ---------------------------------------------------------------------

 Alpha  occ. eigenvalues --  -89.94599 -89.94599  -8.30820  -8.30820  -6.22970
 Alpha  occ. eigenvalues --   -6.22969  -6.22714  -6.22714  -6.22148  -6.22147
 Alpha  occ. eigenvalues --   -0.81577  -0.81088  -0.47406  -0.47344  -0.33504
 Alpha  occ. eigenvalues --   -0.33300  -0.31443
 Alpha virt. eigenvalues --   -0.21204   0.01911   0.03079   0.04448   0.04896
 Alpha virt. eigenvalues --    0.06566   0.06895   0.07305   0.07437   0.09538
 Alpha virt. eigenvalues --    0.13013   0.30869   0.30871   0.32501   0.35611

  Beta  occ. eigenvalues --  -89.94599 -89.94599  -8.30820  -8.30820  -6.22970
  Beta  occ. eigenvalues --   -6.22969  -6.22714  -6.22714  -6.22148  -6.22147
  Beta  occ. eigenvalues --   -0.81577  -0.81088  -0.47406  -0.47344  -0.33504
  Beta  occ. eigenvalues --   -0.33300  -0.31443
  Beta virt. eigenvalues --   -0.21204   0.01911   0.03079   0.04448   0.04896
  Beta virt. eigenvalues --    0.06566   0.06895   0.07305   0.07437   0.09538
  Beta virt. eigenvalues --    0.13013   0.30869   0.30871   0.32501   0.35611

 Mulliken charges and spin densities:
               1          2
     1  S   -0.083792   0.000000
     2  S   -0.083728  -0.000000
     3  H    0.083756  -0.000000
     4  H    0.083764   0.000000
 Sum of Mulliken charges =  -0.00000  -0.00000

 Dipole moment (field-independent basis, Debye):
    X=             -0.0002    Y=             -0.8454    Z=              0.8611  Tot=              1.2067
 Quadrupole moment (field-independent basis, Debye-Ang):
   XX=            -25.3645   YY=            -28.0674   ZZ=            -28.1278
   XY=              2.5961   XZ=              2.5476   YZ=              1.6463

 Normal termination of Gaussian 16 at Mon Apr 21 21:17:51 2025.
