 Gaussian 16, Revision A.03,
 Gaussian 16:  ES64L-G16RevA.03 25-Dec-2016

 --------------------------------------------
 #p opt UM062X/6-311+G** nosymm int=superfine
 --------------------------------------------

 -------------------
 Title Card Required
 -------------------
 Symbolic Z-matrix:
 Charge =  0 Multiplicity = 1

 SCF Done:  E(UM062X) =  -438.467993749     A.U. after   15 cycles
 SCF Done:  E(UM062X) =  -438.481762151     A.U. after   12 cycles
 SCF Done:  E(UM062X) =  -438.489173031     A.U. after   13 cycles
 SCF Done:  E(UM062X) =  -438.489245486     A.U. after   10 cycles
 SCF Done:  E(UM062X) =  -438.489257944     A.U. after   11 cycles
 SCF Done:  E(UM062X) =  -438.489304860     A.U. after   10 cycles
 SCF Done:  E(UM062X) =  -438.489308663     A.U. after   10 cycles
 SCF Done:  E(UM062X) =  -438.489309162     A.U. after    9 cycles
 Optimization completed.
    -- Stationary point found.

                          Input orientation:
 ---------------------------------------------------------------------
 Center     Atomic      Atomic             Coordinates (Angstroms)
 Number     Number       Type             X           Y           Z
 ---------------------------------------------------------------------
      1          6           0       -2.160220    0.000000    0.000000
      2         16           0        2.160220    0.000000    0.000000
      3          1           0        2.125277   -1.344170   -0.000952
      4          1           0       -2.120382    1.080358    0.002675
      5          1           0       -2.198543   -0.535845   -0.938166
      6          1           0       -2.198772   -0.540481    0.935494
 ---------------------------------------------------------------------

 Alpha  occ. eigenvalues --  -89.87378 -10.65171  -8.23702  -6.15741  -6.15685
 Alpha  occ. eigenvalues --   -6.15132  -0.83645  -0.75305  -0.55711  -0.55634
 Alpha  occ. eigenvalues --   -0.41854  -0.27793  -0.25877
 Alpha virt. eigenvalues --   -0.17222   0.00836   0.03610   0.03907   0.05502
 Alpha virt. eigenvalues --    0.07470   0.08351   0.08417   0.10671   0.13314
 Alpha virt. eigenvalues --    0.15339   0.15413   0.20050   0.34893   0.36497

  Beta  occ. eigenvalues --  -89.87378 -10.65171  -8.23702  -6.15741  -6.15685
  Beta  occ. eigenvalues --   -6.15132  -0.83645  -0.75305  -0.55711  -0.55634
  Beta  occ. eigenvalues --   -0.41854  -0.27793  -0.25877
  Beta virt. eigenvalues --   -0.17222   0.00836   0.03610   0.03907   0.05502
  Beta virt. eigenvalues --    0.07470   0.08351   0.08417   0.10671   0.13314
  Beta virt. eigenvalues --    0.15339   0.15413   0.20050   0.34893   0.36497

 Mulliken charges and spin densities:
               1          2
     1  C   -0.365823   0.000001
     2  S   -0.297668  -0.000001
     3  H    0.050190   0.000000
     4  H    0.206548  -0.000000
     5  H    0.203383  -0.000000
     6  H    0.203369  -0.000000
 Sum of Mulliken charges =  -0.00000   0.00000

 Dipole moment (field-independent basis, Debye):
    X=             -5.5199    Y=             -0.9558    Z=             -0.0007  Tot=              5.6020
 Quadrupole moment (field-independent basis, Debye-Ang):
   XX=            -21.0486   YY=            -19.6271   ZZ=            -23.6758
   XY=             -2.0825   XZ=             -0.0015   YZ=              0.0029

 Normal termination of Gaussian 16 at Mon Apr 21 19:38:43 2025.
