 Gaussian 16, Revision A.03,
 Gaussian 16:  ES64L-G16RevA.03 25-Dec-2016

 --------------------------------------------
 #p opt UM062X/6-311+G** nosymm int=superfine
 --------------------------------------------

 -------------------
 Title Card Required
 -------------------
 Symbolic Z-matrix:
 Charge =  1 Multiplicity = 2

 SCF Done:  E(UM062X) =  -78.1031259366     A.U. after    9 cycles
 SCF Done:  E(UM062X) =  -78.1177380592     A.U. after    8 cycles
 SCF Done:  E(UM062X) =  -78.1191818949     A.U. after    8 cycles
 SCF Done:  E(UM062X) =  -78.1191843173     A.U. after    6 cycles
 Optimization completed.
    -- Stationary point found.

                          Input orientation:
 ---------------------------------------------------------------------
 Center     Atomic      Atomic             Coordinates (Angstroms)
 Number     Number       Type             X           Y           Z
 ---------------------------------------------------------------------
      1          6           0       -0.593789    0.000000    0.000000
      2          6           0        0.593789    0.000000    0.000000
      3          1           0       -1.190877   -0.912426    0.000000
      4          1           0       -1.190875    0.912430    0.000000
      5          1           0        1.190877    0.912426   -0.000000
      6          1           0        1.190875   -0.912430   -0.000000
 ---------------------------------------------------------------------

 Alpha  occ. eigenvalues --  -10.88004 -10.87699  -1.26695  -0.96605  -0.88231
 Alpha  occ. eigenvalues --   -0.83878  -0.73568  -0.69446
 Alpha virt. eigenvalues --   -0.24756  -0.14881  -0.13957  -0.12464  -0.10578
 Alpha virt. eigenvalues --   -0.08063  -0.06517  -0.04980  -0.04147  -0.03321
 Alpha virt. eigenvalues --   -0.00008   0.03248   0.12029   0.14951   0.21097

  Beta  occ. eigenvalues --  -10.87739 -10.87448  -1.22071  -0.94764  -0.86765
  Beta  occ. eigenvalues --   -0.82957  -0.69196
  Beta virt. eigenvalues --   -0.46389  -0.18823  -0.16466  -0.13777  -0.12423
  Beta virt. eigenvalues --   -0.11268  -0.09028  -0.06557  -0.04750  -0.02971
  Beta virt. eigenvalues --   -0.02822  -0.00254   0.03441   0.12483   0.15345

 Mulliken charges and spin densities:
               1          2
     1  C   -0.041870   0.536228
     2  C   -0.041870   0.536228
     3  H    0.270935  -0.018114
     4  H    0.270935  -0.018114
     5  H    0.270935  -0.018114
     6  H    0.270935  -0.018114
 Sum of Mulliken charges =   1.00000   1.00000

 Dipole moment (field-independent basis, Debye):
    X=             -0.0000    Y=             -0.0000    Z=              0.0000  Tot=              0.0000
 Quadrupole moment (field-independent basis, Debye-Ang):
   XX=             -6.3869   YY=             -8.5186   ZZ=            -10.9714
   XY=             -0.0000   XZ=             -0.0000   YZ=              0.0000

 Normal termination of Gaussian 16 at Tue Nov 19 10:54:30 2024.
