 Gaussian 16, Revision A.03,
 Gaussian 16:  ES64L-G16RevA.03 25-Dec-2016

 --------------------------------------------
 #p opt UM062X/6-311+G** nosymm int=superfine
 --------------------------------------------

 -------------------
 Title Card Required
 -------------------
 Symbolic Z-matrix:
 Charge =  1 Multiplicity = 2

 SCF Done:  E(UM062X) =  -76.6618517360     A.U. after   11 cycles
 SCF Done:  E(UM062X) =  -76.6995130558     A.U. after   10 cycles
 SCF Done:  E(UM062X) =  -76.7466443797     A.U. after   14 cycles
 SCF Done:  E(UM062X) =  -76.7469863768     A.U. after    9 cycles
 SCF Done:  E(UM062X) =  -76.7469869687     A.U. after    6 cycles
 Optimization completed.
    -- Stationary point found.

                          Input orientation:
 ---------------------------------------------------------------------
 Center     Atomic      Atomic             Coordinates (Angstroms)
 Number     Number       Type             X           Y           Z
 ---------------------------------------------------------------------
      1          6           0       -0.832599    0.000000    0.000000
      2          6           0        0.832599    0.000000    0.000000
      3          1           0       -1.927644    0.000001   -0.000001
      4          1           0        1.927629    0.000001    0.000000
 ---------------------------------------------------------------------

 Alpha  occ. eigenvalues --  -10.99742 -10.99704  -1.10702  -0.99133  -0.84663
 Alpha  occ. eigenvalues --   -0.63966  -0.61830
 Alpha virt. eigenvalues --   -0.35917  -0.33921  -0.26910  -0.14210  -0.11149
 Alpha virt. eigenvalues --   -0.10630  -0.09136  -0.08899  -0.05302  -0.04984
 Alpha virt. eigenvalues --    0.01473   0.03834   0.07858   0.22423   0.31436

  Beta  occ. eigenvalues --  -10.99494 -10.99467  -1.06803  -0.97375  -0.83819
  Beta  occ. eigenvalues --   -0.59830
  Beta virt. eigenvalues --   -0.41028  -0.32205  -0.27830  -0.24781  -0.15262
  Beta virt. eigenvalues --   -0.11456  -0.11062  -0.09508  -0.09331  -0.05226
  Beta virt. eigenvalues --   -0.04919   0.00611   0.03939   0.08196   0.23171

 Mulliken charges and spin densities:
               1          2
     1  C    0.140233   0.521632
     2  C    0.140231   0.521630
     3  H    0.359771  -0.021631
     4  H    0.359765  -0.021631
 Sum of Mulliken charges =   1.00000   1.00000

 Dipole moment (field-independent basis, Debye):
    X=             -0.0000    Y=              0.0000    Z=             -0.0000  Tot=              0.0000
 Quadrupole moment (field-independent basis, Debye-Ang):
   XX=              2.9002   YY=            -11.4306   ZZ=            -11.8954
   XY=             -0.0000   XZ=              0.0000   YZ=              1.0093

 Normal termination of Gaussian 16 at Tue Nov 19 13:14:20 2024.
