 Gaussian 16, Revision A.03,
 Gaussian 16:  ES64L-G16RevA.03 25-Dec-2016

 --------------------------------------------
 #p opt UM062X/6-311+G** nosymm int=superfine
 --------------------------------------------

 -------------------
 Title Card Required
 -------------------
 Symbolic Z-matrix:
 Charge =  0 Multiplicity = 1

 SCF Done:  E(UM062X) =  -579.899482259     A.U. after   10 cycles
 SCF Done:  E(UM062X) =  -579.904840793     A.U. after    9 cycles
 SCF Done:  E(UM062X) =  -579.904911715     A.U. after   10 cycles
 SCF Done:  E(UM062X) =  -579.904912279     A.U. after    8 cycles
 SCF Done:  E(UM062X) =  -579.923939451     A.U. after   18 cycles
 SCF Done:  E(UM062X) =  -579.953412829     A.U. after   13 cycles
 SCF Done:  E(UM062X) =  -579.986155836     A.U. after   10 cycles
 SCF Done:  E(UM062X) =  -579.987742434     A.U. after   10 cycles
 SCF Done:  E(UM062X) =  -579.987751315     A.U. after    8 cycles
 SCF Done:  E(UM062X) =  -579.987753703     A.U. after    7 cycles
 Optimization completed.
    -- Stationary point found.

                          Input orientation:
 ---------------------------------------------------------------------
 Center     Atomic      Atomic             Coordinates (Angstroms)
 Number     Number       Type             X           Y           Z
 ---------------------------------------------------------------------
      1         14           0       -1.403705    0.000000    0.000000
      2         14           0        1.403705    0.000000    0.000000
      3          1           0       -1.473510    1.517482    0.000136
      4          1           0        1.473395    1.517488   -0.000033
 ---------------------------------------------------------------------

 Alpha  occ. eigenvalues --  -67.02439 -67.02439  -5.56958  -5.56958  -3.88152
 Alpha  occ. eigenvalues --   -3.88152  -3.87628  -3.87623  -3.87510  -3.87508
 Alpha  occ. eigenvalues --   -0.57241  -0.51606  -0.35153  -0.29441  -0.23469
 Alpha virt. eigenvalues --   -0.11069  -0.05491  -0.00361   0.02192   0.03719
 Alpha virt. eigenvalues --    0.04061   0.05414   0.05667   0.06360   0.06729
 Alpha virt. eigenvalues --    0.07660   0.10341   0.13047   0.27914   0.29544

  Beta  occ. eigenvalues --  -67.02439 -67.02439  -5.56958  -5.56958  -3.88152
  Beta  occ. eigenvalues --   -3.88152  -3.87628  -3.87623  -3.87510  -3.87508
  Beta  occ. eigenvalues --   -0.57241  -0.51606  -0.35153  -0.29441  -0.23469
  Beta virt. eigenvalues --   -0.11069  -0.05491  -0.00361   0.02192   0.03719
  Beta virt. eigenvalues --    0.04061   0.05414   0.05667   0.06360   0.06729
  Beta virt. eigenvalues --    0.07660   0.10341   0.13047   0.27914   0.29544

 Mulliken charges and spin densities:
               1          2
     1  Si   0.152499   0.000000
     2  Si   0.152513  -0.000000
     3  H   -0.152505  -0.000000
     4  H   -0.152507  -0.000000
 Sum of Mulliken charges =  -0.00000   0.00000

 Dipole moment (field-independent basis, Debye):
    X=              0.0001    Y=              0.5508    Z=              0.0000  Tot=              0.5508
 Quadrupole moment (field-independent basis, Debye-Ang):
   XX=            -35.3041   YY=            -33.0808   ZZ=            -22.9944
   XY=             -0.0002   XZ=             -0.0002   YZ=             -0.0003

 Normal termination of Gaussian 16 at Mon Apr 21 21:25:04 2025.
