 Gaussian 16, Revision A.03,
 Gaussian 16:  ES64L-G16RevA.03 25-Dec-2016

 ---------------------------------------
 #p UM062X/6-311+G** force int=superfine
 ---------------------------------------

 -------------------
 Title Card Required
 -------------------
 Symbolic Z-matrix:
 Charge =  1 Multiplicity = 2

                         Standard orientation:
 ---------------------------------------------------------------------
 Center     Atomic      Atomic             Coordinates (Angstroms)
 Number     Number       Type             X           Y           Z
 ---------------------------------------------------------------------
      1          6           0        1.105081   -0.618335    1.087526
      2          6           0       -1.105077    0.618342   -1.087520
      3          1           0       -0.334385    0.808939   -1.825849
      4          1           0        1.401122   -1.403824    0.401385
      5          1           0       -1.401842    1.403984   -0.401868
      6          1           0       -1.659926   -0.312700   -1.114401
      7          1           0        0.334440   -0.808759    1.825952
      8          1           0        1.660563    0.312320    1.114750
 ---------------------------------------------------------------------

 SCF Done:  E(UM062X) =  -79.3301711393     A.U. after   10 cycles

 The electronic state is 2-A.
 Alpha  occ. eigenvalues --  -10.84613 -10.84611  -1.03305  -1.02399  -0.74147
 Alpha  occ. eigenvalues --   -0.74146  -0.73744  -0.73743  -0.50698
 Alpha virt. eigenvalues --   -0.36461  -0.13560  -0.10209  -0.10061  -0.10060
 Alpha virt. eigenvalues --   -0.06245  -0.06245  -0.04829  -0.03266  -0.01390
 Alpha virt. eigenvalues --   -0.01388   0.01271   0.01274   0.04172   0.07912

  Beta  occ. eigenvalues --  -10.84409 -10.84409  -1.00559  -0.99956  -0.73635
  Beta  occ. eigenvalues --   -0.73634  -0.73230  -0.73230
  Beta virt. eigenvalues --   -0.32653  -0.26153  -0.15550  -0.11141  -0.11140
  Beta virt. eigenvalues --   -0.10079  -0.06352  -0.06352  -0.05159  -0.02358
  Beta virt. eigenvalues --   -0.01731  -0.01728   0.01564   0.01567   0.04880

 Mulliken charges and spin densities:
               1          2
     1  C   -0.267678   0.562843
     2  C   -0.267680   0.562846
     3  H    0.255910  -0.020951
     4  H    0.255867  -0.020952
     5  H    0.255893  -0.020951
     6  H    0.255875  -0.020943
     7  H    0.255912  -0.020951
     8  H    0.255900  -0.020942
 Sum of Mulliken charges =   1.00000   1.00000

 Dipole moment (field-independent basis, Debye):
    X=             -0.0000    Y=             -0.0001    Z=             -0.0000  Tot=              0.0001
 Quadrupole moment (field-independent basis, Debye-Ang):
   XX=             -5.2108   YY=             -9.2334   ZZ=             -5.3920
   XY=             -3.2780   XZ=              5.7659   YZ=             -3.2269

 Normal termination of Gaussian 16 at Wed Nov 13 13:03:11 2024.
