 Gaussian 16, Revision A.03,
 Gaussian 16:  ES64L-G16RevA.03 25-Dec-2016

 --------------------------------------------
 #p opt UM062X/6-311+G** nosymm int=superfine
 --------------------------------------------

 -------------------
 Title Card Required
 -------------------
 Symbolic Z-matrix:
 Charge =  1 Multiplicity = 2

 SCF Done:  E(UM062X) =  -79.3645580590     A.U. after    9 cycles
 SCF Done:  E(UM062X) =  -79.3673184137     A.U. after    8 cycles
 SCF Done:  E(UM062X) =  -79.3673678221     A.U. after    8 cycles
 Optimization completed.
    -- Stationary point found.

                          Input orientation:
 ---------------------------------------------------------------------
 Center     Atomic      Atomic             Coordinates (Angstroms)
 Number     Number       Type             X           Y           Z
 ---------------------------------------------------------------------
      1          6           0       -1.070004    0.000000    0.000000
      2          6           0        1.070004    0.000000    0.000000
      3          1           0        1.187844   -0.933584    0.540276
      4          1           0       -1.187223   -0.934709   -0.538475
      5          1           0        1.187498    0.934758    0.538329
      6          1           0        1.187184   -0.001103   -1.078724
      7          1           0       -1.187858    0.933630   -0.540195
      8          1           0       -1.187444    0.000956    1.078696
 ---------------------------------------------------------------------

 Alpha  occ. eigenvalues --  -10.86014 -10.86005  -1.09406  -1.01807  -0.78106
 Alpha  occ. eigenvalues --   -0.78104  -0.73930  -0.73929  -0.61501
 Alpha virt. eigenvalues --   -0.26245  -0.16238  -0.11035  -0.11035  -0.09905
 Alpha virt. eigenvalues --   -0.07047  -0.06345  -0.06345  -0.05179  -0.05177
 Alpha virt. eigenvalues --   -0.02188   0.01659   0.01662   0.04600   0.07332

  Beta  occ. eigenvalues --  -10.85801 -10.85800  -1.06003  -0.98974  -0.77186
  Beta  occ. eigenvalues --   -0.77185  -0.73179  -0.73178
  Beta virt. eigenvalues --   -0.38390  -0.18905  -0.15991  -0.11099  -0.11098
  Beta virt. eigenvalues --   -0.08634  -0.07188  -0.06613  -0.06613  -0.04781
  Beta virt. eigenvalues --   -0.04779  -0.01337   0.02258   0.02261   0.05067

 Mulliken charges and spin densities:
               1          2
     1  C   -0.312286   0.556212
     2  C   -0.312286   0.556212
     3  H    0.270772  -0.018755
     4  H    0.270749  -0.018731
     5  H    0.270760  -0.018736
     6  H    0.270754  -0.018721
     7  H    0.270772  -0.018756
     8  H    0.270765  -0.018726
 Sum of Mulliken charges =   1.00000   1.00000

 Dipole moment (field-independent basis, Debye):
    X=              0.0000    Y=             -0.0000    Z=             -0.0000  Tot=              0.0000
 Quadrupole moment (field-independent basis, Debye-Ang):
   XX=             -5.8466   YY=            -10.8102   ZZ=            -10.8102
   XY=             -0.0006   XZ=              0.0003   YZ=              0.0000

 Normal termination of Gaussian 16 at Wed Nov 13 13:25:47 2024.
