 Gaussian 16, Revision A.03,
 Gaussian 16:  ES64L-G16RevA.03 25-Dec-2016

 --------------------------------------------
 #p opt UM062X/6-311+G** nosymm int=superfine
 --------------------------------------------

 -------------------
 Title Card Required
 -------------------
 Symbolic Z-matrix:
 Charge =  1 Multiplicity = 2

 SCF Done:  E(UM062X) =  -76.5865668098     A.U. after   11 cycles
 SCF Done:  E(UM062X) =  -76.5869401371     A.U. after    9 cycles
 Optimization completed.
    -- Stationary point found.

                          Input orientation:
 ---------------------------------------------------------------------
 Center     Atomic      Atomic             Coordinates (Angstroms)
 Number     Number       Type             X           Y           Z
 ---------------------------------------------------------------------
      1          6           0       -1.582160    0.000000    0.000000
      2          6           0        1.582160    0.000000    0.000000
      3          1           0       -2.700643   -0.000000   -0.000000
      4          1           0        2.700642    0.000000   -0.000000
 ---------------------------------------------------------------------

 Alpha  occ. eigenvalues --  -10.95111 -10.95110  -0.98876  -0.98464  -0.66004
 Alpha  occ. eigenvalues --   -0.62096  -0.49672
 Alpha virt. eigenvalues --   -0.40235  -0.34334  -0.33332  -0.12803  -0.11594
 Alpha virt. eigenvalues --   -0.07984  -0.07461  -0.05571  -0.05032  -0.04638
 Alpha virt. eigenvalues --   -0.01440   0.00181   0.05995   0.23461   0.31170

  Beta  occ. eigenvalues --  -10.94711 -10.94710  -0.96474  -0.96215  -0.64694
  Beta  occ. eigenvalues --   -0.60670
  Beta virt. eigenvalues --   -0.32593  -0.31411  -0.31027  -0.29753  -0.13331
  Beta virt. eigenvalues --   -0.11514  -0.07514  -0.06802  -0.06416  -0.04333
  Beta virt. eigenvalues --   -0.03420  -0.02127   0.01890   0.07362   0.22742

 Mulliken charges and spin densities:
               1          2
     1  C    0.256722   0.516375
     2  C    0.256722   0.516375
     3  H    0.243278  -0.016375
     4  H    0.243278  -0.016375
 Sum of Mulliken charges =   1.00000   1.00000

 Dipole moment (field-independent basis, Debye):
    X=             -0.0000    Y=              0.0000    Z=             -0.0000  Tot=              0.0000
 Quadrupole moment (field-independent basis, Debye-Ang):
   XX=             14.4084   YY=            -10.9274   ZZ=            -10.1372
   XY=              0.0000   XZ=             -0.0000   YZ=              0.9422

 Normal termination of Gaussian 16 at Tue Dec  3 11:28:47 2024.
