 Gaussian 16, Revision A.03,
 Gaussian 16:  ES64L-G16RevA.03 25-Dec-2016

 ---------------------------------------
 #p UM062X/6-311+G** force int=superfine
 ---------------------------------------

 -------------------
 Title Card Required
 -------------------
 Symbolic Z-matrix:
 Charge =  1 Multiplicity = 2

                         Standard orientation:
 ---------------------------------------------------------------------
 Center     Atomic      Atomic             Coordinates (Angstroms)
 Number     Number       Type             X           Y           Z
 ---------------------------------------------------------------------
      1          6           0        1.097252   -0.601680    1.061052
      2          6           0       -1.097248    0.601688   -1.061047
      3          1           0       -0.333317    0.801639   -1.803915
      4          1           0        1.397170   -1.383020    0.371862
      5          1           0       -1.397876    1.383166   -0.372324
      6          1           0       -1.645220   -0.333397   -1.088697
      7          1           0        0.333370   -0.801462    1.804017
      8          1           0        1.645846    0.333029    1.089026
 ---------------------------------------------------------------------

 SCF Done:  E(UM062X) =  -79.3317044081     A.U. after   10 cycles

 The electronic state is 2-A.
 Alpha  occ. eigenvalues --  -10.84702 -10.84700  -1.03444  -1.02444  -0.74254
 Alpha  occ. eigenvalues --   -0.74254  -0.73802  -0.73802  -0.51048
 Alpha virt. eigenvalues --   -0.36287  -0.13655  -0.10202  -0.10111  -0.10111
 Alpha virt. eigenvalues --   -0.06244  -0.06244  -0.04916  -0.03274  -0.01535
 Alpha virt. eigenvalues --   -0.01532   0.01280   0.01282   0.04342   0.07850

  Beta  occ. eigenvalues --  -10.84500 -10.84500  -1.00676  -1.00010  -0.73739
  Beta  occ. eigenvalues --   -0.73738  -0.73290  -0.73290
  Beta virt. eigenvalues --   -0.32631  -0.26058  -0.15507  -0.11140  -0.11140
  Beta virt. eigenvalues --   -0.10055  -0.06368  -0.06367  -0.05218  -0.02371
  Beta virt. eigenvalues --   -0.01865  -0.01862   0.01577   0.01579   0.05153

 Mulliken charges and spin densities:
               1          2
     1  C   -0.268739   0.563809
     2  C   -0.268742   0.563812
     3  H    0.256272  -0.021265
     4  H    0.256228  -0.021265
     5  H    0.256254  -0.021264
     6  H    0.256214  -0.021282
     7  H    0.256274  -0.021265
     8  H    0.256239  -0.021281
 Sum of Mulliken charges =   1.00000   1.00000

 Dipole moment (field-independent basis, Debye):
    X=             -0.0000    Y=             -0.0001    Z=             -0.0000  Tot=              0.0001
 Quadrupole moment (field-independent basis, Debye-Ang):
   XX=             -5.2913   YY=             -9.3256   ZZ=             -5.6625
   XY=             -3.1648   XZ=              5.5814   YZ=             -3.0612

 Normal termination of Gaussian 16 at Wed Nov 13 12:59:33 2024.
