 Gaussian 16, Revision A.03,
 Gaussian 16:  ES64L-G16RevA.03 25-Dec-2016

 ----------------------------------------------------------------------
 #p opt UM062X/6-311+G** nosymm int=superfine SCF=(MaxCycle=200,NoVarAc
 c,noincfock) guess=read
 ----------------------------------------------------------------------

 -------------------
 Title Card Required
 -------------------
 Symbolic Z-matrix:
 Charge =  0 Multiplicity = 1

 SCF Done:  E(UM062X) =  -80.5337714751     A.U. after   16 cycles
 SCF Done:  E(UM062X) =  -80.5342648281     A.U. after   17 cycles
 SCF Done:  E(UM062X) =  -80.5347004578     A.U. after   16 cycles
 SCF Done:  E(UM062X) =  -80.5347071131     A.U. after   14 cycles
 SCF Done:  E(UM062X) =  -80.5347075065     A.U. after   17 cycles
 Optimization completed.
    -- Stationary point found.

                          Input orientation:
 ---------------------------------------------------------------------
 Center     Atomic      Atomic             Coordinates (Angstroms)
 Number     Number       Type             X           Y           Z
 ---------------------------------------------------------------------
      1          5           0       -1.052734    0.000000    0.000000
      2          7           0        1.052734    0.000000    0.000000
      3          1           0       -2.219069   -0.178212    0.018657
      4          1           0        1.108402    1.029850   -0.109940
 ---------------------------------------------------------------------

 Alpha  occ. eigenvalues --  -14.80428  -7.16597  -0.90427  -0.56396  -0.45705
 Alpha  occ. eigenvalues --   -0.37954  -0.36109
 Alpha virt. eigenvalues --   -0.05921  -0.04166  -0.02712   0.01469   0.04723
 Alpha virt. eigenvalues --    0.06791   0.07587   0.12409   0.14666   0.16262
 Alpha virt. eigenvalues --    0.18443   0.22728   0.24543   0.35871   0.37952

  Beta  occ. eigenvalues --  -14.79196  -7.17344  -0.84460  -0.59275  -0.43010
  Beta  occ. eigenvalues --   -0.35726  -0.25229
  Beta virt. eigenvalues --   -0.07665  -0.05779  -0.01931   0.02013   0.04233
  Beta virt. eigenvalues --    0.05381   0.05763   0.12671   0.15462   0.18467
  Beta virt. eigenvalues --    0.19670   0.23011   0.24796   0.37791   0.38597

 Mulliken charges and spin densities:
               1          2
     1  B    0.032635  -1.049859
     2  N   -0.311233   1.117950
     3  H    0.092274  -0.024384
     4  H    0.186324  -0.043707
 Sum of Mulliken charges =  -0.00000  -0.00000

 Dipole moment (field-independent basis, Debye):
    X=             -2.4991    Y=              1.3528    Z=             -0.1450  Tot=              2.8455
 Quadrupole moment (field-independent basis, Debye-Ang):
   XX=            -12.0906   YY=            -11.9099   ZZ=            -15.6667
   XY=              1.9694   XZ=             -0.2099   YZ=             -0.4059

 Normal termination of Gaussian 16 at Mon Apr 21 23:26:55 2025.
