 Gaussian 16, Revision A.03,
 Gaussian 16:  ES64L-G16RevA.03 25-Dec-2016

 --------------------------------------------
 #p opt UM062X/6-311+G** nosymm int=superfine
 --------------------------------------------

 -------------------
 Title Card Required
 -------------------
 Symbolic Z-matrix:
 Charge =  1 Multiplicity = 2

 SCF Done:  E(UM062X) =  -1615.53753625     A.U. after   29 cycles
 SCF Done:  E(UM062X) =  -1615.54407065     A.U. after   26 cycles
 SCF Done:  E(UM062X) =  -1615.54419297     A.U. after   23 cycles
 SCF Done:  E(UM062X) =  -1615.54395897     A.U. after   27 cycles
 SCF Done:  E(UM062X) =  -1615.54063717     A.U. after   30 cycles
 SCF Done:  E(UM062X) =  -1615.54410976     A.U. after   27 cycles
 SCF Done:  E(UM062X) =  -1615.54423883     A.U. after   14 cycles
 SCF Done:  E(UM062X) =  -1615.54427563     A.U. after   22 cycles
 SCF Done:  E(UM062X) =  -1615.54428104     A.U. after   22 cycles
 SCF Done:  E(UM062X) =  -1615.54428390     A.U. after   22 cycles
 SCF Done:  E(UM062X) =  -1615.54428497     A.U. after   21 cycles
 SCF Done:  E(UM062X) =  -1615.54428532     A.U. after   20 cycles
 SCF Done:  E(UM062X) =  -1615.54428542     A.U. after   19 cycles
 SCF Done:  E(UM062X) =  -1615.54428545     A.U. after   19 cycles
 Optimization completed.
    -- Stationary point found.

                          Input orientation:
 ---------------------------------------------------------------------
 Center     Atomic      Atomic             Coordinates (Angstroms)
 Number     Number       Type             X           Y           Z
 ---------------------------------------------------------------------
      1          6           0       -1.897414    0.000000    0.000000
      2          6           0        1.897414    0.000000    0.000000
      3          6           0        0.000151   -1.972622   -0.006490
      4          6           0        0.000061   -3.384485   -0.010854
      5          6           0       -1.115138   -4.233909    0.241336
      6          6           0       -1.353041   -1.412656    0.189598
      7          6           0        0.655905   -5.624979   -0.172751
      8          1           0        1.285950   -6.489049   -0.328078
      9          6           0       -1.921851    0.800370    1.193087
     10          6           0       -0.656003   -5.625918    0.136883
     11          1           0       -1.286109   -6.490898    0.286790
     12          6           0        1.115170   -4.232376   -0.268416
     13          6           0        1.353355   -1.411396   -0.199111
     14          6           0        2.479902    2.123418   -1.322488
     15          6           0       -2.200841    0.329862   -1.365988
     16          6           0       -2.438549    2.745528    2.592819
     17          1           0       -2.882471    3.729924    2.682301
     18          6           0       -2.323815   -3.673528    0.526099
     19          1           0       -3.205577   -4.262708    0.748451
     20          6           0       -2.723631    1.577019   -1.845303
     21          6           0        2.406096   -2.261137   -0.489224
     22          1           0        3.382179   -1.809166   -0.633806
     23          6           0        2.199620    0.320888    1.368512
     24          6           0        2.719299    1.565803    1.856806
     25          6           0        2.323809   -3.670279   -0.549971
     26          1           0        3.205475   -4.258133   -0.776190
     27          6           0       -2.480262    2.114257    1.336827
     28          6           0       -1.328239    0.235857    2.362847
     29          1           0       -0.901562   -0.754027    2.309542
     30          6           0        1.937856   -0.682268    2.353098
     31          1           0        1.597589   -1.657795    2.039796
     32          6           0       -1.847152    2.165415    3.695535
     33          1           0       -1.830211    2.687471    4.644187
     34          6           0       -2.405988   -2.264030    0.474148
     35          1           0       -3.382093   -1.812969    0.621444
     36          6           0       -2.880223    1.769878   -3.230371
     37          1           0       -3.271917    2.721448   -3.569754
     38          6           0        1.922297    0.808291   -1.187902
     39          6           0       -3.089628    2.894381    0.292678
     40          1           0       -3.514110    3.832156    0.636869
     41          6           0       -2.572823    0.795221   -4.155434
     42          1           0       -2.713968    0.981714   -5.213035
     43          6           0       -3.168946    2.680843   -1.035151
     44          1           0       -3.643155    3.474802   -1.603226
     45          6           0        2.874040    1.749666    3.243221
     46          1           0        3.263150    2.699864    3.589381
     47          6           0       -1.277438    0.895339    3.568456
     48          1           0       -0.802998    0.418586    4.417549
     49          6           0       -1.937184   -0.665885   -2.357642
     50          1           0       -1.594189   -1.642637   -2.051248
     51          6           0        2.568423    0.767932    4.161505
     52          1           0        2.708327    0.947566    5.220455
     53          6           0        2.439762    2.762599   -2.574427
     54          1           0        2.883222    3.747820   -2.656928
     55          6           0        2.111890   -0.470553    3.700543
     56          1           0        1.900745   -1.271891    4.398466
     57          6           0        1.850416    2.189233   -3.681865
     58          1           0        1.834776    2.717277   -4.627214
     59          6           0        3.086510    2.897702   -0.272117
     60          1           0        3.510327    3.838209   -0.609615
     61          6           0       -2.112518   -0.445243   -3.703395
     62          1           0       -1.899552   -1.241041   -4.407065
     63          6           0        3.163682    2.675888    1.054368
     64          1           0        3.635680    3.466915    1.628354
     65          6           0        1.330465    0.251135   -2.362002
     66          1           0        0.904236   -0.739301   -2.315672
     67          6           0        1.281085    0.918245   -3.563579
     68          1           0        0.808115    0.446601   -4.416355
 ---------------------------------------------------------------------

 Alpha  occ. eigenvalues --  -10.70703 -10.70641 -10.68527 -10.68489 -10.68363
 Alpha  occ. eigenvalues --  -10.68325 -10.68314 -10.68116 -10.68071 -10.67897
 Alpha  occ. eigenvalues --  -10.67850 -10.67769 -10.67754 -10.66356 -10.66313
 Alpha  occ. eigenvalues --  -10.66248 -10.66205 -10.65834 -10.65797 -10.65762
 Alpha  occ. eigenvalues --  -10.65727 -10.65603 -10.65564 -10.65500 -10.65467
 Alpha  occ. eigenvalues --  -10.65425 -10.65392 -10.65331 -10.65301 -10.65245
 Alpha  occ. eigenvalues --  -10.65211 -10.65160 -10.65131 -10.65126 -10.65119
 Alpha  occ. eigenvalues --  -10.65048 -10.65036 -10.64731 -10.64726 -10.64064
 Alpha  occ. eigenvalues --  -10.63594 -10.63492  -1.11376  -1.10377  -1.09717
 Alpha  occ. eigenvalues --   -1.07926  -1.07775  -1.04958  -1.04796  -1.02153
 Alpha  occ. eigenvalues --   -1.02026  -1.00947  -0.99917  -0.97705  -0.97491
 Alpha  occ. eigenvalues --   -0.96378  -0.96211  -0.94718  -0.93465  -0.93303
 Alpha  occ. eigenvalues --   -0.92719  -0.91523  -0.87053  -0.86845  -0.84729
 Alpha  occ. eigenvalues --   -0.84596  -0.82941  -0.81339  -0.80579  -0.79638
 Alpha  occ. eigenvalues --   -0.79447  -0.79322  -0.76946  -0.76095  -0.75924
 Alpha  occ. eigenvalues --   -0.75723  -0.75104  -0.73073  -0.69731  -0.69415
 Alpha  occ. eigenvalues --   -0.68497  -0.68443  -0.67655  -0.67456  -0.66651
 Alpha  occ. eigenvalues --   -0.66622  -0.65665  -0.65218  -0.65009  -0.64399
 Alpha  occ. eigenvalues --   -0.63183  -0.62725  -0.62343  -0.61792  -0.60684
 Alpha  occ. eigenvalues --   -0.60582  -0.60311  -0.60015  -0.59764  -0.59525
 Alpha  occ. eigenvalues --   -0.59192  -0.58469  -0.58208  -0.57885  -0.57625
 Alpha  occ. eigenvalues --   -0.57332  -0.56077  -0.55831  -0.55513  -0.55465
 Alpha  occ. eigenvalues --   -0.54841  -0.54783  -0.52815  -0.52644  -0.52544
 Alpha  occ. eigenvalues --   -0.52270  -0.52102  -0.51765  -0.50806  -0.50783
 Alpha  occ. eigenvalues --   -0.50593  -0.49716  -0.49680  -0.49458  -0.48611
 Alpha  occ. eigenvalues --   -0.48600  -0.47978  -0.47891  -0.46363  -0.44095
 Alpha  occ. eigenvalues --   -0.43114  -0.42729  -0.41218  -0.40266  -0.38730
 Alpha  occ. eigenvalues --   -0.37944  -0.37819  -0.36918  -0.28735
 Alpha virt. eigenvalues --   -0.22257  -0.15235  -0.15109  -0.14731  -0.10255
 Alpha virt. eigenvalues --   -0.09086  -0.08710  -0.08545  -0.08186  -0.07748
 Alpha virt. eigenvalues --   -0.07266  -0.07140  -0.06648  -0.06198  -0.06106

  Beta  occ. eigenvalues --  -10.70542 -10.70477 -10.68572 -10.68535 -10.68409
  Beta  occ. eigenvalues --  -10.68372 -10.68286 -10.68076 -10.68030 -10.67850
  Beta  occ. eigenvalues --  -10.67803 -10.67787 -10.67773 -10.66349 -10.66306
  Beta  occ. eigenvalues --  -10.66240 -10.66197 -10.65798 -10.65760 -10.65729
  Beta  occ. eigenvalues --  -10.65694 -10.65560 -10.65521 -10.65460 -10.65442
  Beta  occ. eigenvalues --  -10.65427 -10.65410 -10.65347 -10.65316 -10.65267
  Beta  occ. eigenvalues --  -10.65233 -10.65178 -10.65150 -10.65120 -10.65113
  Beta  occ. eigenvalues --  -10.65037 -10.65025 -10.64731 -10.64726 -10.64062
  Beta  occ. eigenvalues --  -10.63594 -10.63492  -1.11245  -1.10198  -1.09638
  Beta  occ. eigenvalues --   -1.07822  -1.07675  -1.04806  -1.04631  -1.02037
  Beta  occ. eigenvalues --   -1.01916  -1.00767  -0.99753  -0.97600  -0.97386
  Beta  occ. eigenvalues --   -0.96271  -0.96117  -0.94678  -0.93394  -0.93201
  Beta  occ. eigenvalues --   -0.92638  -0.91442  -0.86739  -0.86496  -0.84662
  Beta  occ. eigenvalues --   -0.84530  -0.82866  -0.81248  -0.80481  -0.79562
  Beta  occ. eigenvalues --   -0.79370  -0.79243  -0.76841  -0.75974  -0.75753
  Beta  occ. eigenvalues --   -0.75555  -0.75044  -0.72968  -0.69608  -0.69266
  Beta  occ. eigenvalues --   -0.68391  -0.68355  -0.67607  -0.67409  -0.66533
  Beta  occ. eigenvalues --   -0.66501  -0.65548  -0.65068  -0.64859  -0.64307
  Beta  occ. eigenvalues --   -0.63010  -0.62665  -0.62238  -0.61718  -0.60554
  Beta  occ. eigenvalues --   -0.60454  -0.60196  -0.59928  -0.59703  -0.59339
  Beta  occ. eigenvalues --   -0.58989  -0.58406  -0.58008  -0.57775  -0.57400
  Beta  occ. eigenvalues --   -0.57256  -0.55738  -0.55585  -0.55439  -0.55403
  Beta  occ. eigenvalues --   -0.54773  -0.54489  -0.52713  -0.52543  -0.52488
  Beta  occ. eigenvalues --   -0.52159  -0.51985  -0.51746  -0.50745  -0.50694
  Beta  occ. eigenvalues --   -0.50501  -0.49581  -0.49484  -0.49157  -0.48315
  Beta  occ. eigenvalues --   -0.48242  -0.47936  -0.46850  -0.45616  -0.43708
  Beta  occ. eigenvalues --   -0.42687  -0.42066  -0.40935  -0.40176  -0.38237
  Beta  occ. eigenvalues --   -0.37768  -0.37363  -0.36912
  Beta virt. eigenvalues --   -0.19585  -0.18628  -0.15225  -0.15150  -0.14809
  Beta virt. eigenvalues --   -0.10042  -0.08669  -0.08305  -0.08215  -0.08132
  Beta virt. eigenvalues --   -0.07420  -0.07310  -0.07123  -0.06630  -0.06234

 Mulliken charges and spin densities:
               1          2
     1  C    0.049443   0.303978
     2  C    0.049024   0.308346
     3  C    0.129600   0.007919
     4  C    0.068922  -0.008607
     5  C    0.025199   0.008102
     6  C    0.331839  -0.015612
     7  C   -0.264524   0.001283
     8  H    0.175644   0.000004
     9  C   -0.039731  -0.111528
    10  C   -0.264514   0.001253
    11  H    0.175628   0.000004
    12  C    0.025329   0.008175
    13  C    0.331664  -0.015790
    14  C    0.390366   0.103606
    15  C    0.318926  -0.072109
    16  C   -0.174011  -0.035295
    17  H    0.174959   0.001050
    18  C   -0.386292   0.003917
    19  H    0.173845  -0.000006
    20  C    0.408985   0.087378
    21  C   -0.487582   0.019421
    22  H    0.167243   0.000484
    23  C    0.317997  -0.072755
    24  C    0.408466   0.088418
    25  C   -0.387416   0.004013
    26  H    0.173837  -0.000005
    27  C    0.391332   0.102476
    28  C    0.192899   0.088800
    29  H    0.188182  -0.006545
    30  C   -0.265531   0.044371
    31  H    0.233892  -0.004579
    32  C   -0.463114   0.081691
    33  H    0.180323  -0.003901
    34  C   -0.488471   0.019247
    35  H    0.167122   0.000490
    36  C   -0.180339  -0.037358
    37  H    0.170297   0.000765
    38  C   -0.039660  -0.112265
    39  C   -0.428563   0.012514
    40  H    0.177532  -0.001084
    41  C   -0.195937   0.069948
    42  H    0.180456  -0.003340
    43  C   -0.324656   0.026807
    44  H    0.178605  -0.001290
    45  C   -0.180161  -0.038076
    46  H    0.170097   0.000782
    47  C   -0.005604  -0.038532
    48  H    0.164913   0.001881
    49  C   -0.264754   0.043428
    50  H    0.234215  -0.004549
    51  C   -0.195568   0.071220
    52  H    0.180324  -0.003401
    53  C   -0.172048  -0.035891
    54  H    0.174870   0.001065
    55  C   -0.439056  -0.027547
    56  H    0.174491   0.000966
    57  C   -0.464140   0.082884
    58  H    0.180204  -0.003958
    59  C   -0.429397   0.012802
    60  H    0.177366  -0.001101
    61  C   -0.439434  -0.026721
    62  H    0.174569   0.000948
    63  C   -0.325213   0.027112
    64  H    0.178455  -0.001303
    65  C    0.194757   0.089362
    66  H    0.187820  -0.006579
    67  C   -0.008624  -0.039078
    68  H    0.164703   0.001892
 Sum of Mulliken charges =   1.00000   1.00000

 Dipole moment (field-independent basis, Debye):
    X=             -0.0508    Y=              2.8458    Z=              0.0051  Tot=              2.8462
 Quadrupole moment (field-independent basis, Debye-Ang):
   XX=           -203.4805   YY=           -179.3266   ZZ=           -178.8487
   XY=             -0.1309   XZ=              8.5294   YZ=              0.0306

 Normal termination of Gaussian 16 at Thu Nov 21 10:02:41 2024.
