 Gaussian 16, Revision A.03,
 Gaussian 16:  ES64L-G16RevA.03 25-Dec-2016

 --------------------------------------------
 #p opt UM062X/6-311+G** nosymm int=superfine
 --------------------------------------------

 -------------------
 Title Card Required
 -------------------
 Symbolic Z-matrix:
 Charge =  0 Multiplicity = 1

 SCF Done:  E(UM062X) =  -83.1217368990     A.U. after   10 cycles
 SCF Done:  E(UM062X) =  -83.1374180069     A.U. after    9 cycles
 SCF Done:  E(UM062X) =  -83.1409108460     A.U. after    9 cycles
 SCF Done:  E(UM062X) =  -83.1409372615     A.U. after    7 cycles
 Optimization completed.
    -- Stationary point found.

                          Input orientation:
 ---------------------------------------------------------------------
 Center     Atomic      Atomic             Coordinates (Angstroms)
 Number     Number       Type             X           Y           Z
 ---------------------------------------------------------------------
      1          5           0       -1.927429    0.000000    0.000000
      2          7           0        1.927429    0.000000    0.000000
      3          1           0        2.291770   -0.945183    0.000002
      4          1           0       -1.939978   -0.593934    1.028688
      5          1           0        2.291671    0.472639   -0.818573
      6          1           0        2.291658    0.472637    0.818580
      7          1           0       -1.939991    1.187833    0.000014
      8          1           0       -1.939995   -0.593912   -1.028700
 ---------------------------------------------------------------------

 Alpha  occ. eigenvalues --  -14.72904  -7.04225  -0.96170  -0.57453  -0.53999
 Alpha  occ. eigenvalues --   -0.53999  -0.39875  -0.39874  -0.34270
 Alpha virt. eigenvalues --   -0.02061   0.02558   0.04780   0.04780   0.05119
 Alpha virt. eigenvalues --    0.08515   0.10731   0.10731   0.17392   0.17919
 Alpha virt. eigenvalues --    0.17920   0.19197   0.19197   0.22608   0.27345

  Beta  occ. eigenvalues --  -14.72904  -7.04225  -0.96170  -0.57453  -0.53999
  Beta  occ. eigenvalues --   -0.53999  -0.39875  -0.39874  -0.34270
  Beta virt. eigenvalues --   -0.02061   0.02558   0.04780   0.04780   0.05119
  Beta virt. eigenvalues --    0.08515   0.10731   0.10731   0.17392   0.17919
  Beta virt. eigenvalues --    0.17920   0.19197   0.19197   0.22608   0.27345

 Mulliken charges and spin densities:
               1          2
     1  B    0.019240   0.000000
     2  N   -0.730509  -0.000000
     3  H    0.245353   0.000000
     4  H   -0.008264   0.000000
     5  H    0.245353   0.000000
     6  H    0.245353   0.000000
     7  H   -0.008262  -0.000000
     8  H   -0.008264  -0.000000
 Sum of Mulliken charges =  -0.00000  -0.00000

 Dipole moment (field-independent basis, Debye):
    X=              1.9520    Y=              0.0002    Z=              0.0000  Tot=              1.9520
 Quadrupole moment (field-independent basis, Debye-Ang):
   XX=            -10.0610   YY=            -15.6471   ZZ=            -15.6472
   XY=              0.0001   XZ=             -0.0000   YZ=              0.0000

 Normal termination of Gaussian 16 at Mon Apr 21 17:27:20 2025.
