 Gaussian 16, Revision A.03,
 Gaussian 16:  ES64L-G16RevA.03 25-Dec-2016

 -------------------------------------------------------------------
 #p opt UM062X/6-311+G** nosymm int=superfine SCF=NoVarAcc SCF=tight
 -------------------------------------------------------------------

 -------------------
 Title Card Required
 -------------------
 Symbolic Z-matrix:
 Charge =  1 Multiplicity = 2

 SCF Done:  E(UM062X) =  -79.3150859134     A.U. after   17 cycles
 SCF Done:  E(UM062X) =  -79.3151619012     A.U. after    9 cycles
 SCF Done:  E(UM062X) =  -79.3151843989     A.U. after    9 cycles
 SCF Done:  E(UM062X) =  -79.3151963563     A.U. after    9 cycles
 SCF Done:  E(UM062X) =  -79.3151970832     A.U. after    8 cycles
 Optimization completed.
    -- Stationary point found.

                          Input orientation:
 ---------------------------------------------------------------------
 Center     Atomic      Atomic             Coordinates (Angstroms)
 Number     Number       Type             X           Y           Z
 ---------------------------------------------------------------------
      1          6           0       -6.782675    0.000000    0.000000
      2          6           0        6.782675    0.000000    0.000000
      3          1           0        6.783436   -0.936693    0.542428
      4          1           0       -6.784211   -0.937674   -0.540737
      5          1           0        6.786339    0.938110    0.539964
      6          1           0        6.785095   -0.001419   -1.082413
      7          1           0       -6.785870    0.937159   -0.541603
      8          1           0       -6.784735    0.000354    1.082415
 ---------------------------------------------------------------------

 Alpha  occ. eigenvalues --  -10.78730 -10.78730  -0.97496  -0.97492  -0.68743
 Alpha  occ. eigenvalues --   -0.68742  -0.68742  -0.68740  -0.39067
 Alpha virt. eigenvalues --   -0.36948  -0.08429  -0.08426  -0.04926  -0.04925
 Alpha virt. eigenvalues --   -0.04925  -0.04925  -0.02869  -0.02867   0.04548
 Alpha virt. eigenvalues --    0.04549   0.04549   0.04551   0.04631   0.04634

  Beta  occ. eigenvalues --  -10.78488 -10.78488  -0.94826  -0.94826  -0.68169
  Beta  occ. eigenvalues --   -0.68168  -0.68167  -0.68166
  Beta virt. eigenvalues --   -0.23778  -0.23778  -0.08971  -0.08971  -0.04557
  Beta virt. eigenvalues --   -0.04557  -0.04557  -0.04556  -0.00913  -0.00911
  Beta virt. eigenvalues --    0.04844   0.04846   0.04846   0.04847   0.06087

 Mulliken charges and spin densities:
               1          2
     1  C   -0.191148   0.566895
     2  C   -0.191149   0.566895
     3  H    0.230379  -0.022298
     4  H    0.230378  -0.022299
     5  H    0.230387  -0.022298
     6  H    0.230383  -0.022299
     7  H    0.230390  -0.022298
     8  H    0.230380  -0.022299
 Sum of Mulliken charges =   1.00000   1.00000

 Dipole moment (field-independent basis, Debye):
    X=              0.0000    Y=             -0.0001    Z=              0.0000  Tot=              0.0001
 Quadrupole moment (field-independent basis, Debye-Ang):
   XX=            207.5174   YY=            -11.1272   ZZ=            -11.1276
   XY=              0.0016   XZ=             -0.0003   YZ=             -0.0003

 Normal termination of Gaussian 16 at Tue Dec  3 16:14:56 2024.
