 Gaussian 16, Revision A.03,
 Gaussian 16:  ES64L-G16RevA.03 25-Dec-2016

 ---------------------------------------------------
 #p UM062X/6-311+G** force int=superfine pop=saveNBO
 ---------------------------------------------------

 -------------------
 Title Card Required
 -------------------
 Symbolic Z-matrix:
 Charge =  0 Multiplicity = 1

                         Standard orientation:
 ---------------------------------------------------------------------
 Center     Atomic      Atomic             Coordinates (Angstroms)
 Number     Number       Type             X           Y           Z
 ---------------------------------------------------------------------
      1          8           0        0.000000    0.000000    1.693562
      2          8           0        0.000000    0.000000   -1.693562
 ---------------------------------------------------------------------

 SCF Done:  E(UM062X) =  -149.787484154     A.U. after    9 cycles

 Unable to determine electronic state:  partially filled degenerate orbitals.
 Alpha  occ. eigenvalues --  -19.82577 -19.82575  -1.10324  -1.09893  -0.48618
 Alpha  occ. eigenvalues --   -0.48407  -0.40475  -0.39675
 Alpha virt. eigenvalues --   -0.31143  -0.30185   0.09300   0.12535   0.14388
 Alpha virt. eigenvalues --    0.14440   0.18361   0.19276   0.19514   0.28636
 Alpha virt. eigenvalues --    0.99927   1.01194   1.01298   1.01904   1.02610

  Beta  occ. eigenvalues --  -19.82577 -19.82575  -1.10324  -1.09893  -0.48618
  Beta  occ. eigenvalues --   -0.48407  -0.40475  -0.39675
  Beta virt. eigenvalues --   -0.31143  -0.30185   0.09300   0.12535   0.14388
  Beta virt. eigenvalues --    0.14440   0.18361   0.19276   0.19514   0.28636
  Beta virt. eigenvalues --    0.99927   1.01194   1.01298   1.01904   1.02610

 Mulliken charges and spin densities:
               1          2
     1  O    0.000000   0.000000
     2  O    0.000000   0.000000
 Sum of Mulliken charges =   0.00000   0.00000

 Dipole moment (field-independent basis, Debye):
    X=              0.0000    Y=              0.0000    Z=             -0.0000  Tot=              0.0000
 Quadrupole moment (field-independent basis, Debye-Ang):
   XX=            -12.0422   YY=            -10.1783   ZZ=             -9.2649
   XY=             -0.0000   XZ=             -0.0000   YZ=              0.0000

 Summary of Natural Population Analysis:

                                       Natural Population
                Natural  -----------------------------------------------
    Atom  No    Charge         Core      Valence    Rydberg      Total
 -----------------------------------------------------------------------
      O    1    0.00000      1.00000     2.99899    0.00101     4.00000
      O    2    0.00000      1.00000     2.99899    0.00101     4.00000
 =======================================================================
   * Total *    0.00000      2.00000     5.99799    0.00201     8.00000

 Normal termination of Gaussian 16 at Mon Apr 21 19:54:35 2025.
