 Gaussian 16, Revision A.03,
 Gaussian 16:  ES64L-G16RevA.03 25-Dec-2016

 ---------------------------------------------------
 #p UM062X/6-311+G** force int=superfine pop=saveNBO
 ---------------------------------------------------

 -------------------
 Title Card Required
 -------------------
 Symbolic Z-matrix:
 Charge =  0 Multiplicity = 1

                         Standard orientation:
 ---------------------------------------------------------------------
 Center     Atomic      Atomic             Coordinates (Angstroms)
 Number     Number       Type             X           Y           Z
 ---------------------------------------------------------------------
      1          6           0        0.000000    0.000000   -1.355522
      2          8           0        0.000000    0.000000    1.016642
 ---------------------------------------------------------------------

 SCF Done:  E(UM062X) =  -112.815028209     A.U. after   19 cycles

 The electronic state is 1-SG.
 Alpha  occ. eigenvalues --  -19.67800 -10.83068  -0.98888  -0.72009  -0.36394
 Alpha  occ. eigenvalues --   -0.36268  -0.36268
 Alpha virt. eigenvalues --   -0.17661  -0.17661  -0.11728   0.02931   0.06089
 Alpha virt. eigenvalues --    0.06089   0.06949   0.19907   0.22508   0.22508
 Alpha virt. eigenvalues --    0.31743   0.51636   0.51636   0.54454   0.65556

  Beta  occ. eigenvalues --  -19.67800 -10.83068  -0.98888  -0.72009  -0.36394
  Beta  occ. eigenvalues --   -0.36268  -0.36268
  Beta virt. eigenvalues --   -0.17661  -0.17661  -0.11728   0.02931   0.06089
  Beta virt. eigenvalues --    0.06089   0.06949   0.19907   0.22508   0.22508
  Beta virt. eigenvalues --    0.31743   0.51636   0.51636   0.54454   0.65556

 Mulliken charges and spin densities:
               1          2
     1  C    0.317644   0.000000
     2  O   -0.317644  -0.000000
 Sum of Mulliken charges =   0.00000  -0.00000

 Dipole moment (field-independent basis, Debye):
    X=              0.0000    Y=              0.0000    Z=             -3.7605  Tot=              3.7605
 Quadrupole moment (field-independent basis, Debye-Ang):
   XX=            -11.3771   YY=            -11.3771   ZZ=            -10.8378
   XY=              0.0000   XZ=              0.0000   YZ=              0.0000

 Summary of Natural Population Analysis:

                                       Natural Population
                Natural  -----------------------------------------------
    Atom  No    Charge         Core      Valence    Rydberg      Total
 -----------------------------------------------------------------------
      C    1    0.24486      1.00000     1.75449    0.00065     2.75514
      O    2   -0.24486      1.00000     3.24428    0.00058     4.24486
 =======================================================================
   * Total *    0.00000      2.00000     4.99877    0.00123     7.00000

 Normal termination of Gaussian 16 at Mon Apr 21 19:30:48 2025.
