 Gaussian 16, Revision A.03,
 Gaussian 16:  ES64L-G16RevA.03 25-Dec-2016

 --------------------------------------------
 #p opt UM062X/6-311+G** nosymm int=superfine
 --------------------------------------------

 -------------------
 Title Card Required
 -------------------
 Symbolic Z-matrix:
 Charge = -1 Multiplicity = 2

 SCF Done:  E(UM062X) =  -51.9048686981     A.U. after   11 cycles
 SCF Done:  E(UM062X) =  -51.9086097157     A.U. after   10 cycles
 SCF Done:  E(UM062X) =  -51.9102437660     A.U. after   11 cycles
 SCF Done:  E(UM062X) =  -51.9102585122     A.U. after   11 cycles
 SCF Done:  E(UM062X) =  -51.9102466207     A.U. after   11 cycles
 SCF Done:  E(UM062X) =  -51.9102489323     A.U. after   12 cycles
 SCF Done:  E(UM062X) =  -51.9102576001     A.U. after   11 cycles
 SCF Done:  E(UM062X) =  -51.9102586016     A.U. after   10 cycles
 Optimization completed.
    -- Stationary point found.

                          Input orientation:
 ---------------------------------------------------------------------
 Center     Atomic      Atomic             Coordinates (Angstroms)
 Number     Number       Type             X           Y           Z
 ---------------------------------------------------------------------
      1          5           0       -1.397274    0.000000    0.000000
      2          5           0        1.397274    0.000000    0.000000
      3          1           0       -1.942305   -1.062412    0.000046
      4          1           0        1.942305    1.062412   -0.000466
      5          1           0       -1.942305    1.062412   -0.000383
      6          1           0        1.942305   -1.062412    0.000129
 ---------------------------------------------------------------------

 Alpha  occ. eigenvalues --   -6.87470  -6.87466  -0.37504  -0.35808  -0.22809
 Alpha  occ. eigenvalues --   -0.21952  -0.04719   0.01376
 Alpha virt. eigenvalues --    0.13454   0.15256   0.16600   0.18951   0.19194
 Alpha virt. eigenvalues --    0.22428   0.22480   0.22486   0.24061   0.25910
 Alpha virt. eigenvalues --    0.32696   0.34510   0.35098   0.41816   0.49587

  Beta  occ. eigenvalues --   -6.87437  -6.87434  -0.35896  -0.34531  -0.22689
  Beta  occ. eigenvalues --   -0.21912  -0.03501
  Beta virt. eigenvalues --    0.10775   0.13767   0.13896   0.14308   0.16138
  Beta virt. eigenvalues --    0.17545   0.19193   0.19295   0.21889   0.24631
  Beta virt. eigenvalues --    0.24891   0.31760   0.33920   0.34612   0.41546

 Mulliken charges and spin densities:
               1          2
     1  B   -0.415350   0.545638
     2  B   -0.415350   0.545638
     3  H   -0.042325  -0.022819
     4  H   -0.042325  -0.022819
     5  H   -0.042325  -0.022819
     6  H   -0.042325  -0.022819
 Sum of Mulliken charges =  -1.00000   1.00000

 Dipole moment (field-independent basis, Debye):
    X=             -0.0000    Y=             -0.0000    Z=             -0.0002  Tot=              0.0002
 Quadrupole moment (field-independent basis, Debye-Ang):
   XX=            -31.9894   YY=            -23.4938   ZZ=            -25.6950
   XY=             -0.0000   XZ=              0.0000   YZ=             -0.0005

 Normal termination of Gaussian 16 at Mon Apr 21 17:23:47 2025.
