 Gaussian 16, Revision A.03,
 Gaussian 16:  ES64L-G16RevA.03 25-Dec-2016

 --------------------------------------------
 #p opt UM062X/6-311+G** nosymm int=superfine
 --------------------------------------------

 -------------------
 Title Card Required
 -------------------
 Symbolic Z-matrix:
 Charge =  1 Multiplicity = 2

 SCF Done:  E(UM062X) =  -580.874541387     A.U. after   14 cycles
 SCF Done:  E(UM062X) =  -580.881663318     A.U. after   12 cycles
 SCF Done:  E(UM062X) =  -580.883632466     A.U. after   12 cycles
 SCF Done:  E(UM062X) =  -580.883634963     A.U. after   10 cycles
 Optimization completed.
    -- Stationary point found.

                          Input orientation:
 ---------------------------------------------------------------------
 Center     Atomic      Atomic             Coordinates (Angstroms)
 Number     Number       Type             X           Y           Z
 ---------------------------------------------------------------------
      1         14           0       -1.991295    0.000000    0.000000
      2         14           0        1.991295    0.000000    0.000000
      3          1           0       -2.885831   -1.191132   -0.000045
      4          1           0        2.885831    1.191131    0.000986
      5          1           0       -2.885846    1.191121   -0.000177
      6          1           0        2.885846   -1.191120   -0.001208
 ---------------------------------------------------------------------

 Alpha  occ. eigenvalues --  -67.24524 -67.24524  -5.79011  -5.79009  -4.10284
 Alpha  occ. eigenvalues --   -4.10284  -4.09954  -4.09954  -4.09617  -4.09617
 Alpha  occ. eigenvalues --   -0.78665  -0.78339  -0.60370  -0.60284  -0.51038
 Alpha  occ. eigenvalues --   -0.46619
 Alpha virt. eigenvalues --   -0.27789  -0.26616  -0.13508  -0.12098  -0.09297
 Alpha virt. eigenvalues --   -0.08060  -0.07686  -0.07626  -0.06836  -0.06331
 Alpha virt. eigenvalues --   -0.06144  -0.05688  -0.05668  -0.03397   0.13005

  Beta  occ. eigenvalues --  -67.24173 -67.24173  -5.78736  -5.78735  -4.10178
  Beta  occ. eigenvalues --   -4.10177  -4.09501  -4.09501  -4.09169  -4.09169
  Beta  occ. eigenvalues --   -0.76839  -0.76359  -0.59193  -0.59087  -0.45164
  Beta virt. eigenvalues --   -0.31747  -0.26590  -0.25211  -0.12490  -0.11667
  Beta virt. eigenvalues --   -0.09400  -0.07586  -0.07409  -0.06546  -0.06497
  Beta virt. eigenvalues --   -0.06051  -0.05719  -0.05362  -0.05139  -0.03013

 Mulliken charges and spin densities:
               1          2
     1  Si   0.555451   0.385274
     2  Si   0.555451   0.385274
     3  H   -0.027726   0.057363
     4  H   -0.027726   0.057363
     5  H   -0.027725   0.057363
     6  H   -0.027725   0.057363
 Sum of Mulliken charges =   1.00000   1.00000

 Dipole moment (field-independent basis, Debye):
    X=              0.0000    Y=              0.0000    Z=             -0.0001  Tot=              0.0001
 Quadrupole moment (field-independent basis, Debye-Ang):
   XX=             -1.9916   YY=            -25.7854   ZZ=            -20.8085
   XY=             -0.0000   XZ=              0.0000   YZ=             -0.0022

 Normal termination of Gaussian 16 at Mon Apr 21 20:26:19 2025.
