 Gaussian 16, Revision A.03,
 Gaussian 16:  ES64L-G16RevA.03 25-Dec-2016

 --------------------------------------------
 #p opt UM062X/6-311+G** nosymm int=superfine
 --------------------------------------------

 -------------------
 Title Card Required
 -------------------
 Symbolic Z-matrix:
 Charge =  0 Multiplicity = 1

 SCF Done:  E(UM062X) =  -95.8238876794     A.U. after   11 cycles
 SCF Done:  E(UM062X) =  -95.8254431204     A.U. after   10 cycles
 SCF Done:  E(UM062X) =  -95.8254784232     A.U. after    9 cycles
 SCF Done:  E(UM062X) =  -95.8254787306     A.U. after    7 cycles
 Optimization completed.
    -- Stationary point found.

                          Input orientation:
 ---------------------------------------------------------------------
 Center     Atomic      Atomic             Coordinates (Angstroms)
 Number     Number       Type             X           Y           Z
 ---------------------------------------------------------------------
      1          6           0       -0.805542    0.000000    0.000000
      2          7           0        0.805542    0.000000    0.000000
      3          1           0        1.098711   -0.970987    0.047801
      4          1           0       -1.120390    1.040576   -0.014354
      5          1           0        1.098691    0.426789    0.873486
      6          1           0       -1.120391   -0.488264   -0.919022
      7          1           0       -1.222101   -0.513343    0.867559
 ---------------------------------------------------------------------

 Alpha  occ. eigenvalues --  -14.73065 -10.56142  -0.95330  -0.75702  -0.54906
 Alpha  occ. eigenvalues --   -0.49510  -0.44727  -0.44608  -0.31598
 Alpha virt. eigenvalues --    0.01462   0.03670   0.05098   0.05939   0.11176
 Alpha virt. eigenvalues --    0.13887   0.15952   0.17807   0.19192   0.20451
 Alpha virt. eigenvalues --    0.22119   0.22359   0.23545   0.29388   0.42911

  Beta  occ. eigenvalues --  -14.73065 -10.56142  -0.95330  -0.75702  -0.54906
  Beta  occ. eigenvalues --   -0.49510  -0.44727  -0.44608  -0.31598
  Beta virt. eigenvalues --    0.01462   0.03670   0.05098   0.05939   0.11176
  Beta virt. eigenvalues --    0.13887   0.15952   0.17807   0.19192   0.20451
  Beta virt. eigenvalues --    0.22119   0.22359   0.23545   0.29388   0.42911

 Mulliken charges and spin densities:
               1          2
     1  C   -0.409201   0.000000
     2  N   -0.532075  -0.000000
     3  H    0.236218   0.000000
     4  H    0.161011  -0.000000
     5  H    0.236201   0.000000
     6  H    0.161041  -0.000000
     7  H    0.146805   0.000000
 Sum of Mulliken charges =  -0.00000   0.00000

 Dipole moment (field-independent basis, Debye):
    X=             -0.8641    Y=             -0.7731    Z=              1.3089  Tot=              1.7486
 Quadrupole moment (field-independent basis, Debye-Ang):
   XX=            -14.6746   YY=            -13.2862   ZZ=            -14.3937
   XY=             -1.1943   XZ=              2.0216   YZ=              1.0050

 Normal termination of Gaussian 16 at Mon Apr 21 18:10:22 2025.
