 Gaussian 16, Revision A.03,
 Gaussian 16:  ES64L-G16RevA.03 25-Dec-2016

 --------------------------------------------
 #p opt UM062X/6-311+G** nosymm int=superfine
 --------------------------------------------

 -------------------
 Title Card Required
 -------------------
 Symbolic Z-matrix:
 Charge =  0 Multiplicity = 3

 SCF Done:  E(UM062X) =  -50.5792745551     A.U. after   12 cycles
 SCF Done:  E(UM062X) =  -50.5793025225     A.U. after    8 cycles
 Optimization completed.
    -- Stationary point found.

                          Input orientation:
 ---------------------------------------------------------------------
 Center     Atomic      Atomic             Coordinates (Angstroms)
 Number     Number       Type             X           Y           Z
 ---------------------------------------------------------------------
      1          5           0       -1.178410    0.000000    0.000000
      2          5           0        1.178410    0.000000    0.000000
      3          1           0       -2.356422   -0.000081   -0.000000
      4          1           0        2.356422    0.000081    0.000000
 ---------------------------------------------------------------------

 Alpha  occ. eigenvalues --   -7.15101  -7.15087  -0.58334  -0.55874  -0.38626
 Alpha  occ. eigenvalues --   -0.22662  -0.22662
 Alpha virt. eigenvalues --   -0.06088  -0.06088  -0.04707   0.02545   0.02665
 Alpha virt. eigenvalues --    0.06476   0.06476   0.07653   0.07686   0.07686
 Alpha virt. eigenvalues --    0.13367   0.21356   0.24416   0.37956   0.38752

  Beta  occ. eigenvalues --   -7.14830  -7.14824  -0.54929  -0.53887  -0.36323
  Beta virt. eigenvalues --   -0.06347  -0.06347  -0.00912  -0.00912   0.00660
  Beta virt. eigenvalues --    0.00735   0.03014   0.05468   0.08460   0.08460
  Beta virt. eigenvalues --    0.11239   0.11239   0.11516   0.22321   0.26262

 Mulliken charges and spin densities:
               1          2
     1  B   -0.116971   1.038672
     2  B   -0.116971   1.038672
     3  H    0.116971  -0.038672
     4  H    0.116971  -0.038672
 Sum of Mulliken charges =  -0.00000   2.00000

 Dipole moment (field-independent basis, Debye):
    X=              0.0000    Y=              0.0000    Z=              0.0000  Tot=              0.0000
 Quadrupole moment (field-independent basis, Debye-Ang):
   XX=            -10.3123   YY=            -16.4434   ZZ=            -16.4434
   XY=              0.0003   XZ=              0.0000   YZ=              0.0000

 1\1\GINC-NODE06\FOpt\UM062X\6-311+G(d,p)\B2H2(3)\SZHAO\21-Apr-2025\0\\
 #p opt UM062X/6-311+G** nosymm int=superfine\\Title Card Required\\0,3
 \B,-1.17841047,0.,0.\B,1.17841047,0.,0.\H,-2.3564222196,-0.0000805866,
 -0.0000000007\H,2.3564222178,0.0000805866,0.0000000007\\Version=ES64L-
 G16RevA.03\HF=-50.5793025\S2=2.009593\S2-1=0.\S2A=2.000028\RMSD=8.415e
 -09\RMSF=2.062e-05\Dipole=0.,0.,0.\Quadrupole=3.0388843,-1.5194421,-1.
 5194422,0.000248,0.,0.\PG=C*V [C*(H1B1B1H1)]\\@

 Normal termination of Gaussian 16 at Mon Apr 21 17:27:58 2025.
