 Gaussian 16, Revision A.03,
 Gaussian 16:  ES64L-G16RevA.03 25-Dec-2016

 --------------------------------------------
 #p opt UM062X/6-311+G** nosymm int=superfine
 --------------------------------------------

 -------------------
 Title Card Required
 -------------------
 Symbolic Z-matrix:
 Charge =  0 Multiplicity = 1

 SCF Done:  E(UM062X) =  -797.550546121     A.U. after   10 cycles
 SCF Done:  E(UM062X) =  -797.550782083     A.U. after   11 cycles
 SCF Done:  E(UM062X) =  -797.550175191     A.U. after   11 cycles
 SCF Done:  E(UM062X) =  -797.550847599     A.U. after   10 cycles
 SCF Done:  E(UM062X) =  -797.550847676     A.U. after    7 cycles
 Optimization completed.
    -- Stationary point found.

                          Input orientation:
 ---------------------------------------------------------------------
 Center     Atomic      Atomic             Coordinates (Angstroms)
 Number     Number       Type             X           Y           Z
 ---------------------------------------------------------------------
      1         16           0       -1.118191    0.000000    0.000000
      2         16           0        1.118191    0.000000    0.000000
      3          1           0       -1.244926   -1.337087   -0.005344
      4          1           0        1.244562    0.043699    1.336543
 ---------------------------------------------------------------------

 Alpha  occ. eigenvalues --  -89.93228 -89.93228  -8.29577  -8.29573  -6.21735
 Alpha  occ. eigenvalues --   -6.21725  -6.21465  -6.21464  -6.20976  -6.20976
 Alpha  occ. eigenvalues --   -0.87777  -0.76988  -0.50345  -0.47225  -0.40718
 Alpha  occ. eigenvalues --   -0.32794  -0.32591
 Alpha virt. eigenvalues --   -0.05068   0.01562   0.03487   0.04973   0.04979
 Alpha virt. eigenvalues --    0.05971   0.07674   0.07753   0.07824   0.12694
 Alpha virt. eigenvalues --    0.13753   0.29914   0.31994   0.33199   0.33205

  Beta  occ. eigenvalues --  -89.93228 -89.93228  -8.29577  -8.29573  -6.21735
  Beta  occ. eigenvalues --   -6.21725  -6.21465  -6.21464  -6.20976  -6.20976
  Beta  occ. eigenvalues --   -0.87777  -0.76988  -0.50345  -0.47225  -0.40718
  Beta  occ. eigenvalues --   -0.32794  -0.32591
  Beta virt. eigenvalues --   -0.05068   0.01562   0.03487   0.04973   0.04979
  Beta virt. eigenvalues --    0.05971   0.07674   0.07753   0.07824   0.12694
  Beta virt. eigenvalues --    0.13753   0.29914   0.31994   0.33199   0.33205

 Mulliken charges and spin densities:
               1          2
     1  S   -0.088129   0.000000
     2  S   -0.088038  -0.000000
     3  H    0.088079  -0.000000
     4  H    0.088088  -0.000000
 Sum of Mulliken charges =   0.00000  -0.00000

 Dipole moment (field-independent basis, Debye):
    X=              0.0002    Y=             -1.0393    Z=              1.0695  Tot=              1.4913
 Quadrupole moment (field-independent basis, Debye-Ang):
   XX=            -26.6894   YY=            -27.3690   ZZ=            -27.3774
   XY=              1.8277   XZ=              1.7752   YZ=              0.1553

 Normal termination of Gaussian 16 at Mon Apr 21 21:10:02 2025.
