 Gaussian 16, Revision A.03,
 Gaussian 16:  ES64L-G16RevA.03 25-Dec-2016

 --------------------------------------------
 #p opt UM062X/6-311+G** nosymm int=superfine
 --------------------------------------------

 -------------------
 Title Card Required
 -------------------
 Symbolic Z-matrix:
 Charge = -1 Multiplicity = 2

 SCF Done:  E(UM062X) =  -53.2293116335     A.U. after   11 cycles
 SCF Done:  E(UM062X) =  -53.2299514380     A.U. after    9 cycles
 SCF Done:  E(UM062X) =  -53.2300722420     A.U. after    9 cycles
 Optimization completed.
    -- Stationary point found.

                          Input orientation:
 ---------------------------------------------------------------------
 Center     Atomic      Atomic             Coordinates (Angstroms)
 Number     Number       Type             X           Y           Z
 ---------------------------------------------------------------------
      1          5           0       -1.315672    0.000000    0.000000
      2          5           0        1.315672    0.000000    0.000000
      3          1           0        1.469528   -1.192119   -0.000006
      4          1           0       -1.469421   -0.596065    1.032414
      5          1           0        1.469566    0.596077   -1.032387
      6          1           0        1.469381    0.596051    1.032427
      7          1           0       -1.469535    1.192118    0.000006
      8          1           0       -1.469519   -0.596065   -1.032400
 ---------------------------------------------------------------------

 Alpha  occ. eigenvalues --   -6.81580  -6.81576  -0.39416  -0.35640  -0.20295
 Alpha  occ. eigenvalues --   -0.20295  -0.18101  -0.18101  -0.01738
 Alpha virt. eigenvalues --    0.15902   0.17233   0.17606   0.17606   0.19177
 Alpha virt. eigenvalues --    0.19177   0.21304   0.23111   0.25592   0.33022
 Alpha virt. eigenvalues --    0.33022   0.37188   0.37189   0.39019   0.41158

  Beta  occ. eigenvalues --   -6.81511  -6.81510  -0.36864  -0.34060  -0.19823
  Beta  occ. eigenvalues --   -0.19823  -0.17857  -0.17857
  Beta virt. eigenvalues --    0.13653   0.15030   0.17313   0.17313   0.17863
  Beta virt. eigenvalues --    0.18697   0.18697   0.23645   0.24211   0.31292
  Beta virt. eigenvalues --    0.32939   0.32939   0.37395   0.37395   0.39546

 Mulliken charges and spin densities:
               1          2
     1  B   -0.277157   0.599739
     2  B   -0.277157   0.599739
     3  H   -0.074282  -0.033246
     4  H   -0.074277  -0.033245
     5  H   -0.074286  -0.033249
     6  H   -0.074274  -0.033245
     7  H   -0.074283  -0.033246
     8  H   -0.074283  -0.033248
 Sum of Mulliken charges =  -1.00000   1.00000

 Dipole moment (field-independent basis, Debye):
    X=             -0.0000    Y=             -0.0000    Z=              0.0000  Tot=              0.0000
 Quadrupole moment (field-independent basis, Debye-Ang):
   XX=            -33.6714   YY=            -24.0165   ZZ=            -24.0165
   XY=              0.0000   XZ=              0.0000   YZ=              0.0000

 Normal termination of Gaussian 16 at Mon Apr 21 16:49:14 2025.
