 Gaussian 16, Revision A.03,
 Gaussian 16:  ES64L-G16RevA.03 25-Dec-2016

 ---------------------------------------------------
 #p UM062X/6-311+G** force int=superfine pop=saveNBO
 ---------------------------------------------------

 -------------------
 Title Card Required
 -------------------
 Symbolic Z-matrix:
 Charge =  0 Multiplicity = 1

                         Standard orientation:
 ---------------------------------------------------------------------
 Center     Atomic      Atomic             Coordinates (Angstroms)
 Number     Number       Type             X           Y           Z
 ---------------------------------------------------------------------
      1          6           0        0.000000    0.000000   -2.857158
      2         16           0        0.000000    0.000000    1.071434
 ---------------------------------------------------------------------

 SCF Done:  E(UM062X) =  -435.823148172     A.U. after   32 cycles

 The electronic state is 1-SG.
 Alpha  occ. eigenvalues --  -89.93873 -10.73521  -8.29917  -6.22674  -6.21147
 Alpha  occ. eigenvalues --   -6.21147  -0.74217  -0.66327  -0.31568  -0.31568
 Alpha  occ. eigenvalues --   -0.30511
 Alpha virt. eigenvalues --   -0.16865  -0.12758  -0.12758   0.03468   0.04823
 Alpha virt. eigenvalues --    0.05852   0.05852   0.08573   0.08573   0.08766
 Alpha virt. eigenvalues --    0.13504   0.34250   0.36383   0.36383   0.55556

  Beta  occ. eigenvalues --  -89.93873 -10.73521  -8.29917  -6.22674  -6.21147
  Beta  occ. eigenvalues --   -6.21147  -0.74217  -0.66327  -0.31568  -0.31568
  Beta  occ. eigenvalues --   -0.30511
  Beta virt. eigenvalues --   -0.16865  -0.12758  -0.12758   0.03468   0.04823
  Beta virt. eigenvalues --    0.05852   0.05852   0.08573   0.08573   0.08766
  Beta virt. eigenvalues --    0.13504   0.34250   0.36383   0.36383   0.55556

 Mulliken charges and spin densities:
               1          2
     1  C    0.081118  -0.000000
     2  S   -0.081118  -0.000000
 Sum of Mulliken charges =  -0.00000  -0.00000

 Dipole moment (field-independent basis, Debye):
    X=              0.0000    Y=              0.0000    Z=             -1.6410  Tot=              1.6410
 Quadrupole moment (field-independent basis, Debye-Ang):
   XX=            -20.5197   YY=            -20.5197   ZZ=            -15.7477
   XY=              0.0000   XZ=              0.0000   YZ=              0.0000

 Summary of Natural Population Analysis:

                                       Natural Population
                Natural  -----------------------------------------------
    Atom  No    Charge         Core      Valence    Rydberg      Total
 -----------------------------------------------------------------------
      C    1    0.04908      1.00000     1.95050    0.00042     2.95092
      S    2   -0.04908      4.99999     3.04855    0.00054     8.04908
 =======================================================================
   * Total *   -0.00000      5.99999     4.99905    0.00096    11.00000

 Normal termination of Gaussian 16 at Mon Apr 21 19:46:14 2025.
