 Gaussian 16, Revision A.03,
 Gaussian 16:  ES64L-G16RevA.03 25-Dec-2016

 --------------------------------------------
 #p opt UM062X/6-311+G** nosymm int=superfine
 --------------------------------------------

 -------------------
 Title Card Required
 -------------------
 Symbolic Z-matrix:
 Charge =  0 Multiplicity = 1

 SCF Done:  E(UM062X) =  -77.0020233351     A.U. after   10 cycles
 SCF Done:  E(UM062X) =  -77.0465417455     A.U. after    9 cycles
 SCF Done:  E(UM062X) =  -77.1112464544     A.U. after   10 cycles
 SCF Done:  E(UM062X) =  -77.1153606351     A.U. after    9 cycles
 SCF Done:  E(UM062X) =  -77.1153754533     A.U. after    7 cycles
 Optimization completed.
    -- Stationary point found.

                          Input orientation:
 ---------------------------------------------------------------------
 Center     Atomic      Atomic             Coordinates (Angstroms)
 Number     Number       Type             X           Y           Z
 ---------------------------------------------------------------------
      1          6           0       -0.825951    0.000000    0.000000
      2          6           0        0.825951    0.000000    0.000000
      3          1           0       -1.901042    0.000000   -0.000000
      4          1           0        1.901005    0.000000   -0.000000
 ---------------------------------------------------------------------

 Alpha  occ. eigenvalues --  -10.65200 -10.65166  -0.78119  -0.69370  -0.53588
 Alpha  occ. eigenvalues --   -0.30566  -0.30566
 Alpha virt. eigenvalues --   -0.03857  -0.03857   0.00516   0.02324   0.06714
 Alpha virt. eigenvalues --    0.08367   0.08367   0.09511   0.11189   0.11189
 Alpha virt. eigenvalues --    0.17723   0.22723   0.28255   0.46665   0.58632

  Beta  occ. eigenvalues --  -10.65200 -10.65166  -0.78119  -0.69370  -0.53588
  Beta  occ. eigenvalues --   -0.30566  -0.30566
  Beta virt. eigenvalues --   -0.03857  -0.03857   0.00516   0.02324   0.06714
  Beta virt. eigenvalues --    0.08367   0.08367   0.09511   0.11189   0.11189
  Beta virt. eigenvalues --    0.17723   0.22723   0.28255   0.46665   0.58632

 Mulliken charges and spin densities:
               1          2
     1  C   -0.241787   0.000000
     2  C   -0.241790  -0.000000
     3  H    0.241794  -0.000000
     4  H    0.241783  -0.000000
 Sum of Mulliken charges =  -0.00000  -0.00000

 Dipole moment (field-independent basis, Debye):
    X=             -0.0001    Y=              0.0000    Z=             -0.0000  Tot=              0.0001
 Quadrupole moment (field-independent basis, Debye-Ang):
   XX=             -5.1608   YY=            -15.6348   ZZ=            -15.6348
   XY=              0.0000   XZ=             -0.0000   YZ=             -0.0000

 Normal termination of Gaussian 16 at Tue Dec  3 20:13:21 2024.
