 Gaussian 16, Revision A.03,
 Gaussian 16:  ES64L-G16RevA.03 25-Dec-2016

 ---------------------------------------
 #p UM062X/6-311+G** force int=superfine
 ---------------------------------------

 -------------------
 Title Card Required
 -------------------
 Symbolic Z-matrix:
 Charge =  1 Multiplicity = 2

                         Standard orientation:
 ---------------------------------------------------------------------
 Center     Atomic      Atomic             Coordinates (Angstroms)
 Number     Number       Type             X           Y           Z
 ---------------------------------------------------------------------
      1          6           0       -0.000000   -0.982580    0.000000
      2          6           0        0.000000    0.982580    0.000000
      3          1           0        0.977747   -1.451472    0.000000
      4          1           0       -0.977643   -1.451524    0.000000
      5          1           0       -0.977747    1.451472    0.000000
      6          1           0        0.977643    1.451524    0.000000
 ---------------------------------------------------------------------

 SCF Done:  E(UM062X) =  -78.0767210847     A.U. after    9 cycles

 The electronic state is 2-AU.
 Alpha  occ. eigenvalues --  -10.92083 -10.92066  -1.07512  -0.99908  -0.80961
 Alpha  occ. eigenvalues --   -0.77227  -0.68435  -0.57079
 Alpha virt. eigenvalues --   -0.36014  -0.22481  -0.14200  -0.11086  -0.09894
 Alpha virt. eigenvalues --   -0.08492  -0.07431  -0.07238  -0.04748  -0.04231
 Alpha virt. eigenvalues --   -0.02487  -0.00751   0.02228   0.09446   0.18053

  Beta  occ. eigenvalues --  -10.91850 -10.91839  -1.04365  -0.97704  -0.80386
  Beta  occ. eigenvalues --   -0.76875  -0.66956
  Beta virt. eigenvalues --   -0.35947  -0.27443  -0.20062  -0.15584  -0.11439
  Beta virt. eigenvalues --   -0.09846  -0.08042  -0.07708  -0.07367  -0.04274
  Beta virt. eigenvalues --   -0.03950  -0.02044  -0.00156   0.01466   0.10128

 Mulliken charges and spin densities:
               1          2
     1  C   -0.066426   0.540967
     2  C   -0.066426   0.540967
     3  H    0.283216  -0.020485
     4  H    0.283210  -0.020483
     5  H    0.283216  -0.020485
     6  H    0.283210  -0.020483
 Sum of Mulliken charges =   1.00000   1.00000

 Dipole moment (field-independent basis, Debye):
    X=             -0.0000    Y=             -0.0000    Z=              0.0000  Tot=              0.0000
 Quadrupole moment (field-independent basis, Debye-Ang):
   XX=             -8.1802   YY=             -2.4652   ZZ=            -12.4314
   XY=             -0.0001   XZ=              0.0000   YZ=              0.0000

 Normal termination of Gaussian 16 at Tue Nov 19 11:56:17 2024.
