 Gaussian 16, Revision A.03,
 Gaussian 16:  ES64L-G16RevA.03 25-Dec-2016

 --------------------------------------------
 #p opt UM062X/6-311+G** nosymm int=superfine
 --------------------------------------------

 -------------------
 Title Card Required
 -------------------
 Symbolic Z-matrix:
 Charge =  0 Multiplicity = 1

 SCF Done:  E(UM062X) =  -684.920525949     A.U. after   11 cycles
 SCF Done:  E(UM062X) =  -684.921389391     A.U. after   10 cycles
 SCF Done:  E(UM062X) =  -684.922058932     A.U. after   10 cycles
 SCF Done:  E(UM062X) =  -684.922527573     A.U. after   12 cycles
 SCF Done:  E(UM062X) =  -684.922689731     A.U. after   10 cycles
 SCF Done:  E(UM062X) =  -684.922757710     A.U. after   11 cycles
 SCF Done:  E(UM062X) =  -684.922773163     A.U. after   10 cycles
 SCF Done:  E(UM062X) =  -684.922795986     A.U. after   12 cycles
 SCF Done:  E(UM062X) =  -684.922824859     A.U. after   10 cycles
 SCF Done:  E(UM062X) =  -684.922846825     A.U. after   12 cycles
 SCF Done:  E(UM062X) =  -684.922871144     A.U. after   10 cycles
 SCF Done:  E(UM062X) =  -684.922901346     A.U. after   13 cycles
 SCF Done:  E(UM062X) =  -684.922911399     A.U. after   10 cycles
 SCF Done:  E(UM062X) =  -684.922921980     A.U. after   14 cycles
 SCF Done:  E(UM062X) =  -684.922982782     A.U. after   12 cycles
 SCF Done:  E(UM062X) =  -684.922978341     A.U. after   11 cycles
 SCF Done:  E(UM062X) =  -684.922982509     A.U. after   10 cycles
 SCF Done:  E(UM062X) =  -684.922984649     A.U. after   11 cycles
 SCF Done:  E(UM062X) =  -684.922985050     A.U. after    9 cycles
 SCF Done:  E(UM062X) =  -684.922985096     A.U. after    9 cycles
 Optimization completed.
    -- Stationary point found.

                          Input orientation:
 ---------------------------------------------------------------------
 Center     Atomic      Atomic             Coordinates (Angstroms)
 Number     Number       Type             X           Y           Z
 ---------------------------------------------------------------------
      1         15           0       -2.167217    0.000000    0.000000
      2         15           0        2.167217    0.000000    0.000000
      3          1           0        2.069619   -1.033770    0.966629
      4          1           0       -2.069383    1.099571    0.891204
      5          1           0        2.072400   -0.927333   -1.069753
      6          1           0       -2.071099    0.849431   -1.132343
 ---------------------------------------------------------------------

 Alpha  occ. eigenvalues --  -78.05056 -78.05056  -6.87447  -6.87446  -4.98996
 Alpha  occ. eigenvalues --   -4.98996  -4.98870  -4.98870  -4.98688  -4.98688
 Alpha  occ. eigenvalues --   -0.71221  -0.70844  -0.45120  -0.44967  -0.36276
 Alpha  occ. eigenvalues --   -0.36119  -0.24636
 Alpha virt. eigenvalues --   -0.14842   0.01614   0.02867   0.03213   0.04022
 Alpha virt. eigenvalues --    0.04841   0.05939   0.06083   0.06124   0.06204
 Alpha virt. eigenvalues --    0.07973   0.13630   0.18494   0.28643   0.29311

  Beta  occ. eigenvalues --  -78.05056 -78.05056  -6.87447  -6.87446  -4.98996
  Beta  occ. eigenvalues --   -4.98996  -4.98870  -4.98870  -4.98688  -4.98688
  Beta  occ. eigenvalues --   -0.71221  -0.70844  -0.45120  -0.44967  -0.36276
  Beta  occ. eigenvalues --   -0.36119  -0.24636
  Beta virt. eigenvalues --   -0.14842   0.01614   0.02867   0.03213   0.04022
  Beta virt. eigenvalues --    0.04841   0.05939   0.06083   0.06124   0.06204
  Beta virt. eigenvalues --    0.07973   0.13630   0.18494   0.28643   0.29311

 Mulliken charges and spin densities:
               1          2
     1  P   -0.003743   0.000000
     2  P   -0.003846  -0.000000
     3  H    0.002445   0.000000
     4  H    0.002435  -0.000000
     5  H    0.001353   0.000000
     6  H    0.001356  -0.000000
 Sum of Mulliken charges =  -0.00000  -0.00000

 Dipole moment (field-independent basis, Debye):
    X=              0.0003    Y=             -0.0055    Z=             -0.1559  Tot=              0.1560
 Quadrupole moment (field-independent basis, Debye-Ang):
   XX=            -28.6320   YY=            -31.2415   ZZ=            -28.5581
   XY=             -4.3646   XZ=              0.1541   YZ=              0.0948

 Normal termination of Gaussian 16 at Mon Apr 21 20:57:43 2025.
