 Gaussian 16, Revision A.03,
 Gaussian 16:  ES64L-G16RevA.03 25-Dec-2016

 --------------------------------------------
 #p opt UM062X/6-311+G** nosymm int=superfine
 --------------------------------------------

 -------------------
 Title Card Required
 -------------------
 Symbolic Z-matrix:
 Charge =  0 Multiplicity = 1

 SCF Done:  E(UM062X) =  -80.3955701769     A.U. after   16 cycles
 SCF Done:  E(UM062X) =  -80.3962158001     A.U. after   15 cycles
 SCF Done:  E(UM062X) =  -80.4021047002     A.U. after   21 cycles
 SCF Done:  E(UM062X) =  -80.4409932726     A.U. after   17 cycles
 SCF Done:  E(UM062X) =  -80.4763244279     A.U. after   15 cycles
 SCF Done:  E(UM062X) =  -80.4782515836     A.U. after   13 cycles
 SCF Done:  E(UM062X) =  -80.4820674296     A.U. after   19 cycles
 SCF Done:  E(UM062X) =  -80.4849738880     A.U. after   16 cycles
 SCF Done:  E(UM062X) =  -80.4947618619     A.U. after   14 cycles
 SCF Done:  E(UM062X) =  -80.4944863326     A.U. after   16 cycles
 SCF Done:  E(UM062X) =  -80.5009397947     A.U. after   23 cycles
 SCF Done:  E(UM062X) =  -80.4986854894     A.U. after   16 cycles
 SCF Done:  E(UM062X) =  -80.5014463126     A.U. after   13 cycles
 SCF Done:  E(UM062X) =  -80.5014651219     A.U. after   12 cycles
 SCF Done:  E(UM062X) =  -80.5014759621     A.U. after   13 cycles
 SCF Done:  E(UM062X) =  -80.5014769263     A.U. after   12 cycles
 SCF Done:  E(UM062X) =  -80.5014777036     A.U. after   12 cycles
 SCF Done:  E(UM062X) =  -80.5014777357     A.U. after   11 cycles
 Optimization completed.
    -- Stationary point found.

                          Input orientation:
 ---------------------------------------------------------------------
 Center     Atomic      Atomic             Coordinates (Angstroms)
 Number     Number       Type             X           Y           Z
 ---------------------------------------------------------------------
      1          5           0       -1.117066    0.000000    0.000000
      2          7           0        1.117066    0.000000    0.000000
      3          1           0       -2.288792   -0.047020   -0.230016
      4          1           0        1.134065    0.207245    1.015796
 ---------------------------------------------------------------------

 Alpha  occ. eigenvalues --  -14.77279  -7.20984  -0.84380  -0.61014  -0.41293
 Alpha  occ. eigenvalues --   -0.34909  -0.27223
 Alpha virt. eigenvalues --   -0.08616  -0.07778  -0.03562   0.00627   0.03985
 Alpha virt. eigenvalues --    0.04763   0.05323   0.13121   0.16211   0.18477
 Alpha virt. eigenvalues --    0.20024   0.21612   0.25903   0.35766   0.38326

  Beta  occ. eigenvalues --  -14.77279  -7.20984  -0.84380  -0.61014  -0.41293
  Beta  occ. eigenvalues --   -0.34909  -0.27223
  Beta virt. eigenvalues --   -0.08616  -0.07778  -0.03562   0.00627   0.03985
  Beta virt. eigenvalues --    0.04763   0.05323   0.13121   0.16211   0.18478
  Beta virt. eigenvalues --    0.20024   0.21612   0.25903   0.35766   0.38326

 Mulliken charges and spin densities:
               1          2
     1  B    0.143719  -0.000024
     2  N   -0.388802   0.000026
     3  H    0.069213  -0.000001
     4  H    0.175869  -0.000001
 Sum of Mulliken charges =  -0.00000   0.00000

 Dipole moment (field-independent basis, Debye):
    X=             -4.3781    Y=              0.2311    Z=              1.1330  Tot=              4.5282
 Quadrupole moment (field-independent basis, Debye-Ang):
   XX=            -10.6855   YY=            -15.3957   ZZ=            -12.3550
   XY=              0.4042   XZ=              1.9814   YZ=              0.6473

 Normal termination of Gaussian 16 at Mon Apr 21 18:04:27 2025.
