 Gaussian 16, Revision A.03,
 Gaussian 16:  ES64L-G16RevA.03 25-Dec-2016

 ---------------------------------------
 #p UM062X/6-311+G** force int=superfine
 ---------------------------------------

 -------------------
 Title Card Required
 -------------------
 Symbolic Z-matrix:
 Charge =  0 Multiplicity = 1

                         Standard orientation:
 ---------------------------------------------------------------------
 Center     Atomic      Atomic             Coordinates (Angstroms)
 Number     Number       Type             X           Y           Z
 ---------------------------------------------------------------------
      1          6           0        0.763582    0.000005    0.002399
      2          6           0       -0.763582   -0.000016   -0.002403
      3          1           0       -1.161636   -0.509670    0.877104
      4          1           0        1.155893    0.507960    0.885657
      5          1           0       -1.155892   -0.507937   -0.885649
      6          1           0       -1.158697    1.017798   -0.002772
      7          1           0        1.161637    0.509691   -0.877096
      8          1           0        1.158697   -1.017777    0.002781
 ---------------------------------------------------------------------

 SCF Done:  E(UM062X) =  -79.7970553690     A.U. after    8 cycles

 The electronic state is 1-A.
 Alpha  occ. eigenvalues --  -10.52166 -10.52129  -0.84850  -0.70025  -0.50251
 Alpha  occ. eigenvalues --   -0.50247  -0.42709  -0.40287  -0.40282
 Alpha virt. eigenvalues --    0.02183   0.04095   0.05479   0.05479   0.08775
 Alpha virt. eigenvalues --    0.08775   0.08924   0.13931   0.18746   0.18751
 Alpha virt. eigenvalues --    0.21077   0.21079   0.24137   0.27240   0.29122

  Beta  occ. eigenvalues --  -10.52166 -10.52129  -0.84850  -0.70025  -0.50251
  Beta  occ. eigenvalues --   -0.50247  -0.42709  -0.40287  -0.40282
  Beta virt. eigenvalues --    0.02183   0.04095   0.05479   0.05479   0.08775
  Beta virt. eigenvalues --    0.08775   0.08924   0.13931   0.18746   0.18751
  Beta virt. eigenvalues --    0.21077   0.21079   0.24137   0.27240   0.29122

 Mulliken charges and spin densities:
               1          2
     1  C   -0.469815   0.000000
     2  C   -0.469814  -0.000000
     3  H    0.156619   0.000000
     4  H    0.156596  -0.000000
     5  H    0.156599   0.000000
     6  H    0.156597   0.000000
     7  H    0.156618  -0.000000
     8  H    0.156601  -0.000000
 Sum of Mulliken charges =  -0.00000  -0.00000

 Dipole moment (field-independent basis, Debye):
    X=             -0.0000    Y=             -0.0000    Z=             -0.0000  Tot=              0.0000
 Quadrupole moment (field-independent basis, Debye-Ang):
   XX=            -15.6304   YY=            -14.9671   ZZ=            -14.9668
   XY=              0.0003   XZ=             -0.0026   YZ=             -0.0004

 Optimization completed.
    -- Stationary point found.
 Normal termination of Gaussian 16 at Tue Nov 19 12:43:40 2024.
