 Gaussian 16, Revision A.03,
 Gaussian 16:  ES64L-G16RevA.03 25-Dec-2016

 --------------------------------------------
 #p opt UM062X/6-311+G** nosymm int=superfine
 --------------------------------------------

 -------------------
 Title Card Required
 -------------------
 Symbolic Z-matrix:
 Charge =  0 Multiplicity = 1

 SCF Done:  E(UM062X) =  -398.036935164     A.U. after    8 cycles
 SCF Done:  E(UM062X) =  -398.036935164     A.U. after    1 cycles
 Optimization completed.
    -- Stationary point found.

                          Input orientation:
 ---------------------------------------------------------------------
 Center     Atomic      Atomic             Coordinates (Angstroms)
 Number     Number       Type             X           Y           Z
 ---------------------------------------------------------------------
      1         16           0       -0.950200    0.000000    0.000000
 ---------------------------------------------------------------------

 Alpha  occ. eigenvalues --  -89.96197  -8.32267  -6.25068  -6.23462  -6.23462
 Alpha  occ. eigenvalues --   -0.76422  -0.33653  -0.33653
 Alpha virt. eigenvalues --   -0.18899   0.03932   0.05055   0.05942   0.05942
 Alpha virt. eigenvalues --    0.34092   0.35287   0.35287   0.58762   0.78233
 Alpha virt. eigenvalues --    0.78233   0.78548   0.82264   0.82264   1.64036

  Beta  occ. eigenvalues --  -89.96197  -8.32267  -6.25068  -6.23462  -6.23462
  Beta  occ. eigenvalues --   -0.76422  -0.33653  -0.33653
  Beta virt. eigenvalues --   -0.18899   0.03932   0.05055   0.05942   0.05942
  Beta virt. eigenvalues --    0.34092   0.35287   0.35287   0.58762   0.78233
  Beta virt. eigenvalues --    0.78233   0.78548   0.82264   0.82264   1.64036

 Mulliken charges and spin densities:
               1          2
     1  S   -0.000000   0.000000
 Sum of Mulliken charges =  -0.00000   0.00000

 Dipole moment (field-independent basis, Debye):
    X=              0.0000    Y=              0.0000    Z=             -0.0000  Tot=              0.0000
 Quadrupole moment (field-independent basis, Debye-Ang):
   XX=            -14.6853   YY=            -13.6885   ZZ=            -11.6545
   XY=              0.8520   XZ=             -1.3115   YZ=             -2.2865

 Normal termination of Gaussian 16 at Wed Apr 16 09:18:30 2025.
