 Gaussian 16, Revision A.03,
 Gaussian 16:  ES64L-G16RevA.03 25-Dec-2016

 --------------------------------------------
 #p opt UM062X/6-311+G** nosymm int=superfine
 --------------------------------------------

 -------------------
 Title Card Required
 -------------------
 Symbolic Z-matrix:
 Charge =  0 Multiplicity = 1

 SCF Done:  E(UM062X) =  -438.462833611     A.U. after   15 cycles
 SCF Done:  E(UM062X) =  -438.476595604     A.U. after   12 cycles
 SCF Done:  E(UM062X) =  -438.484070648     A.U. after   13 cycles
 SCF Done:  E(UM062X) =  -438.484140130     A.U. after   12 cycles
 SCF Done:  E(UM062X) =  -438.484148665     A.U. after   11 cycles
 SCF Done:  E(UM062X) =  -438.484192098     A.U. after   12 cycles
 SCF Done:  E(UM062X) =  -438.484195302     A.U. after   11 cycles
 SCF Done:  E(UM062X) =  -438.484195751     A.U. after    8 cycles
 SCF Done:  E(UM062X) =  -438.484195794     A.U. after   15 cycles
 SCF Done:  E(UM062X) =  -438.484195837     A.U. after    7 cycles
 SCF Done:  E(UM062X) =  -438.484196179     A.U. after   15 cycles
 SCF Done:  E(UM062X) =  -438.484196224     A.U. after   13 cycles
 SCF Done:  E(UM062X) =  -438.484196312     A.U. after   13 cycles
 SCF Done:  E(UM062X) =  -438.484196417     A.U. after   16 cycles
 SCF Done:  E(UM062X) =  -438.484196580     A.U. after   14 cycles
 SCF Done:  E(UM062X) =  -438.484195027     A.U. after   14 cycles
 SCF Done:  E(UM062X) =  -438.484197339     A.U. after   16 cycles
 SCF Done:  E(UM062X) =  -438.484197418     A.U. after   14 cycles
 SCF Done:  E(UM062X) =  -438.484197437     A.U. after   11 cycles
 SCF Done:  E(UM062X) =  -438.484197446     A.U. after   10 cycles
 Optimization completed.
    -- Stationary point found.

                          Input orientation:
 ---------------------------------------------------------------------
 Center     Atomic      Atomic             Coordinates (Angstroms)
 Number     Number       Type             X           Y           Z
 ---------------------------------------------------------------------
      1          6           0       -2.260220    0.000000    0.000000
      2         16           0        2.260220    0.000000    0.000000
      3          1           0        2.234585   -1.342836   -0.068275
      4          1           0       -2.224842    1.080473   -0.013796
      5          1           0       -2.294281   -0.550698   -0.929750
      6          1           0       -2.291879   -0.526918    0.943519
 ---------------------------------------------------------------------

 Alpha  occ. eigenvalues --  -89.87287 -10.65164  -8.23620  -6.15657  -6.15603
 Alpha  occ. eigenvalues --   -6.15049  -0.83706  -0.75246  -0.55766  -0.55707
 Alpha  occ. eigenvalues --   -0.41795  -0.27738  -0.25561
 Alpha virt. eigenvalues --   -0.17585   0.00769   0.03563   0.03821   0.05449
 Alpha virt. eigenvalues --    0.07432   0.08269   0.08405   0.10634   0.13202
 Alpha virt. eigenvalues --    0.15257   0.15308   0.19805   0.35053   0.37353

  Beta  occ. eigenvalues --  -89.87287 -10.65164  -8.23620  -6.15657  -6.15603
  Beta  occ. eigenvalues --   -6.15049  -0.83706  -0.75246  -0.55766  -0.55707
  Beta  occ. eigenvalues --   -0.41795  -0.27738  -0.25561
  Beta virt. eigenvalues --   -0.17585   0.00769   0.03563   0.03821   0.05449
  Beta virt. eigenvalues --    0.07432   0.08269   0.08405   0.10634   0.13202
  Beta virt. eigenvalues --    0.15257   0.15308   0.19805   0.35053   0.37353

 Mulliken charges and spin densities:
               1          2
     1  C   -0.360864   0.000000
     2  S   -0.298694  -0.000000
     3  H    0.050171   0.000000
     4  H    0.204996   0.000000
     5  H    0.202027   0.000000
     6  H    0.202365  -0.000000
 Sum of Mulliken charges =  -0.00000   0.00000

 Dipole moment (field-independent basis, Debye):
    X=             -5.7231    Y=             -0.9593    Z=             -0.0491  Tot=              5.8032
 Quadrupole moment (field-independent basis, Debye-Ang):
   XX=            -21.1467   YY=            -19.6296   ZZ=            -23.6601
   XY=             -2.1934   XZ=             -0.1147   YZ=              0.2054

 Normal termination of Gaussian 16 at Mon Apr 21 19:39:52 2025.
