 Gaussian 16, Revision A.03,
 Gaussian 16:  ES64L-G16RevA.03 25-Dec-2016

 ---------------------------------------------------
 #p UM062X/6-311+G** force int=superfine pop=saveNBO
 ---------------------------------------------------

 -------------------
 Title Card Required
 -------------------
 Symbolic Z-matrix:
 Charge =  0 Multiplicity = 1

                         Standard orientation:
 ---------------------------------------------------------------------
 Center     Atomic      Atomic             Coordinates (Angstroms)
 Number     Number       Type             X           Y           Z
 ---------------------------------------------------------------------
      1          8           0        0.000000    0.000000   -1.460091
      2         16           0        0.000000    0.000000    0.730045
 ---------------------------------------------------------------------

 SCF Done:  E(UM062X) =  -473.127395144     A.U. after   16 cycles

 Unable to determine electronic state:  an orbital has unidentified symmetry.
 Alpha  occ. eigenvalues --  -90.03291 -19.75146  -8.38772  -6.30857  -6.30780
 Alpha  occ. eigenvalues --   -6.29905  -1.05633  -0.80598  -0.44433  -0.43723
 Alpha  occ. eigenvalues --   -0.39050  -0.36207
 Alpha virt. eigenvalues --   -0.21694  -0.13136   0.02568   0.04680   0.05248
 Alpha virt. eigenvalues --    0.05715   0.18412   0.20322   0.20627   0.27099
 Alpha virt. eigenvalues --    0.32954   0.33502   0.33888   0.59176   0.74236

  Beta  occ. eigenvalues --  -90.03291 -19.75146  -8.38772  -6.30857  -6.30780
  Beta  occ. eigenvalues --   -6.29905  -1.05633  -0.80598  -0.44433  -0.43723
  Beta  occ. eigenvalues --   -0.39050  -0.36207
  Beta virt. eigenvalues --   -0.21694  -0.13136   0.02568   0.04680   0.05248
  Beta virt. eigenvalues --    0.05715   0.18412   0.20322   0.20627   0.27099
  Beta virt. eigenvalues --    0.32954   0.33502   0.33888   0.59176   0.74236

 Mulliken charges and spin densities:
               1          2
     1  O   -0.239548   0.000000
     2  S    0.239548  -0.000000
 Sum of Mulliken charges =  -0.00000  -0.00000

 Dipole moment (field-independent basis, Debye):
    X=              0.0000    Y=              0.0000    Z=              2.5722  Tot=              2.5722
 Quadrupole moment (field-independent basis, Debye-Ang):
   XX=            -17.0037   YY=            -20.5192   ZZ=            -18.4634
   XY=              0.0000   XZ=              0.0000   YZ=              0.0000

 Summary of Natural Population Analysis:

                                       Natural Population
                Natural  -----------------------------------------------
    Atom  No    Charge         Core      Valence    Rydberg      Total
 -----------------------------------------------------------------------
      O    1   -0.18057      1.00000     3.17876    0.00181     4.18057
      S    2    0.18057      4.99998     2.81575    0.00370     7.81943
 =======================================================================
   * Total *    0.00000      5.99998     5.99451    0.00551    12.00000

 Normal termination of Gaussian 16 at Mon Apr 21 20:00:39 2025.
