 Gaussian 16, Revision A.03,
 Gaussian 16:  ES64L-G16RevA.03 25-Dec-2016

 ----------------------------------------------------------------------
 #p opt UM062X/6-311+G** nosymm int=superfine SCF=(MaxCycle=200,NoVarAc
 c,noincfock) guess=read
 ----------------------------------------------------------------------

 -------------------
 Title Card Required
 -------------------
 Symbolic Z-matrix:
 Charge =  1 Multiplicity = 2

 SCF Done:  E(UM062X) =  -379.299473522     A.U. after  109 cycles
 SCF Done:  E(UM062X) =  -379.300213959     A.U. after   38 cycles
 SCF Done:  E(UM062X) =  -379.300215324     A.U. after   44 cycles
 SCF Done:  E(UM062X) =  -379.300216302     A.U. after   67 cycles
 SCF Done:  E(UM062X) =  -379.312539249     A.U. after  113 cycles
 SCF Done:  E(UM062X) =  -379.276227969     A.U. after   83 cycles
 SCF Done:  E(UM062X) =  -379.315408751     A.U. after   49 cycles
 SCF Done:  E(UM062X) =  -379.318649005     A.U. after   86 cycles
 SCF Done:  E(UM062X) =  -379.320419686     A.U. after   75 cycles
 SCF Done:  E(UM062X) =  -379.321004361     A.U. after   81 cycles
 SCF Done:  E(UM062X) =  -379.319919969     A.U. after   35 cycles
 SCF Done:  E(UM062X) =  -379.321085471     A.U. after   41 cycles
 SCF Done:  E(UM062X) =  -379.321085848     A.U. after   24 cycles
 SCF Done:  E(UM062X) =  -379.321086288     A.U. after   19 cycles
 SCF Done:  E(UM062X) =  -379.321086533     A.U. after   36 cycles
 Optimization completed on the basis of negligible forces.
    -- Stationary point found.

                          Input orientation:
 ---------------------------------------------------------------------
 Center     Atomic      Atomic             Coordinates (Angstroms)
 Number     Number       Type             X           Y           Z
 ---------------------------------------------------------------------
      1          6           0       -1.894445    0.000003    0.000044
      2         15           0        1.894427    0.000049    0.000031
      3          1           0       -1.929304    0.943671   -0.608766
 ---------------------------------------------------------------------

 Alpha  occ. eigenvalues --  -78.34192 -10.97541  -7.15661  -5.27798  -5.27439
 Alpha  occ. eigenvalues --   -5.26392  -0.99269  -0.87190  -0.64531  -0.52738
 Alpha  occ. eigenvalues --   -0.48462
 Alpha virt. eigenvalues --   -0.36809  -0.35224  -0.34468  -0.13512  -0.09925
 Alpha virt. eigenvalues --   -0.08834  -0.08783  -0.06190  -0.05375  -0.05363
 Alpha virt. eigenvalues --   -0.02617   0.00034   0.14690   0.15804   0.15843

  Beta  occ. eigenvalues --  -78.33456 -10.97491  -7.15439  -5.27231  -5.26317
  Beta  occ. eigenvalues --   -5.25501  -0.98962  -0.82120  -0.64311  -0.47592
  Beta virt. eigenvalues --   -0.35416  -0.34236  -0.34039  -0.30281  -0.14027
  Beta virt. eigenvalues --   -0.10658  -0.08443  -0.08194  -0.06115  -0.05214
  Beta virt. eigenvalues --   -0.04664  -0.02864  -0.00088   0.13549   0.13939

 Mulliken charges and spin densities:
               1          2
     1  C    0.282473   0.077037
     2  P    0.504582   0.925701
     3  H    0.212946  -0.002738
 Sum of Mulliken charges =   1.00000   1.00000

 Dipole moment (field-independent basis, Debye):
    X=             -0.1052    Y=              1.5803    Z=             -1.0193  Tot=              1.8835
 Quadrupole moment (field-independent basis, Debye-Ang):
   XX=              0.6668   YY=            -15.1971   ZZ=            -16.1331
   XY=             -2.8455   XZ=              1.8347   YZ=             -1.0549

 Normal termination of Gaussian 16 at Tue Apr 22 00:06:40 2025.
