 Gaussian 16, Revision A.03,
 Gaussian 16:  ES64L-G16RevA.03 25-Dec-2016

 --------------------------------------------
 #p opt UM062X/6-311+G** nosymm int=superfine
 --------------------------------------------

 -------------------
 Title Card Required
 -------------------
 Symbolic Z-matrix:
 Charge =  0 Multiplicity = 1

 SCF Done:  E(UM062X) =  -797.527357443     A.U. after   12 cycles
 SCF Done:  E(UM062X) =  -797.528506260     A.U. after   11 cycles
 SCF Done:  E(UM062X) =  -797.528323944     A.U. after   12 cycles
 SCF Done:  E(UM062X) =  -797.528625152     A.U. after   10 cycles
 Optimization completed.
    -- Stationary point found.

                          Input orientation:
 ---------------------------------------------------------------------
 Center     Atomic      Atomic             Coordinates (Angstroms)
 Number     Number       Type             X           Y           Z
 ---------------------------------------------------------------------
      1         16           0       -1.243191    0.000000    0.000000
      2         16           0        1.243191    0.000000    0.000000
      3          1           0       -1.292676   -1.342036   -0.036022
      4          1           0        1.293217    0.074920    1.340266
 ---------------------------------------------------------------------

 Alpha  occ. eigenvalues --  -89.93872 -89.93869  -8.30086  -8.30083  -6.22238
 Alpha  occ. eigenvalues --   -6.22235  -6.21981  -6.21979  -6.21460  -6.21458
 Alpha  occ. eigenvalues --   -0.85080  -0.78323  -0.48532  -0.47174  -0.39121
 Alpha  occ. eigenvalues --   -0.33193  -0.32763
 Alpha virt. eigenvalues --   -0.09754   0.01722   0.03383   0.04839   0.05042
 Alpha virt. eigenvalues --    0.06059   0.07537   0.07610   0.07712   0.12387
 Alpha virt. eigenvalues --    0.13541   0.30989   0.31293   0.32601   0.34115

  Beta  occ. eigenvalues --  -89.93872 -89.93869  -8.30086  -8.30083  -6.22238
  Beta  occ. eigenvalues --   -6.22235  -6.21981  -6.21979  -6.21460  -6.21458
  Beta  occ. eigenvalues --   -0.85080  -0.78323  -0.48532  -0.47174  -0.39121
  Beta  occ. eigenvalues --   -0.33193  -0.32763
  Beta virt. eigenvalues --   -0.09754   0.01722   0.03383   0.04839   0.05042
  Beta virt. eigenvalues --    0.06059   0.07537   0.07610   0.07712   0.12387
  Beta virt. eigenvalues --    0.13541   0.30989   0.31293   0.32601   0.34115

 Mulliken charges and spin densities:
               1          2
     1  S   -0.089881  -0.000000
     2  S   -0.089963   0.000000
     3  H    0.089924  -0.000000
     4  H    0.089921  -0.000000
 Sum of Mulliken charges =  -0.00000   0.00000

 Dipole moment (field-independent basis, Debye):
    X=              0.0001    Y=             -0.9987    Z=              1.0281  Tot=              1.4333
 Quadrupole moment (field-independent basis, Debye-Ang):
   XX=            -26.2546   YY=            -27.6051   ZZ=            -27.6257
   XY=              1.8608   XZ=              1.8087   YZ=              0.3433

 Normal termination of Gaussian 16 at Mon Apr 21 20:36:28 2025.
