 Gaussian 16, Revision A.03,
 Gaussian 16:  ES64L-G16RevA.03 25-Dec-2016

 ---------------------------------------
 #p UM062X/6-311+G** force int=superfine
 ---------------------------------------

 -------------------
 Title Card Required
 -------------------
 Symbolic Z-matrix:
 Charge =  0 Multiplicity = 1

                         Standard orientation:
 ---------------------------------------------------------------------
 Center     Atomic      Atomic             Coordinates (Angstroms)
 Number     Number       Type             X           Y           Z
 ---------------------------------------------------------------------
      1          6           0        0.013549   -0.123054   -1.130988
      2          6           0       -0.013549    0.123054    1.130988
      3          1           0        0.409833    1.109968    1.270174
      4          1           0       -0.607050    0.697382   -1.469172
      5          1           0        0.607048   -0.697382    1.469175
      6          1           0       -1.066111    0.034460    1.369502
      7          1           0       -0.409832   -1.109968   -1.270173
      8          1           0        1.066110   -0.034459   -1.369505
 ---------------------------------------------------------------------

 SCF Done:  E(UM062X) =  -79.7041368353     A.U. after    8 cycles

 The electronic state is 1-A.
 Alpha  occ. eigenvalues --  -10.55334 -10.55328  -0.77888  -0.73604  -0.48261
 Alpha  occ. eigenvalues --   -0.48261  -0.45661  -0.45661  -0.29963
 Alpha virt. eigenvalues --    0.00220   0.02455   0.05577   0.05577   0.07900
 Alpha virt. eigenvalues --    0.08337   0.08337   0.09874   0.13195   0.18162
 Alpha virt. eigenvalues --    0.18162   0.22097   0.22097   0.24362   0.26467

  Beta  occ. eigenvalues --  -10.55334 -10.55328  -0.77888  -0.73604  -0.48261
  Beta  occ. eigenvalues --   -0.48261  -0.45661  -0.45661  -0.29963
  Beta virt. eigenvalues --    0.00220   0.02455   0.05577   0.05577   0.07900
  Beta virt. eigenvalues --    0.08337   0.08337   0.09874   0.13195   0.18162
  Beta virt. eigenvalues --    0.18162   0.22097   0.22097   0.24362   0.26467

 Mulliken charges and spin densities:
               1          2
     1  C   -0.506068   0.000000
     2  C   -0.506069  -0.000000
     3  H    0.168690   0.000000
     4  H    0.168689  -0.000000
     5  H    0.168689   0.000000
     6  H    0.168690   0.000000
     7  H    0.168690  -0.000000
     8  H    0.168690  -0.000000
 Sum of Mulliken charges =  -0.00000   0.00000

 Dipole moment (field-independent basis, Debye):
    X=             -0.0000    Y=              0.0000    Z=             -0.0000  Tot=              0.0000
 Quadrupole moment (field-independent basis, Debye-Ang):
   XX=            -14.8275   YY=            -14.8357   ZZ=            -15.5387
   XY=              0.0009   XZ=              0.0085   YZ=             -0.0774

 Normal termination of Gaussian 16 at Tue Nov 19 12:54:52 2024.
