 Gaussian 16, Revision A.03,
 Gaussian 16:  ES64L-G16RevA.03 25-Dec-2016

 ---------------------------------------------------
 #p UM062X/6-311+G** force int=superfine pop=saveNBO
 ---------------------------------------------------

 -------------------
 Title Card Required
 -------------------
 Symbolic Z-matrix:
 Charge =  0 Multiplicity = 1

                         Standard orientation:
 ---------------------------------------------------------------------
 Center     Atomic      Atomic             Coordinates (Angstroms)
 Number     Number       Type             X           Y           Z
 ---------------------------------------------------------------------
      1         16           0        0.000000    0.000000    1.400200
      2         16           0        0.000000    0.000000   -1.400200
 ---------------------------------------------------------------------

 SCF Done:  E(UM062X) =  -796.160981142     A.U. after    9 cycles

 Unable to determine electronic state:  partially filled degenerate orbitals.
 Alpha  occ. eigenvalues --  -89.99103 -89.99103  -8.34770  -8.34767  -6.26808
 Alpha  occ. eigenvalues --   -6.26808  -6.26791  -6.26790  -6.25958  -6.25958
 Alpha  occ. eigenvalues --   -0.80538  -0.75718  -0.38315  -0.36260  -0.33939
 Alpha  occ. eigenvalues --   -0.33014
 Alpha virt. eigenvalues --   -0.21205  -0.15375   0.03137   0.03850   0.04953
 Alpha virt. eigenvalues --    0.05522   0.07355   0.07474   0.07828   0.13903
 Alpha virt. eigenvalues --    0.31345   0.31977   0.32965   0.36157   0.37029

  Beta  occ. eigenvalues --  -89.99103 -89.99103  -8.34770  -8.34767  -6.26808
  Beta  occ. eigenvalues --   -6.26808  -6.26791  -6.26790  -6.25958  -6.25958
  Beta  occ. eigenvalues --   -0.80538  -0.75718  -0.38315  -0.36260  -0.33939
  Beta  occ. eigenvalues --   -0.33014
  Beta virt. eigenvalues --   -0.21205  -0.15375   0.03137   0.03850   0.04953
  Beta virt. eigenvalues --    0.05522   0.07355   0.07474   0.07828   0.13903
  Beta virt. eigenvalues --    0.31345   0.31977   0.32965   0.36157   0.37029

 Mulliken charges and spin densities:
               1          2
     1  S   -0.000000  -0.000000
     2  S   -0.000000  -0.000000
 Sum of Mulliken charges =  -0.00000  -0.00000

 Dipole moment (field-independent basis, Debye):
    X=              0.0000    Y=             -0.0000    Z=             -0.0000  Tot=              0.0000
 Quadrupole moment (field-independent basis, Debye-Ang):
   XX=            -25.2225   YY=            -30.1090   ZZ=            -23.1004
   XY=              0.0000   XZ=             -0.0000   YZ=              0.0000

 Summary of Natural Population Analysis:

                                       Natural Population
                Natural  -----------------------------------------------
    Atom  No    Charge         Core      Valence    Rydberg      Total
 -----------------------------------------------------------------------
      S    1   -0.00000      4.99999     2.99824    0.00177     8.00000
      S    2   -0.00000      4.99999     2.99824    0.00177     8.00000
 =======================================================================
   * Total *   -0.00000      9.99998     5.99648    0.00355    16.00000

 Normal termination of Gaussian 16 at Mon Apr 21 20:07:59 2025.
