 Gaussian 16, Revision A.03,
 Gaussian 16:  ES64L-G16RevA.03 25-Dec-2016

 --------------------------------------------
 #p opt UM062X/6-311+G** nosymm int=superfine
 --------------------------------------------

 -------------------
 Title Card Required
 -------------------
 Symbolic Z-matrix:
 Charge =  1 Multiplicity = 2

 SCF Done:  E(UM062X) =  -582.140399868     A.U. after   11 cycles
 SCF Done:  E(UM062X) =  -582.141096066     A.U. after    9 cycles
 SCF Done:  E(UM062X) =  -582.141250276     A.U. after    9 cycles
 SCF Done:  E(UM062X) =  -582.141250416     A.U. after    7 cycles
 Optimization completed.
    -- Stationary point found.

                          Input orientation:
 ---------------------------------------------------------------------
 Center     Atomic      Atomic             Coordinates (Angstroms)
 Number     Number       Type             X           Y           Z
 ---------------------------------------------------------------------
      1         14           0       -2.201292    0.000000    0.000000
      2         14           0        2.201292    0.000000    0.000000
      3          1           0        2.322630   -1.459602   -0.000008
      4          1           0       -2.321936   -0.729679    1.264191
      5          1           0        2.322440    0.729838   -1.264049
      6          1           0        2.321750    0.729765    1.264159
      7          1           0       -2.322655    1.459600   -0.000128
      8          1           0       -2.322229   -0.729929   -1.264017
 ---------------------------------------------------------------------

 Alpha  occ. eigenvalues --  -67.22702 -67.22702  -5.77534  -5.77533  -4.09215
 Alpha  occ. eigenvalues --   -4.09215  -4.08406  -4.08405  -4.08405  -4.08405
 Alpha  occ. eigenvalues --   -0.81282  -0.80804  -0.61603  -0.61602  -0.61475
 Alpha  occ. eigenvalues --   -0.61474  -0.41328
 Alpha virt. eigenvalues --   -0.29537  -0.12424  -0.11871  -0.09960  -0.09846
 Alpha virt. eigenvalues --   -0.09844  -0.08600  -0.08599  -0.07744  -0.07480
 Alpha virt. eigenvalues --   -0.07480  -0.06209  -0.06208  -0.04665   0.00711

  Beta  occ. eigenvalues --  -67.22436 -67.22436  -5.77455  -5.77453  -4.08593
  Beta  occ. eigenvalues --   -4.08593  -4.08314  -4.08314  -4.08314  -4.08314
  Beta  occ. eigenvalues --   -0.79520  -0.79236  -0.61474  -0.61473  -0.61335
  Beta  occ. eigenvalues --   -0.61334
  Beta virt. eigenvalues --   -0.31717  -0.22985  -0.14894  -0.12777  -0.12774
  Beta virt. eigenvalues --   -0.10928  -0.10895  -0.09077  -0.09076  -0.07242
  Beta virt. eigenvalues --   -0.07065  -0.07065  -0.05860  -0.05859  -0.05503

 Mulliken charges and spin densities:
               1          2
     1  Si   0.499242   0.550551
     2  Si   0.499242   0.550551
     3  H    0.000257  -0.016854
     4  H    0.000248  -0.016848
     5  H    0.000257  -0.016850
     6  H    0.000245  -0.016847
     7  H    0.000257  -0.016854
     8  H    0.000253  -0.016849
 Sum of Mulliken charges =   1.00000   1.00000

 Dipole moment (field-independent basis, Debye):
    X=              0.0000    Y=             -0.0000    Z=              0.0001  Tot=              0.0001
 Quadrupole moment (field-independent basis, Debye-Ang):
   XX=              2.8901   YY=            -26.2036   ZZ=            -26.2033
   XY=              0.0006   XZ=              0.0001   YZ=             -0.0000

 Normal termination of Gaussian 16 at Mon Apr 21 20:15:23 2025.
