 Gaussian 16, Revision A.03,
 Gaussian 16:  ES64L-G16RevA.03 25-Dec-2016

 --------------------------------------------
 #p opt UM062X/6-311+G** nosymm int=superfine
 --------------------------------------------

 -------------------
 Title Card Required
 -------------------
 Symbolic Z-matrix:
 Charge =  0 Multiplicity = 1

 SCF Done:  E(UM062X) =  -379.600708258     A.U. after   15 cycles
 SCF Done:  E(UM062X) =  -379.601965332     A.U. after   11 cycles
 SCF Done:  E(UM062X) =  -379.601969888     A.U. after    8 cycles
 Optimization completed.
    -- Stationary point found.

                          Input orientation:
 ---------------------------------------------------------------------
 Center     Atomic      Atomic             Coordinates (Angstroms)
 Number     Number       Type             X           Y           Z
 ---------------------------------------------------------------------
      1          6           0       -1.565377    0.000000    0.000000
      2         15           0        1.565377    0.000000    0.000000
      3          1           0       -2.684931    0.000000   -0.000000
 ---------------------------------------------------------------------

 Alpha  occ. eigenvalues --  -78.08529 -10.71054  -6.90322  -5.02170  -5.01310
 Alpha  occ. eigenvalues --   -5.01310  -0.75901  -0.61344  -0.41905  -0.24879
 Alpha  occ. eigenvalues --   -0.24879
 Alpha virt. eigenvalues --   -0.14326  -0.14326  -0.11299   0.01276   0.04020
 Alpha virt. eigenvalues --    0.05935   0.05935   0.07544   0.08934   0.08934
 Alpha virt. eigenvalues --    0.14043   0.17993   0.32847   0.32847   0.33518

  Beta  occ. eigenvalues --  -78.08529 -10.71054  -6.90322  -5.02170  -5.01310
  Beta  occ. eigenvalues --   -5.01310  -0.75901  -0.61344  -0.41905  -0.24879
  Beta  occ. eigenvalues --   -0.24879
  Beta virt. eigenvalues --   -0.14326  -0.14326  -0.11299   0.01276   0.04020
  Beta virt. eigenvalues --    0.05935   0.05935   0.07544   0.08934   0.08934
  Beta virt. eigenvalues --    0.14043   0.17993   0.32847   0.32847   0.33518

 Mulliken charges and spin densities:
               1          2
     1  C   -0.183862   0.000000
     2  P    0.003650  -0.000000
     3  H    0.180212  -0.000000
 Sum of Mulliken charges =   0.00000  -0.00000

 Dipole moment (field-independent basis, Debye):
    X=             -2.1075    Y=             -0.0000    Z=              0.0000  Tot=              2.1075
 Quadrupole moment (field-independent basis, Debye-Ang):
   XX=            -10.7897   YY=            -23.9868   ZZ=            -23.9868
   XY=              0.0000   XZ=             -0.0000   YZ=             -0.0000

 Normal termination of Gaussian 16 at Mon Apr 21 19:30:17 2025.
