 Gaussian 16, Revision A.03,
 Gaussian 16:  ES64L-G16RevA.03 25-Dec-2016

 --------------------------------------------
 #p opt UM062X/6-311+G** nosymm int=superfine
 --------------------------------------------

 -------------------
 Title Card Required
 -------------------
 Symbolic Z-matrix:
 Charge =  1 Multiplicity = 2

 SCF Done:  E(UM062X) =  -76.8490309297     A.U. after   10 cycles
 SCF Done:  E(UM062X) =  -76.8672203270     A.U. after   10 cycles
 SCF Done:  E(UM062X) =  -76.8673198123     A.U. after    8 cycles
 Optimization completed.
    -- Stationary point found.

                          Input orientation:
 ---------------------------------------------------------------------
 Center     Atomic      Atomic             Coordinates (Angstroms)
 Number     Number       Type             X           Y           Z
 ---------------------------------------------------------------------
      1          6           0       -0.559208    0.000000    0.000000
      2          6           0        0.559208    0.000000    0.000000
      3          1           0       -1.636680    0.000000   -0.000000
      4          1           0        1.636679    0.000000    0.000000
 ---------------------------------------------------------------------

 Alpha  occ. eigenvalues --  -10.92093 -10.91558  -1.27545  -0.96237  -0.90503
 Alpha  occ. eigenvalues --   -0.76924  -0.73891
 Alpha virt. eigenvalues --   -0.23778  -0.21839  -0.14598  -0.14463  -0.11785
 Alpha virt. eigenvalues --   -0.10796  -0.10539  -0.04326  -0.04177  -0.03788
 Alpha virt. eigenvalues --    0.02355   0.04512   0.17755   0.18398   0.27697

  Beta  occ. eigenvalues --  -10.91812 -10.91312  -1.22324  -0.94686  -0.89855
  Beta  occ. eigenvalues --   -0.71298
  Beta virt. eigenvalues --   -0.48667  -0.20405  -0.18333  -0.15641  -0.13885
  Beta virt. eigenvalues --   -0.11812  -0.11055  -0.10689  -0.03612  -0.03477
  Beta virt. eigenvalues --   -0.02668   0.02344   0.04836   0.18477   0.18848

 Mulliken charges and spin densities:
               1          2
     1  C    0.212022   0.519584
     2  C    0.212022   0.519584
     3  H    0.287979  -0.019584
     4  H    0.287978  -0.019584
 Sum of Mulliken charges =   1.00000   1.00000

 Dipole moment (field-independent basis, Debye):
    X=             -0.0000    Y=              0.0000    Z=              0.0000  Tot=              0.0000
 Quadrupole moment (field-independent basis, Debye-Ang):
   XX=             -1.3377   YY=            -10.9233   ZZ=             -9.2691
   XY=              0.0000   XZ=              0.0000   YZ=             -0.1721

 Normal termination of Gaussian 16 at Tue Nov 19 12:58:46 2024.
