 Gaussian 16, Revision A.03,
 Gaussian 16:  ES64L-G16RevA.03 25-Dec-2016

 --------------------------------------------
 #p opt UM062X/6-311+G** nosymm int=superfine
 --------------------------------------------

 -------------------
 Title Card Required
 -------------------
 Symbolic Z-matrix:
 Charge =  0 Multiplicity = 1

 SCF Done:  E(UM062X) =  -438.524630196     A.U. after   12 cycles
 SCF Done:  E(UM062X) =  -438.537056064     A.U. after   11 cycles
 SCF Done:  E(UM062X) =  -438.541780571     A.U. after   11 cycles
 SCF Done:  E(UM062X) =  -438.541824274     A.U. after   10 cycles
 SCF Done:  E(UM062X) =  -438.541840983     A.U. after    9 cycles
 SCF Done:  E(UM062X) =  -438.541849592     A.U. after    9 cycles
 SCF Done:  E(UM062X) =  -438.541851196     A.U. after   11 cycles
 SCF Done:  E(UM062X) =  -438.541851720     A.U. after    8 cycles
 SCF Done:  E(UM062X) =  -438.541851890     A.U. after    8 cycles
 Optimization completed.
    -- Stationary point found.

                          Input orientation:
 ---------------------------------------------------------------------
 Center     Atomic      Atomic             Coordinates (Angstroms)
 Number     Number       Type             X           Y           Z
 ---------------------------------------------------------------------
      1          6           0       -1.610220    0.000000    0.000000
      2         16           0        1.610220    0.000000    0.000000
      3          1           0        1.571124   -1.343846   -0.001261
      4          1           0       -1.658816    1.079733    0.002598
      5          1           0       -1.690537   -0.533381   -0.936738
      6          1           0       -1.690649   -0.537879    0.934154
 ---------------------------------------------------------------------

 Alpha  occ. eigenvalues --  -89.88479 -10.63967  -8.24726  -6.16783  -6.16700
 Alpha  occ. eigenvalues --   -6.16159  -0.82275  -0.76087  -0.54164  -0.54067
 Alpha  occ. eigenvalues --   -0.42639  -0.29208  -0.28568
 Alpha virt. eigenvalues --   -0.13170   0.01474   0.04055   0.04700   0.05580
 Alpha virt. eigenvalues --    0.07567   0.08168   0.08484   0.11009   0.13565
 Alpha virt. eigenvalues --    0.16388   0.16906   0.22039   0.33320   0.36463

  Beta  occ. eigenvalues --  -89.88479 -10.63967  -8.24726  -6.16783  -6.16700
  Beta  occ. eigenvalues --   -6.16159  -0.82275  -0.76087  -0.54164  -0.54067
  Beta  occ. eigenvalues --   -0.42639  -0.29208  -0.28568
  Beta virt. eigenvalues --   -0.13170   0.01474   0.04055   0.04700   0.05580
  Beta virt. eigenvalues --    0.07567   0.08168   0.08484   0.11009   0.13565
  Beta virt. eigenvalues --    0.16388   0.16906   0.22039   0.33320   0.36463

 Mulliken charges and spin densities:
               1          2
     1  C   -0.426886   0.000002
     2  S   -0.255022  -0.000002
     3  H    0.054716   0.000000
     4  H    0.210420  -0.000000
     5  H    0.208400  -0.000000
     6  H    0.208372  -0.000000
 Sum of Mulliken charges =  -0.00000  -0.00000

 Dipole moment (field-independent basis, Debye):
    X=             -3.9155    Y=             -0.9458    Z=             -0.0009  Tot=              4.0281
 Quadrupole moment (field-independent basis, Debye-Ang):
   XX=            -20.6884   YY=            -19.5083   ZZ=            -23.5555
   XY=             -1.6717   XZ=             -0.0016   YZ=              0.0038

 Normal termination of Gaussian 16 at Mon Apr 21 19:37:10 2025.
