 Gaussian 16, Revision A.03,
 Gaussian 16:  ES64L-G16RevA.03 25-Dec-2016

 --------------------------------------------
 #p opt UM062X/6-311+G** nosymm int=superfine
 --------------------------------------------

 -------------------
 Title Card Required
 -------------------
 Symbolic Z-matrix:
 Charge =  0 Multiplicity = 1

 SCF Done:  E(UM062X) =  -379.697657789     A.U. after   12 cycles
 SCF Done:  E(UM062X) =  -379.698236203     A.U. after   10 cycles
 Optimization completed.
    -- Stationary point found.

                          Input orientation:
 ---------------------------------------------------------------------
 Center     Atomic      Atomic             Coordinates (Angstroms)
 Number     Number       Type             X           Y           Z
 ---------------------------------------------------------------------
      1          6           0       -1.240377    0.000000    0.000000
      2         15           0        1.240377    0.000000    0.000000
      3          1           0       -2.343543   -0.000000    0.000000
 ---------------------------------------------------------------------

 Alpha  occ. eigenvalues --  -78.10683 -10.69213  -6.92166  -5.03755  -5.03309
 Alpha  occ. eigenvalues --   -5.03309  -0.74735  -0.63135  -0.41733  -0.27116
 Alpha  occ. eigenvalues --   -0.27116
 Alpha virt. eigenvalues --   -0.11827  -0.11827  -0.08166   0.01588   0.04077
 Alpha virt. eigenvalues --    0.05562   0.05562   0.07284   0.09781   0.09781
 Alpha virt. eigenvalues --    0.15466   0.20337   0.30071   0.32751   0.32751

  Beta  occ. eigenvalues --  -78.10683 -10.69213  -6.92166  -5.03755  -5.03309
  Beta  occ. eigenvalues --   -5.03309  -0.74735  -0.63135  -0.41733  -0.27116
  Beta  occ. eigenvalues --   -0.27116
  Beta virt. eigenvalues --   -0.11827  -0.11827  -0.08166   0.01588   0.04077
  Beta virt. eigenvalues --    0.05562   0.05562   0.07284   0.09781   0.09781
  Beta virt. eigenvalues --    0.15466   0.20337   0.30071   0.32751   0.32751

 Mulliken charges and spin densities:
               1          2
     1  C   -0.332466  -0.000000
     2  P    0.114174   0.000000
     3  H    0.218292   0.000000
 Sum of Mulliken charges =  -0.00000   0.00000

 Dipole moment (field-independent basis, Debye):
    X=             -0.7904    Y=             -0.0000    Z=              0.0000  Tot=              0.7904
 Quadrupole moment (field-independent basis, Debye-Ang):
   XX=            -12.1672   YY=            -23.1859   ZZ=            -23.1859
   XY=              0.0000   XZ=              0.0000   YZ=             -0.0000

 Normal termination of Gaussian 16 at Mon Apr 21 19:29:47 2025.
