 Gaussian 16, Revision A.03,
 Gaussian 16:  ES64L-G16RevA.03 25-Dec-2016

 --------------------------------------------
 #p opt UM062X/6-311+G** nosymm int=superfine
 --------------------------------------------

 -------------------
 Title Card Required
 -------------------
 Symbolic Z-matrix:
 Charge =  0 Multiplicity = 1

 SCF Done:  E(UM062X) =  -684.913933690     A.U. after   11 cycles
 SCF Done:  E(UM062X) =  -684.914646654     A.U. after   10 cycles
 SCF Done:  E(UM062X) =  -684.915134980     A.U. after   10 cycles
 SCF Done:  E(UM062X) =  -684.915636654     A.U. after   10 cycles
 SCF Done:  E(UM062X) =  -684.915830249     A.U. after   13 cycles
 SCF Done:  E(UM062X) =  -684.915928655     A.U. after    9 cycles
 SCF Done:  E(UM062X) =  -684.915943613     A.U. after   11 cycles
 SCF Done:  E(UM062X) =  -684.915960189     A.U. after   10 cycles
 SCF Done:  E(UM062X) =  -684.915990575     A.U. after   12 cycles
 SCF Done:  E(UM062X) =  -684.916018805     A.U. after   11 cycles
 SCF Done:  E(UM062X) =  -684.912516306     A.U. after   13 cycles
 SCF Done:  E(UM062X) =  -684.916111741     A.U. after   12 cycles
 SCF Done:  E(UM062X) =  -684.916140095     A.U. after   12 cycles
 SCF Done:  E(UM062X) =  -684.916128995     A.U. after   14 cycles
 SCF Done:  E(UM062X) =  -684.916142207     A.U. after   12 cycles
 SCF Done:  E(UM062X) =  -684.916143435     A.U. after   11 cycles
 SCF Done:  E(UM062X) =  -684.916146192     A.U. after   10 cycles
 SCF Done:  E(UM062X) =  -684.916146424     A.U. after    9 cycles
 SCF Done:  E(UM062X) =  -684.916146531     A.U. after    9 cycles
 SCF Done:  E(UM062X) =  -684.916146589     A.U. after   11 cycles
 Optimization completed.
    -- Stationary point found.

                          Input orientation:
 ---------------------------------------------------------------------
 Center     Atomic      Atomic             Coordinates (Angstroms)
 Number     Number       Type             X           Y           Z
 ---------------------------------------------------------------------
      1         15           0       -2.267217    0.000000    0.000000
      2         15           0        2.267217    0.000000    0.000000
      3          1           0        2.163745   -0.846007    1.134239
      4          1           0       -2.164723    0.924708    1.071364
      5          1           0        2.159706   -1.101002   -0.888413
      6          1           0       -2.160829    1.034874   -0.964527
 ---------------------------------------------------------------------

 Alpha  occ. eigenvalues --  -78.05017 -78.05017  -6.87421  -6.87420  -4.98968
 Alpha  occ. eigenvalues --   -4.98968  -4.98845  -4.98844  -4.98662  -4.98662
 Alpha  occ. eigenvalues --   -0.71203  -0.70909  -0.45128  -0.45018  -0.36279
 Alpha  occ. eigenvalues --   -0.36165  -0.24208
 Alpha virt. eigenvalues --   -0.15302   0.01578   0.02854   0.03200   0.04015
 Alpha virt. eigenvalues --    0.04836   0.05902   0.06080   0.06122   0.06152
 Alpha virt. eigenvalues --    0.07916   0.13182   0.18387   0.28837   0.29543

  Beta  occ. eigenvalues --  -78.05017 -78.05017  -6.87421  -6.87420  -4.98968
  Beta  occ. eigenvalues --   -4.98968  -4.98845  -4.98844  -4.98662  -4.98662
  Beta  occ. eigenvalues --   -0.71203  -0.70909  -0.45128  -0.45018  -0.36279
  Beta  occ. eigenvalues --   -0.36165  -0.24208
  Beta virt. eigenvalues --   -0.15302   0.01578   0.02854   0.03200   0.04015
  Beta virt. eigenvalues --    0.04836   0.05902   0.06080   0.06122   0.06152
  Beta virt. eigenvalues --    0.07916   0.13182   0.18387   0.28837   0.29543

 Mulliken charges and spin densities:
               1          2
     1  P    0.002094   0.000000
     2  P    0.002219  -0.000000
     3  H   -0.001582   0.000000
     4  H   -0.001577  -0.000000
     5  H   -0.000577   0.000000
     6  H   -0.000576  -0.000000
 Sum of Mulliken charges =   0.00000  -0.00000

 Dipole moment (field-independent basis, Debye):
    X=             -0.0005    Y=              0.0057    Z=              0.1603  Tot=              0.1604
 Quadrupole moment (field-independent basis, Debye-Ang):
   XX=            -28.7992   YY=            -31.2394   ZZ=            -28.5569
   XY=             -4.4964   XZ=              0.1611   YZ=              0.0956

 Normal termination of Gaussian 16 at Mon Apr 21 20:58:05 2025.
