 Gaussian 16, Revision A.03,
 Gaussian 16:  ES64L-G16RevA.03 25-Dec-2016

 --------------------------------------------
 #p opt UM062X/6-311+G** nosymm int=superfine
 --------------------------------------------

 -------------------
 Title Card Required
 -------------------
 Symbolic Z-matrix:
 Charge =  1 Multiplicity = 2

 SCF Done:  E(UM062X) =  -79.3421361281     A.U. after   10 cycles
 SCF Done:  E(UM062X) =  -79.3421506378     A.U. after    8 cycles
 Optimization completed.
    -- Stationary point found.

                          Input orientation:
 ---------------------------------------------------------------------
 Center     Atomic      Atomic             Coordinates (Angstroms)
 Number     Number       Type             X           Y           Z
 ---------------------------------------------------------------------
      1          6           0       -1.469472    0.000000    0.000000
      2          6           0        1.469472    0.000000    0.000000
      3          1           0        1.524251   -0.937066    0.542345
      4          1           0       -1.523030   -0.938179   -0.540539
      5          1           0        1.523741    0.938268    0.540317
      6          1           0        1.523097   -0.001154   -1.082750
      7          1           0       -1.524285    0.937155   -0.542191
      8          1           0       -1.523762    0.000928    1.082718
 ---------------------------------------------------------------------

 Alpha  occ. eigenvalues --  -10.85185 -10.85182  -1.04450  -1.02623  -0.75003
 Alpha  occ. eigenvalues --   -0.75002  -0.74100  -0.74100  -0.53388
 Alpha virt. eigenvalues --   -0.34862  -0.14293  -0.10351  -0.10351  -0.10123
 Alpha virt. eigenvalues --   -0.06220  -0.06220  -0.05513  -0.03205  -0.02495
 Alpha virt. eigenvalues --   -0.02493   0.01390   0.01393   0.05185   0.07568

  Beta  occ. eigenvalues --  -10.84988 -10.84988  -1.01494  -1.00234  -0.74427
  Beta  occ. eigenvalues --   -0.74426  -0.73593  -0.73593
  Beta virt. eigenvalues --   -0.32783  -0.25173  -0.15438  -0.11125  -0.11125
  Beta virt. eigenvalues --   -0.09878  -0.06468  -0.06467  -0.05608  -0.02679
  Beta virt. eigenvalues --   -0.02676  -0.02365   0.01717   0.01719   0.06048

 Mulliken charges and spin densities:
               1          2
     1  C   -0.274333   0.569901
     2  C   -0.274334   0.569902
     3  H    0.258134  -0.023302
     4  H    0.258085  -0.023299
     5  H    0.258113  -0.023301
     6  H    0.258087  -0.023299
     7  H    0.258135  -0.023302
     8  H    0.258113  -0.023301
 Sum of Mulliken charges =   1.00000   1.00000

 Dipole moment (field-independent basis, Debye):
    X=             -0.0000    Y=             -0.0000    Z=             -0.0001  Tot=              0.0001
 Quadrupole moment (field-independent basis, Debye-Ang):
   XX=             -0.7919   YY=            -11.0145   ZZ=            -11.0146
   XY=             -0.0014   XZ=              0.0007   YZ=             -0.0000

 Normal termination of Gaussian 16 at Wed Nov 13 12:34:30 2024.
