 Gaussian 16, Revision A.03,
 Gaussian 16:  ES64L-G16RevA.03 25-Dec-2016

 --------------------------------------------
 #p opt UM062X/6-311+G** nosymm int=superfine
 --------------------------------------------

 -------------------
 Title Card Required
 -------------------
 Symbolic Z-matrix:
 Charge =  0 Multiplicity = 1

 SCF Done:  E(UM062X) =  -76.9979154664     A.U. after   13 cycles
 SCF Done:  E(UM062X) =  -76.9974916313     A.U. after   13 cycles
 SCF Done:  E(UM062X) =  -76.9983018411     A.U. after   12 cycles
 SCF Done:  E(UM062X) =  -76.9984142595     A.U. after   12 cycles
 SCF Done:  E(UM062X) =  -76.9984144328     A.U. after   10 cycles
 Optimization completed.
    -- Stationary point found.

                          Input orientation:
 ---------------------------------------------------------------------
 Center     Atomic      Atomic             Coordinates (Angstroms)
 Number     Number       Type             X           Y           Z
 ---------------------------------------------------------------------
      1          6           0       -1.107625    0.000000    0.000000
      2          6           0        1.107625    0.000000    0.000000
      3          1           0       -1.136645    0.348072    1.062352
      4          1           0        1.136833    1.023906   -0.448724
 ---------------------------------------------------------------------

 Alpha  occ. eigenvalues --  -10.66301 -10.66292  -0.75872  -0.68879  -0.40221
 Alpha  occ. eigenvalues --   -0.37925  -0.29659
 Alpha virt. eigenvalues --   -0.09295  -0.08739  -0.00776   0.02715   0.06356
 Alpha virt. eigenvalues --    0.07655   0.08114   0.09870   0.10135   0.10405
 Alpha virt. eigenvalues --    0.15760   0.16521   0.21055   0.45662   0.47459

  Beta  occ. eigenvalues --  -10.66301 -10.66292  -0.75872  -0.68879  -0.40221
  Beta  occ. eigenvalues --   -0.37925  -0.29659
  Beta virt. eigenvalues --   -0.09295  -0.08739  -0.00776   0.02715   0.06356
  Beta virt. eigenvalues --    0.07655   0.08114   0.09870   0.10135   0.10405
  Beta virt. eigenvalues --    0.15760   0.16521   0.21055   0.45662   0.47459

 Mulliken charges and spin densities:
               1          2
     1  C   -0.139526  -0.000000
     2  C   -0.139564   0.000000
     3  H    0.139542   0.000000
     4  H    0.139548  -0.000000
 Sum of Mulliken charges =  -0.00000   0.00000

 Dipole moment (field-independent basis, Debye):
    X=              0.0001    Y=              1.8755    Z=              0.8388  Tot=              2.0545
 Quadrupole moment (field-independent basis, Debye-Ang):
   XX=            -17.2556   YY=            -12.9956   ZZ=            -13.1165
   XY=              1.1707   XZ=             -2.6171   YZ=              0.0677

 Normal termination of Gaussian 16 at Tue Dec  3 21:28:58 2024.
