 Gaussian 16, Revision A.03,
 Gaussian 16:  ES64L-G16RevA.03 25-Dec-2016

 --------------------------------------------
 #p opt UM062X/6-311+G** nosymm int=superfine
 --------------------------------------------

 -------------------
 Title Card Required
 -------------------
 Symbolic Z-matrix:
 Charge = -1 Multiplicity = 2

 SCF Done:  E(UM062X) =  -53.1939448100     A.U. after   12 cycles
 SCF Done:  E(UM062X) =  -53.1989147628     A.U. after   10 cycles
 SCF Done:  E(UM062X) =  -53.2000396379     A.U. after   11 cycles
 SCF Done:  E(UM062X) =  -53.2000449341     A.U. after    8 cycles
 Optimization completed.
    -- Stationary point found.

                          Input orientation:
 ---------------------------------------------------------------------
 Center     Atomic      Atomic             Coordinates (Angstroms)
 Number     Number       Type             X           Y           Z
 ---------------------------------------------------------------------
      1          5           0       -2.365672    0.000000    0.000000
      2          5           0        2.365672    0.000000    0.000000
      3          1           0        2.415506   -1.197024   -0.000016
      4          1           0       -2.415251   -0.598517    1.036670
      5          1           0        2.415419    0.598534   -1.036653
      6          1           0        2.415180    0.598503    1.036681
      7          1           0       -2.415514    1.197023   -0.000001
      8          1           0       -2.415340   -0.598521   -1.036664
 ---------------------------------------------------------------------

 Alpha  occ. eigenvalues --   -6.85445  -6.85445  -0.40678  -0.40441  -0.22574
 Alpha  occ. eigenvalues --   -0.22574  -0.22484  -0.22484   0.01469
 Alpha virt. eigenvalues --    0.09847   0.16347   0.17467   0.17467   0.17998
 Alpha virt. eigenvalues --    0.17998   0.18227   0.23441   0.23982   0.32682
 Alpha virt. eigenvalues --    0.32682   0.33416   0.33416   0.34301   0.38433

  Beta  occ. eigenvalues --   -6.85408  -6.85408  -0.39035  -0.38872  -0.22430
  Beta  occ. eigenvalues --   -0.22430  -0.22317  -0.22317
  Beta virt. eigenvalues --    0.05464   0.12721   0.12889   0.13982   0.13983
  Beta virt. eigenvalues --    0.17400   0.17401   0.19425   0.22525   0.24546
  Beta virt. eigenvalues --    0.31659   0.31660   0.31814   0.32450   0.32452

 Mulliken charges and spin densities:
               1          2
     1  B   -0.364084   0.545639
     2  B   -0.364084   0.545639
     3  H   -0.045352  -0.015261
     4  H   -0.045280  -0.015188
     5  H   -0.045287  -0.015190
     6  H   -0.045278  -0.015189
     7  H   -0.045352  -0.015261
     8  H   -0.045284  -0.015190
 Sum of Mulliken charges =  -1.00000   1.00000

 Dipole moment (field-independent basis, Debye):
    X=              0.0000    Y=             -0.0000    Z=              0.0001  Tot=              0.0001
 Quadrupole moment (field-independent basis, Debye-Ang):
   XX=            -50.4133   YY=            -24.3841   ZZ=            -24.3837
   XY=              0.0002   XZ=              0.0000   YZ=              0.0000

 Normal termination of Gaussian 16 at Mon Apr 21 16:54:03 2025.
