 Gaussian 16, Revision A.03,
 Gaussian 16:  ES64L-G16RevA.03 25-Dec-2016

 --------------------------------------------
 #p opt UM062X/6-311+G** nosymm int=superfine
 --------------------------------------------

 -------------------
 Title Card Required
 -------------------
 Symbolic Z-matrix:
 Charge =  0 Multiplicity = 1

 SCF Done:  E(UM062X) =  -579.877434798     A.U. after   10 cycles
 SCF Done:  E(UM062X) =  -579.880158035     A.U. after   10 cycles
 SCF Done:  E(UM062X) =  -579.880162361     A.U. after   10 cycles
 Optimization completed.
    -- Stationary point found.

                          Input orientation:
 ---------------------------------------------------------------------
 Center     Atomic      Atomic             Coordinates (Angstroms)
 Number     Number       Type             X           Y           Z
 ---------------------------------------------------------------------
      1         14           0       -2.278705    0.000000    0.000000
      2         14           0        2.278705    0.000000    0.000000
      3          1           0       -3.802809   -0.000028   -0.000000
      4          1           0        3.802809    0.000040    0.000000
 ---------------------------------------------------------------------

 Alpha  occ. eigenvalues --  -67.04537 -67.04537  -5.58969  -5.58967  -3.90081
 Alpha  occ. eigenvalues --   -3.90081  -3.89628  -3.89628  -3.89486  -3.89486
 Alpha  occ. eigenvalues --   -0.54974  -0.54760  -0.33422  -0.31831  -0.17634
 Alpha virt. eigenvalues --   -0.11029  -0.09091  -0.08374   0.02248   0.02926
 Alpha virt. eigenvalues --    0.04483   0.05642   0.05913   0.05915   0.06458
 Alpha virt. eigenvalues --    0.07045   0.08350   0.15488   0.28740   0.29674

  Beta  occ. eigenvalues --  -67.04537 -67.04537  -5.58969  -5.58967  -3.90081
  Beta  occ. eigenvalues --   -3.90081  -3.89628  -3.89628  -3.89486  -3.89486
  Beta  occ. eigenvalues --   -0.54974  -0.54760  -0.33422  -0.31831  -0.17634
  Beta virt. eigenvalues --   -0.11029  -0.09091  -0.08374   0.02248   0.02926
  Beta virt. eigenvalues --    0.04483   0.05642   0.05913   0.05915   0.06458
  Beta virt. eigenvalues --    0.07045   0.08350   0.15488   0.28740   0.29674

 Mulliken charges and spin densities:
               1          2
     1  Si   0.151431  -0.000000
     2  Si   0.151431   0.000000
     3  H   -0.151431   0.000000
     4  H   -0.151431  -0.000000
 Sum of Mulliken charges =  -0.00000   0.00000

 Dipole moment (field-independent basis, Debye):
    X=              0.0000    Y=              0.0000    Z=              0.0000  Tot=              0.0000
 Quadrupole moment (field-independent basis, Debye-Ang):
   XX=            -30.3504   YY=            -24.2624   ZZ=            -35.6506
   XY=             -0.0002   XZ=             -0.0000   YZ=              0.0001

 Normal termination of Gaussian 16 at Mon Apr 21 21:25:56 2025.
