 Gaussian 16, Revision A.03,
 Gaussian 16:  ES64L-G16RevA.03 25-Dec-2016

 --------------------------------------------
 #p opt UM062X/6-311+G** nosymm int=superfine
 --------------------------------------------

 -------------------
 Title Card Required
 -------------------
 Symbolic Z-matrix:
 Charge =  1 Multiplicity = 2

 SCF Done:  E(UM062X) =  -579.673659375     A.U. after   14 cycles
 SCF Done:  E(UM062X) =  -579.674525193     A.U. after   12 cycles
 SCF Done:  E(UM062X) =  -579.675461483     A.U. after   12 cycles
 SCF Done:  E(UM062X) =  -579.676738019     A.U. after   14 cycles
 SCF Done:  E(UM062X) =  -579.677242844     A.U. after   14 cycles
 SCF Done:  E(UM062X) =  -579.677655289     A.U. after   14 cycles
 SCF Done:  E(UM062X) =  -579.677729821     A.U. after   10 cycles
 SCF Done:  E(UM062X) =  -579.677735786     A.U. after   10 cycles
 SCF Done:  E(UM062X) =  -579.677738060     A.U. after   10 cycles
 SCF Done:  E(UM062X) =  -579.677743583     A.U. after   12 cycles
 SCF Done:  E(UM062X) =  -579.677748810     A.U. after   10 cycles
 SCF Done:  E(UM062X) =  -579.677751153     A.U. after   12 cycles
 SCF Done:  E(UM062X) =  -579.677751159     A.U. after    9 cycles
 Optimization completed.
    -- Stationary point found.

                          Input orientation:
 ---------------------------------------------------------------------
 Center     Atomic      Atomic             Coordinates (Angstroms)
 Number     Number       Type             X           Y           Z
 ---------------------------------------------------------------------
      1         14           0       -2.302975    0.000000    0.000000
      2         14           0        2.302975    0.000000    0.000000
      3          1           0       -2.405471   -1.505017   -0.000000
      4          1           0        2.405523    1.505015   -0.000000
 ---------------------------------------------------------------------

 Alpha  occ. eigenvalues --  -67.26204 -67.26204  -5.80373  -5.80372  -4.11471
 Alpha  occ. eigenvalues --   -4.11471  -4.11386  -4.11386  -4.10737  -4.10737
 Alpha  occ. eigenvalues --   -0.75217  -0.74794  -0.51929  -0.51759  -0.39453
 Alpha virt. eigenvalues --   -0.29582  -0.27124  -0.26508  -0.10602  -0.09265
 Alpha virt. eigenvalues --   -0.08376  -0.07868  -0.07552  -0.06497  -0.05526
 Alpha virt. eigenvalues --   -0.05433  -0.04807  -0.02434   0.12663   0.14208

  Beta  occ. eigenvalues --  -67.25950 -67.25950  -5.80301  -5.80300  -4.11324
  Beta  occ. eigenvalues --   -4.11324  -4.10788  -4.10788  -4.10637  -4.10637
  Beta  occ. eigenvalues --   -0.73383  -0.73181  -0.51295  -0.51107
  Beta virt. eigenvalues --   -0.27672  -0.26964  -0.26111  -0.23836  -0.14250
  Beta virt. eigenvalues --   -0.10823  -0.09088  -0.08314  -0.08058  -0.06514
  Beta virt. eigenvalues --   -0.05554  -0.05346  -0.05079  -0.02555   0.09595

 Mulliken charges and spin densities:
               1          2
     1  Si   0.583310   0.508141
     2  Si   0.583307   0.508143
     3  H   -0.083309  -0.008142
     4  H   -0.083308  -0.008142
 Sum of Mulliken charges =   1.00000   1.00000

 Dipole moment (field-independent basis, Debye):
    X=              0.0000    Y=             -0.0000    Z=             -0.0000  Tot=              0.0000
 Quadrupole moment (field-independent basis, Debye-Ang):
   XX=              6.4326   YY=            -27.8006   ZZ=            -20.0082
   XY=              2.4238   XZ=             -0.0000   YZ=              0.0000

 Normal termination of Gaussian 16 at Mon Apr 21 20:39:49 2025.
