 Gaussian 16, Revision A.03,
 Gaussian 16:  ES64L-G16RevA.03 25-Dec-2016

 ---------------------------------------
 #p UM062X/6-311+G** force int=superfine
 ---------------------------------------

 -------------------
 Title Card Required
 -------------------
 Symbolic Z-matrix:
 Charge =  1 Multiplicity = 2

                         Standard orientation:
 ---------------------------------------------------------------------
 Center     Atomic      Atomic             Coordinates (Angstroms)
 Number     Number       Type             X           Y           Z
 ---------------------------------------------------------------------
      1          6           0       -0.000000    0.841201    0.000000
      2          6           0       -0.000000   -0.841201    0.000000
      3          1           0       -0.957468    1.351346    0.000000
      4          1           0        0.957427    1.351460    0.000000
      5          1           0        0.957468   -1.351346    0.000000
      6          1           0       -0.957427   -1.351460    0.000000
 ---------------------------------------------------------------------

 SCF Done:  E(UM062X) =  -78.1458659473     A.U. after    9 cycles

 The electronic state is 2-AU.
 Alpha  occ. eigenvalues --  -10.91201 -10.91170  -1.11711  -0.98931  -0.82316
 Alpha  occ. eigenvalues --   -0.75511  -0.73991  -0.61082
 Alpha virt. eigenvalues --   -0.33364  -0.14795  -0.14477  -0.11508  -0.08990
 Alpha virt. eigenvalues --   -0.07482  -0.07213  -0.06450  -0.04649  -0.04558
 Alpha virt. eigenvalues --   -0.01699  -0.01407   0.02937   0.09914   0.18898

  Beta  occ. eigenvalues --  -10.90975 -10.90954  -1.08234  -0.96867  -0.81515
  Beta  occ. eigenvalues --   -0.75161  -0.72837
  Beta virt. eigenvalues --   -0.38523  -0.25439  -0.16113  -0.13820  -0.11851
  Beta virt. eigenvalues --   -0.09049  -0.08184  -0.07240  -0.05039  -0.04589
  Beta virt. eigenvalues --   -0.04011  -0.01099  -0.00911   0.02466   0.10436

 Mulliken charges and spin densities:
               1          2
     1  C   -0.061067   0.539450
     2  C   -0.061067   0.539450
     3  H    0.280528  -0.019725
     4  H    0.280539  -0.019724
     5  H    0.280528  -0.019725
     6  H    0.280539  -0.019724
 Sum of Mulliken charges =   1.00000   1.00000

 Dipole moment (field-independent basis, Debye):
    X=             -0.0000    Y=             -0.0000    Z=              0.0000  Tot=              0.0000
 Quadrupole moment (field-independent basis, Debye-Ang):
   XX=             -8.3474   YY=             -4.1987   ZZ=            -12.0177
   XY=              0.0003   XZ=              0.0000   YZ=              0.0000

 Normal termination of Gaussian 16 at Tue Nov 19 11:55:09 2024.
