 Gaussian 16, Revision A.03,
 Gaussian 16:  ES64L-G16RevA.03 25-Dec-2016

 --------------------------------------------
 #p opt UM062X/6-311+G** nosymm int=superfine
 --------------------------------------------

 -------------------
 Title Card Required
 -------------------
 Symbolic Z-matrix:
 Charge = -1 Multiplicity = 2

 SCF Done:  E(UM062X) =  -53.2352174279     A.U. after   11 cycles
 SCF Done:  E(UM062X) =  -53.2352326992     A.U. after    8 cycles
 SCF Done:  E(UM062X) =  -53.2352345323     A.U. after    8 cycles
 Optimization completed.
    -- Stationary point found.

                          Input orientation:
 ---------------------------------------------------------------------
 Center     Atomic      Atomic             Coordinates (Angstroms)
 Number     Number       Type             X           Y           Z
 ---------------------------------------------------------------------
      1          5           0       -1.115672    0.000000    0.000000
      2          5           0        1.115672    0.000000    0.000000
      3          1           0        1.315650   -1.189050    0.000001
      4          1           0       -1.315432   -0.594562    1.029766
      5          1           0        1.315532    0.594563   -1.029748
      6          1           0        1.315382    0.594549    1.029783
      7          1           0       -1.315655    1.189049    0.000010
      8          1           0       -1.315477   -0.594551   -1.029765
 ---------------------------------------------------------------------

 Alpha  occ. eigenvalues --   -6.80455  -6.80444  -0.40443  -0.33871  -0.20357
 Alpha  occ. eigenvalues --   -0.20357  -0.16433  -0.16432  -0.03989
 Alpha virt. eigenvalues --    0.16028   0.17208   0.17661   0.17661   0.19320
 Alpha virt. eigenvalues --    0.19320   0.20519   0.23534   0.30795   0.33204
 Alpha virt. eigenvalues --    0.33204   0.37913   0.37914   0.38851   0.42236

  Beta  occ. eigenvalues --   -6.80354  -6.80353  -0.37741  -0.32069  -0.19708
  Beta  occ. eigenvalues --   -0.19707  -0.16044  -0.16044
  Beta virt. eigenvalues --    0.12914   0.15232   0.17639   0.17639   0.18052
  Beta virt. eigenvalues --    0.18864   0.18864   0.21695   0.24442   0.33264
  Beta virt. eigenvalues --    0.33264   0.35017   0.38257   0.38258   0.39226

 Mulliken charges and spin densities:
               1          2
     1  B   -0.265274   0.572863
     2  B   -0.265274   0.572863
     3  H   -0.078254  -0.024302
     4  H   -0.078234  -0.024281
     5  H   -0.078241  -0.024283
     6  H   -0.078231  -0.024278
     7  H   -0.078255  -0.024302
     8  H   -0.078237  -0.024280
 Sum of Mulliken charges =  -1.00000   1.00000

 Dipole moment (field-independent basis, Debye):
    X=             -0.0000    Y=              0.0000    Z=             -0.0000  Tot=              0.0000
 Quadrupole moment (field-independent basis, Debye-Ang):
   XX=            -31.2526   YY=            -23.9469   ZZ=            -23.9468
   XY=              0.0001   XZ=              0.0000   YZ=              0.0000

 Normal termination of Gaussian 16 at Mon Apr 21 16:46:47 2025.
