 Gaussian 16, Revision A.03,
 Gaussian 16:  ES64L-G16RevA.03 25-Dec-2016

 --------------------------------------------
 #p opt UM062X/6-311+G** nosymm int=superfine
 --------------------------------------------

 -------------------
 Title Card Required
 -------------------
 Symbolic Z-matrix:
 Charge =  1 Multiplicity = 2

 SCF Done:  E(UM062X) =  -379.305615306     A.U. after   56 cycles
 SCF Done:  E(UM062X) =  -379.306293715     A.U. after   24 cycles
 SCF Done:  E(UM062X) =  -379.306294714     A.U. after   19 cycles
 Optimization completed.
    -- Stationary point found.

                          Input orientation:
 ---------------------------------------------------------------------
 Center     Atomic      Atomic             Coordinates (Angstroms)
 Number     Number       Type             X           Y           Z
 ---------------------------------------------------------------------
      1          6           0       -1.594427    0.000000    0.000000
      2         15           0        1.594427    0.000000    0.000000
      3          1           0       -2.713110   -0.000000    0.000000
 ---------------------------------------------------------------------

 Alpha  occ. eigenvalues --  -78.34621 -10.98687  -7.16081  -5.28063  -5.27837
 Alpha  occ. eigenvalues --   -5.26702  -1.01201  -0.86816  -0.67312  -0.50339
 Alpha  occ. eigenvalues --   -0.48497
 Alpha virt. eigenvalues --   -0.40277  -0.37794  -0.34768  -0.13504  -0.09945
 Alpha virt. eigenvalues --   -0.08444  -0.08396  -0.06992  -0.05564  -0.05386
 Alpha virt. eigenvalues --   -0.01892   0.00905   0.15549   0.15847   0.16984

  Beta  occ. eigenvalues --  -78.34101 -10.98518  -7.15960  -5.27700  -5.26605
  Beta  occ. eigenvalues --   -5.26532  -0.99593  -0.83064  -0.66519  -0.47299
  Beta virt. eigenvalues --   -0.36498  -0.34674  -0.33587  -0.31511  -0.14269
  Beta virt. eigenvalues --   -0.10942  -0.08709  -0.08599  -0.07327  -0.05496
  Beta virt. eigenvalues --   -0.05182  -0.02829   0.01527   0.13157   0.15428

 Mulliken charges and spin densities:
               1          2
     1  C    0.188659   0.317111
     2  P    0.542322   0.692833
     3  H    0.269019  -0.009944
 Sum of Mulliken charges =   1.00000   1.00000

 Dipole moment (field-independent basis, Debye):
    X=             -1.6438    Y=             -0.0000    Z=              0.0000  Tot=              1.6438
 Quadrupole moment (field-independent basis, Debye-Ang):
   XX=              6.5879   YY=            -16.9086   ZZ=            -19.8245
   XY=              0.0000   XZ=              0.0000   YZ=              0.9700

 Normal termination of Gaussian 16 at Mon Apr 21 19:26:25 2025.
