 Gaussian 16, Revision A.03,
 Gaussian 16:  ES64L-G16RevA.03 25-Dec-2016

 --------------------------------------------
 #p opt UM062X/6-311+G** nosymm int=superfine
 --------------------------------------------

 -------------------
 Title Card Required
 -------------------
 Symbolic Z-matrix:
 Charge =  0 Multiplicity = 1

 SCF Done:  E(UM062X) =  -78.3021419155     A.U. after    8 cycles
 SCF Done:  E(UM062X) =  -78.3022345572     A.U. after    7 cycles
 SCF Done:  E(UM062X) =  -78.3022719396     A.U. after    8 cycles
 Optimization completed.
    -- Stationary point found.

                          Input orientation:
 ---------------------------------------------------------------------
 Center     Atomic      Atomic             Coordinates (Angstroms)
 Number     Number       Type             X           Y           Z
 ---------------------------------------------------------------------
      1          6           0       -1.135595    0.000000    0.000000
      2          6           0        1.135595    0.000000    0.000000
      3          1           0       -1.570267   -0.986053   -0.000000
      4          1           0       -1.570266    0.986049   -0.000000
      5          1           0        1.570268    0.986054   -0.000000
      6          1           0        1.570267   -0.986049   -0.000000
 ---------------------------------------------------------------------

 Alpha  occ. eigenvalues --  -10.62151 -10.62142  -0.76533  -0.72667  -0.53232
 Alpha  occ. eigenvalues --   -0.51360  -0.34669  -0.24815
 Alpha virt. eigenvalues --   -0.08662  -0.01866   0.03368   0.05352   0.06367
 Alpha virt. eigenvalues --    0.07143   0.09323   0.10040   0.11245   0.14881
 Alpha virt. eigenvalues --    0.16334   0.19648   0.21437   0.27594   0.39241

  Beta  occ. eigenvalues --  -10.62151 -10.62142  -0.76533  -0.72667  -0.53232
  Beta  occ. eigenvalues --   -0.51360  -0.34669  -0.24815
  Beta virt. eigenvalues --   -0.08662  -0.01866   0.03368   0.05352   0.06367
  Beta virt. eigenvalues --    0.07143   0.09323   0.10040   0.11245   0.14881
  Beta virt. eigenvalues --    0.16334   0.19648   0.21437   0.27594   0.39241

 Mulliken charges and spin densities:
               1          2
     1  C   -0.373258   0.000000
     2  C   -0.373258  -0.000000
     3  H    0.186629  -0.000000
     4  H    0.186629  -0.000000
     5  H    0.186629   0.000000
     6  H    0.186629   0.000000
 Sum of Mulliken charges =  -0.00000   0.00000

 Dipole moment (field-independent basis, Debye):
    X=              0.0000    Y=              0.0000    Z=             -0.0000  Tot=              0.0000
 Quadrupole moment (field-independent basis, Debye-Ang):
   XX=            -10.7430   YY=            -11.9862   ZZ=            -18.6287
   XY=              0.0000   XZ=             -0.0000   YZ=              0.0000

 Normal termination of Gaussian 16 at Tue Dec  3 11:04:53 2024.
