 Gaussian 16, Revision A.03,
 Gaussian 16:  ES64L-G16RevA.03 25-Dec-2016

 --------------------------------------------
 #p opt UM062X/6-311+G** nosymm int=superfine
 --------------------------------------------

 -------------------
 Title Card Required
 -------------------
 Symbolic Z-matrix:
 Charge =  0 Multiplicity = 1

 SCF Done:  E(UM062X) =  -80.7881187818     A.U. after   10 cycles
 SCF Done:  E(UM062X) =  -80.7881192452     A.U. after    8 cycles
 SCF Done:  E(UM062X) =  -80.7881175664     A.U. after    7 cycles
 SCF Done:  E(UM062X) =  -80.7881195030     A.U. after    8 cycles
 Optimization completed.
    -- Stationary point found.

                          Input orientation:
 ---------------------------------------------------------------------
 Center     Atomic      Atomic             Coordinates (Angstroms)
 Number     Number       Type             X           Y           Z
 ---------------------------------------------------------------------
      1          5           0       -0.642066    0.000000    0.000000
      2          7           0        0.642066    0.000000    0.000000
      3          1           0       -1.808089   -0.000319    0.000000
      4          1           0        1.637104    0.000635   -0.000000
 ---------------------------------------------------------------------

 Alpha  occ. eigenvalues --  -14.73120  -7.06544  -0.92043  -0.62002  -0.51864
 Alpha  occ. eigenvalues --   -0.35634  -0.35634
 Alpha virt. eigenvalues --    0.01250   0.02495   0.02495   0.02802   0.07857
 Alpha virt. eigenvalues --    0.07857   0.10095   0.14949   0.18712   0.18712
 Alpha virt. eigenvalues --    0.21480   0.26090   0.37110   0.42952   0.42952

  Beta  occ. eigenvalues --  -14.73120  -7.06544  -0.92043  -0.62002  -0.51864
  Beta  occ. eigenvalues --   -0.35634  -0.35634
  Beta virt. eigenvalues --    0.01250   0.02495   0.02495   0.02802   0.07857
  Beta virt. eigenvalues --    0.07857   0.10095   0.14949   0.18712   0.18712
  Beta virt. eigenvalues --    0.21480   0.26090   0.37110   0.42952   0.42952

 Mulliken charges and spin densities:
               1          2
     1  B    0.227469   0.000000
     2  N   -0.538818  -0.000000
     3  H    0.032991   0.000000
     4  H    0.278358   0.000000
 Sum of Mulliken charges =  -0.00000   0.00000

 Dipole moment (field-independent basis, Debye):
    X=             -0.3165    Y=              0.0011    Z=             -0.0000  Tot=              0.3165
 Quadrupole moment (field-independent basis, Debye-Ang):
   XX=             -7.7851   YY=            -13.4419   ZZ=            -13.4419
   XY=              0.0023   XZ=             -0.0000   YZ=             -0.0000

 Normal termination of Gaussian 16 at Mon Apr 21 18:00:28 2025.
