 Gaussian 16, Revision A.03,
 Gaussian 16:  ES64L-G16RevA.03 25-Dec-2016

 --------------------------------------------
 #p opt UM062X/6-311+G** nosymm int=superfine
 --------------------------------------------

 -------------------
 Title Card Required
 -------------------
 Symbolic Z-matrix:
 Charge =  0 Multiplicity = 1

 SCF Done:  E(UM062X) =  -79.7159253929     A.U. after    8 cycles
 SCF Done:  E(UM062X) =  -79.7327717618     A.U. after    8 cycles
 SCF Done:  E(UM062X) =  -79.7350493221     A.U. after    8 cycles
 SCF Done:  E(UM062X) =  -79.7350511427     A.U. after    6 cycles
 Optimization completed.
    -- Stationary point found.

                          Input orientation:
 ---------------------------------------------------------------------
 Center     Atomic      Atomic             Coordinates (Angstroms)
 Number     Number       Type             X           Y           Z
 ---------------------------------------------------------------------
      1          6           0       -0.626109    0.000000    0.000000
      2          6           0        0.626173    0.000000    0.000000
      3          1           0        1.086247   -0.864737    0.500399
      4          1           0       -1.086182   -0.865724   -0.498704
      5          1           0        1.086247    0.865725    0.498701
      6          1           0        1.086253   -0.000962   -0.999086
      7          1           0       -1.086183    0.864736   -0.500400
      8          1           0       -1.086190    0.000960    0.999085
 ---------------------------------------------------------------------

 Alpha  occ. eigenvalues --  -10.50420 -10.50243  -0.91483  -0.68410  -0.53110
 Alpha  occ. eigenvalues --   -0.53110  -0.48995  -0.36743  -0.36742
 Alpha virt. eigenvalues --    0.02106   0.04202   0.05042   0.05042   0.08695
 Alpha virt. eigenvalues --    0.08924   0.08924   0.14203   0.19506   0.19507
 Alpha virt. eigenvalues --    0.19718   0.19719   0.24061   0.27947   0.37019

  Beta  occ. eigenvalues --  -10.50420 -10.50243  -0.91483  -0.68410  -0.53110
  Beta  occ. eigenvalues --   -0.53110  -0.48995  -0.36743  -0.36742
  Beta virt. eigenvalues --    0.02106   0.04202   0.05042   0.05042   0.08695
  Beta virt. eigenvalues --    0.08924   0.08924   0.14203   0.19506   0.19507
  Beta virt. eigenvalues --    0.19718   0.19719   0.24061   0.27947   0.37019

 Mulliken charges and spin densities:
               1          2
     1  C   -0.439997  -0.000000
     2  C   -0.439997   0.000000
     3  H    0.146666   0.000000
     4  H    0.146666  -0.000000
     5  H    0.146666   0.000000
     6  H    0.146664   0.000000
     7  H    0.146666  -0.000000
     8  H    0.146665  -0.000000
 Sum of Mulliken charges =  -0.00000  -0.00000

 Dipole moment (field-independent basis, Debye):
    X=              0.0000    Y=             -0.0000    Z=             -0.0000  Tot=              0.0000
 Quadrupole moment (field-independent basis, Debye-Ang):
   XX=            -15.6368   YY=            -14.9554   ZZ=            -14.9553
   XY=              0.0000   XZ=              0.0000   YZ=             -0.0001

 Normal termination of Gaussian 16 at Tue Nov 19 11:46:37 2024.
