 Gaussian 16, Revision A.03,
 Gaussian 16:  ES64L-G16RevA.03 25-Dec-2016

 ---------------------------------------------------------
 #p opt UM062X/6-311+G** nosymm int=superfine SCF=NoVarAcc
 ---------------------------------------------------------

 -------------------
 Title Card Required
 -------------------
 Symbolic Z-matrix:
 Charge =  0 Multiplicity = 1

 SCF Done:  E(UM062X) =  -76.8180227305     A.U. after   11 cycles
 SCF Done:  E(UM062X) =  -76.8180304120     A.U. after    9 cycles
 Optimization completed.
    -- Stationary point found.

                          Input orientation:
 ---------------------------------------------------------------------
 Center     Atomic      Atomic             Coordinates (Angstroms)
 Number     Number       Type             X           Y           Z
 ---------------------------------------------------------------------
      1          6           0       -4.932625    0.000000    0.000000
      2          6           0        4.932625    0.000000    0.000000
      3          1           0       -6.052929   -0.000007    0.000007
      4          1           0        6.052929    0.000005   -0.000005
 ---------------------------------------------------------------------

 Alpha  occ. eigenvalues --  -10.66662 -10.66662  -0.72449  -0.72444  -0.38623
 Alpha  occ. eigenvalues --   -0.38620  -0.19522
 Alpha virt. eigenvalues --   -0.16657  -0.09650  -0.09649   0.03345   0.03361
 Alpha virt. eigenvalues --    0.08003   0.08148   0.08193   0.08664   0.08974
 Alpha virt. eigenvalues --    0.09020   0.17374   0.17437   0.45324   0.45626

  Beta  occ. eigenvalues --  -10.66662 -10.66662  -0.72449  -0.72444  -0.38623
  Beta  occ. eigenvalues --   -0.38620  -0.19522
  Beta virt. eigenvalues --   -0.16657  -0.09650  -0.09649   0.03345   0.03361
  Beta virt. eigenvalues --    0.08003   0.08148   0.08193   0.08664   0.08974
  Beta virt. eigenvalues --    0.09020   0.17374   0.17437   0.45324   0.45626

 Mulliken charges and spin densities:
               1          2
     1  C   -0.128970  -0.000000
     2  C   -0.128970   0.000000
     3  H    0.128970  -0.000000
     4  H    0.128970   0.000000
 Sum of Mulliken charges =  -0.00000   0.00000

 Dipole moment (field-independent basis, Debye):
    X=              0.0000    Y=             -0.0000    Z=              0.0000  Tot=              0.0000
 Quadrupole moment (field-independent basis, Debye-Ang):
   XX=             17.8129   YY=            -14.5894   ZZ=            -14.5887
   XY=              0.0001   XZ=             -0.0001   YZ=             -2.7033

 Normal termination of Gaussian 16 at Tue Dec  3 20:21:06 2024.
