 Gaussian 16, Revision A.03,
 Gaussian 16:  ES64L-G16RevA.03 25-Dec-2016

 --------------------------------------------
 #p opt UM062X/6-311+G** nosymm int=superfine
 --------------------------------------------

 -------------------
 Title Card Required
 -------------------
 Symbolic Z-matrix:
 Charge =  0 Multiplicity = 1

 SCF Done:  E(UM062X) =  -381.128148499     A.U. after   12 cycles
 SCF Done:  E(UM062X) =  -381.129586529     A.U. after   10 cycles
 SCF Done:  E(UM062X) =  -381.129506739     A.U. after   10 cycles
 SCF Done:  E(UM062X) =  -381.128493281     A.U. after   12 cycles
 SCF Done:  E(UM062X) =  -381.128382244     A.U. after   11 cycles
 SCF Done:  E(UM062X) =  -381.129702244     A.U. after    8 cycles
 SCF Done:  E(UM062X) =  -381.127968017     A.U. after   12 cycles
 SCF Done:  E(UM062X) =  -381.129782571     A.U. after   10 cycles
 SCF Done:  E(UM062X) =  -381.129785806     A.U. after    9 cycles
 Optimization completed.
    -- Stationary point found.

                          Input orientation:
 ---------------------------------------------------------------------
 Center     Atomic      Atomic             Coordinates (Angstroms)
 Number     Number       Type             X           Y           Z
 ---------------------------------------------------------------------
      1          6           0       -1.030452    0.000000    0.000000
      2         15           0        1.030452    0.000000    0.000000
      3          1           0       -1.575001   -0.935912    0.002130
      4          1           0        1.062113   -1.419270    0.003741
      5          1           0       -1.545361    0.952274   -0.002114
 ---------------------------------------------------------------------

 Alpha  occ. eigenvalues --  -78.05113 -10.60439  -6.87142  -4.98619  -4.98615
 Alpha  occ. eigenvalues --   -4.98424  -0.77715  -0.65633  -0.51497  -0.41053
 Alpha  occ. eigenvalues --   -0.35095  -0.28464
 Alpha virt. eigenvalues --   -0.07684   0.00583   0.02391   0.04255   0.05259
 Alpha virt. eigenvalues --    0.05955   0.07549   0.07893   0.10636   0.11581
 Alpha virt. eigenvalues --    0.15153   0.19159   0.21264   0.30499   0.32613

  Beta  occ. eigenvalues --  -78.05113 -10.60439  -6.87142  -4.98619  -4.98615
  Beta  occ. eigenvalues --   -4.98424  -0.77715  -0.65633  -0.51497  -0.41053
  Beta  occ. eigenvalues --   -0.35095  -0.28464
  Beta virt. eigenvalues --   -0.07684   0.00583   0.02391   0.04255   0.05259
  Beta virt. eigenvalues --    0.05955   0.07549   0.07893   0.10636   0.11581
  Beta virt. eigenvalues --    0.15153   0.19159   0.21264   0.30499   0.32613

 Mulliken charges and spin densities:
               1          2
     1  C   -0.454500   0.000000
     2  P    0.102546  -0.000000
     3  H    0.187805   0.000000
     4  H   -0.023978  -0.000000
     5  H    0.188126  -0.000000
 Sum of Mulliken charges =  -0.00000  -0.00000

 Dipole moment (field-independent basis, Debye):
    X=             -0.6810    Y=             -0.5702    Z=              0.0014  Tot=              0.8882
 Quadrupole moment (field-independent basis, Debye-Ang):
   XX=            -19.3565   YY=            -20.0158   ZZ=            -23.5094
   XY=             -1.1713   XZ=              0.0028   YZ=             -0.0084

 Normal termination of Gaussian 16 at Mon Apr 21 19:13:06 2025.
