 Gaussian 16, Revision A.03,
 Gaussian 16:  ES64L-G16RevA.03 25-Dec-2016

 ---------------------------------------
 #p UM062X/6-311+G** force int=superfine
 ---------------------------------------

 -------------------
 Title Card Required
 -------------------
 Symbolic Z-matrix:
 Charge =  1 Multiplicity = 2

                         Standard orientation:
 ---------------------------------------------------------------------
 Center     Atomic      Atomic             Coordinates (Angstroms)
 Number     Number       Type             X           Y           Z
 ---------------------------------------------------------------------
      1          6           0        0.000000   -0.000000    0.826387
      2          6           0        0.000000    0.000000   -0.826385
      3          1           0        0.000000   -0.000000    1.920721
      4          1           0        0.000000    0.000000   -1.920727
 ---------------------------------------------------------------------

 SCF Done:  E(UM062X) =  -76.7532031821     A.U. after   10 cycles

 Unable to determine electronic state:  an orbital has unidentified symmetry.
 Alpha  occ. eigenvalues --  -10.99640 -10.99600  -1.10955  -0.99102  -0.84859
 Alpha  occ. eigenvalues --   -0.64162  -0.62016
 Alpha virt. eigenvalues --   -0.35739  -0.33743  -0.26438  -0.14217  -0.11090
 Alpha virt. eigenvalues --   -0.10657  -0.09163  -0.08925  -0.05296  -0.04975
 Alpha virt. eigenvalues --    0.01517   0.03873   0.08008   0.22325   0.31440

  Beta  occ. eigenvalues --  -10.99392 -10.99364  -1.07028  -0.97350  -0.84030
  Beta  occ. eigenvalues --   -0.60004
  Beta virt. eigenvalues --   -0.41147  -0.32027  -0.27689  -0.24306  -0.15277
  Beta virt. eigenvalues --   -0.11392  -0.11079  -0.09534  -0.09355  -0.05211
  Beta virt. eigenvalues --   -0.04898   0.00669   0.03980   0.08359   0.23091

 Mulliken charges and spin densities:
               1          2
     1  C    0.141364   0.521547
     2  C    0.141366   0.521545
     3  H    0.358633  -0.021546
     4  H    0.358637  -0.021546
 Sum of Mulliken charges =   1.00000   1.00000

 Dipole moment (field-independent basis, Debye):
    X=              0.0000    Y=              0.0000    Z=             -0.0000  Tot=              0.0000
 Quadrupole moment (field-independent basis, Debye-Ang):
   XX=            -12.6676   YY=            -10.6019   ZZ=              2.7845
   XY=             -0.0000   XZ=              0.0000   YZ=             -0.0000

 Normal termination of Gaussian 16 at Tue Nov 19 13:36:48 2024.
