 Gaussian 16, Revision A.03,
 Gaussian 16:  ES64L-G16RevA.03 25-Dec-2016

 ---------------------------------------------------
 #p UM062X/6-311+G** force int=superfine pop=saveNBO
 ---------------------------------------------------

 -------------------
 Title Card Required
 -------------------
 Symbolic Z-matrix:
 Charge =  0 Multiplicity = 1

                         Standard orientation:
 ---------------------------------------------------------------------
 Center     Atomic      Atomic             Coordinates (Angstroms)
 Number     Number       Type             X           Y           Z
 ---------------------------------------------------------------------
      1          6           0        0.000000    0.000000   -2.093521
      2         16           0        0.000000    0.000000    0.785071
 ---------------------------------------------------------------------

 SCF Done:  E(UM062X) =  -435.873265556     A.U. after   16 cycles

 The electronic state is 1-SG.
 Alpha  occ. eigenvalues --  -89.93555 -10.81115  -8.29350  -6.21719  -6.20803
 Alpha  occ. eigenvalues --   -6.20803  -0.74503  -0.69908  -0.34551  -0.30459
 Alpha  occ. eigenvalues --   -0.30459
 Alpha virt. eigenvalues --   -0.17083  -0.17083  -0.14131   0.03165   0.05361
 Alpha virt. eigenvalues --    0.05975   0.05975   0.08769   0.08786   0.08786
 Alpha virt. eigenvalues --    0.14735   0.36237   0.36237   0.37155   0.52016

  Beta  occ. eigenvalues --  -89.93555 -10.81115  -8.29350  -6.21719  -6.20803
  Beta  occ. eigenvalues --   -6.20803  -0.74503  -0.69908  -0.34551  -0.30459
  Beta  occ. eigenvalues --   -0.30459
  Beta virt. eigenvalues --   -0.17083  -0.17083  -0.14131   0.03165   0.05361
  Beta virt. eigenvalues --    0.05975   0.05975   0.08769   0.08786   0.08786
  Beta virt. eigenvalues --    0.14735   0.36237   0.36237   0.37155   0.52016

 Mulliken charges and spin densities:
               1          2
     1  C    0.189887   0.000000
     2  S   -0.189887  -0.000000
 Sum of Mulliken charges =   0.00000  -0.00000

 Dipole moment (field-independent basis, Debye):
    X=              0.0000    Y=              0.0000    Z=             -2.5897  Tot=              2.5897
 Quadrupole moment (field-independent basis, Debye-Ang):
   XX=            -20.8538   YY=            -20.8538   ZZ=            -14.6557
   XY=              0.0000   XZ=              0.0000   YZ=              0.0000

 Summary of Natural Population Analysis:

                                       Natural Population
                Natural  -----------------------------------------------
    Atom  No    Charge         Core      Valence    Rydberg      Total
 -----------------------------------------------------------------------
      C    1    0.15047      1.00000     1.84886    0.00068     2.84953
      S    2   -0.15047      4.99999     3.14976    0.00071     8.15047
 =======================================================================
   * Total *   -0.00000      5.99999     4.99862    0.00139    11.00000

 Normal termination of Gaussian 16 at Mon Apr 21 19:46:42 2025.
