 Gaussian 16, Revision A.03,
 Gaussian 16:  ES64L-G16RevA.03 25-Dec-2016

 --------------------------------------------
 #p opt UM062X/6-311+G** nosymm int=superfine
 --------------------------------------------

 -------------------
 Title Card Required
 -------------------
 Symbolic Z-matrix:
 Charge =  0 Multiplicity = 1

 SCF Done:  E(UM062X) =  -115.658664271     A.U. after   10 cycles
 SCF Done:  E(UM062X) =  -115.664165729     A.U. after   10 cycles
 SCF Done:  E(UM062X) =  -115.664451896     A.U. after    9 cycles
 SCF Done:  E(UM062X) =  -115.664452805     A.U. after    7 cycles
 Optimization completed.
    -- Stationary point found.

                          Input orientation:
 ---------------------------------------------------------------------
 Center     Atomic      Atomic             Coordinates (Angstroms)
 Number     Number       Type             X           Y           Z
 ---------------------------------------------------------------------
      1          6           0       -0.882203    0.000000    0.000000
      2          8           0        0.882203    0.000000    0.000000
      3          1           0        1.071828   -0.943497    0.000313
      4          1           0       -1.175252   -0.505271    0.913259
      5          1           0       -1.089681    1.061896   -0.000721
      6          1           0       -1.175285   -0.506507   -0.912565
 ---------------------------------------------------------------------

 Alpha  occ. eigenvalues --  -19.61903 -10.60585  -1.07385  -0.79296  -0.53828
 Alpha  occ. eigenvalues --   -0.51371  -0.47701  -0.40854  -0.35959
 Alpha virt. eigenvalues --    0.01138   0.01284   0.05093   0.05425   0.10846
 Alpha virt. eigenvalues --    0.15638   0.17752   0.18081   0.20412   0.23117
 Alpha virt. eigenvalues --    0.23684   0.24182   0.32849   0.41936   0.43462

  Beta  occ. eigenvalues --  -19.61903 -10.60585  -1.07385  -0.79296  -0.53828
  Beta  occ. eigenvalues --   -0.51371  -0.47701  -0.40854  -0.35959
  Beta virt. eigenvalues --    0.01138   0.01284   0.05093   0.05425   0.10846
  Beta virt. eigenvalues --    0.15638   0.17752   0.18081   0.20412   0.23117
  Beta virt. eigenvalues --    0.23684   0.24182   0.32849   0.41936   0.43462

 Mulliken charges and spin densities:
               1          2
     1  C   -0.302377  -0.000000
     2  O   -0.460911  -0.000000
     3  H    0.241961   0.000000
     4  H    0.168234   0.000000
     5  H    0.184874   0.000000
     6  H    0.168219   0.000000
 Sum of Mulliken charges =  -0.00000   0.00000

 Dipole moment (field-independent basis, Debye):
    X=             -2.2974    Y=             -1.5371    Z=              0.0005  Tot=              2.7642
 Quadrupole moment (field-independent basis, Debye-Ang):
   XX=            -13.4898   YY=            -11.5011   ZZ=            -13.8192
   XY=             -2.1042   XZ=              0.0007   YZ=             -0.0008

 Normal termination of Gaussian 16 at Mon Apr 21 18:40:14 2025.
