 Gaussian 16, Revision A.03,
 Gaussian 16:  ES64L-G16RevA.03 25-Dec-2016

 --------------------------------------------
 #p opt UM062X/6-311+G** nosymm int=superfine
 --------------------------------------------

 -------------------
 Title Card Required
 -------------------
 Symbolic Z-matrix:
 Charge =  1 Multiplicity = 2

 SCF Done:  E(UM062X) =  -582.173310739     A.U. after   11 cycles
 SCF Done:  E(UM062X) =  -582.173314270     A.U. after    7 cycles
 Optimization completed.
    -- Stationary point found.

                          Input orientation:
 ---------------------------------------------------------------------
 Center     Atomic      Atomic             Coordinates (Angstroms)
 Number     Number       Type             X           Y           Z
 ---------------------------------------------------------------------
      1         14           0       -1.401292    0.000000    0.000000
      2         14           0        1.401292    0.000000    0.000000
      3          1           0        1.595960   -1.454102    0.000027
      4          1           0       -1.595548   -0.726982    1.259386
      5          1           0        1.596107    0.727088   -1.259234
      6          1           0        1.595339    0.727087    1.259359
      7          1           0       -1.595989    1.454098   -0.000056
      8          1           0       -1.595871   -0.727202   -1.259206
 ---------------------------------------------------------------------

 Alpha  occ. eigenvalues --  -67.24161 -67.24161  -5.79071  -5.79070  -4.10803
 Alpha  occ. eigenvalues --   -4.10794  -4.09958  -4.09958  -4.09958  -4.09957
 Alpha  occ. eigenvalues --   -0.86131  -0.81158  -0.64486  -0.64485  -0.62509
 Alpha  occ. eigenvalues --   -0.62508  -0.52301
 Alpha virt. eigenvalues --   -0.21587  -0.16362  -0.11998  -0.11996  -0.11421
 Alpha virt. eigenvalues --   -0.11369  -0.11368  -0.10101  -0.09360  -0.09360
 Alpha virt. eigenvalues --   -0.06785  -0.06581  -0.06581  -0.03317   0.00484

  Beta  occ. eigenvalues --  -67.23878 -67.23878  -5.78997  -5.78995  -4.10074
  Beta  occ. eigenvalues --   -4.10067  -4.09866  -4.09866  -4.09866  -4.09866
  Beta  occ. eigenvalues --   -0.83367  -0.79487  -0.63908  -0.63907  -0.62098
  Beta  occ. eigenvalues --   -0.62097
  Beta virt. eigenvalues --   -0.33992  -0.18077  -0.15441  -0.11240  -0.11238
  Beta virt. eigenvalues --   -0.11164  -0.11163  -0.10556  -0.09860  -0.08699
  Beta virt. eigenvalues --   -0.08698  -0.06236  -0.06236  -0.04075  -0.02297

 Mulliken charges and spin densities:
               1          2
     1  Si   0.481065   0.517632
     2  Si   0.481065   0.517633
     3  H    0.006319  -0.005891
     4  H    0.006305  -0.005869
     5  H    0.006319  -0.005889
     6  H    0.006297  -0.005852
     7  H    0.006319  -0.005892
     8  H    0.006310  -0.005872
 Sum of Mulliken charges =   1.00000   1.00000

 Dipole moment (field-independent basis, Debye):
    X=              0.0000    Y=              0.0000    Z=             -0.0001  Tot=              0.0001
 Quadrupole moment (field-independent basis, Debye-Ang):
   XX=            -12.0577   YY=            -25.5942   ZZ=            -25.5944
   XY=             -0.0001   XZ=              0.0001   YZ=              0.0001

 Normal termination of Gaussian 16 at Mon Apr 21 20:08:46 2025.
