 Gaussian 16, Revision A.03,
 Gaussian 16:  ES64L-G16RevA.03 25-Dec-2016

 --------------------------------------------
 #p opt UM062X/6-311+G** nosymm int=superfine
 --------------------------------------------

 -------------------
 Title Card Required
 -------------------
 Symbolic Z-matrix:
 Charge =  0 Multiplicity = 3

 SCF Done:  E(UM062X) =  -50.5677851909     A.U. after   12 cycles
 SCF Done:  E(UM062X) =  -50.5678189910     A.U. after    8 cycles
 Optimization completed.
    -- Stationary point found.

                          Input orientation:
 ---------------------------------------------------------------------
 Center     Atomic      Atomic             Coordinates (Angstroms)
 Number     Number       Type             X           Y           Z
 ---------------------------------------------------------------------
      1          5           0       -1.203410    0.000000    0.000000
      2          5           0        1.203410    0.000000    0.000000
      3          1           0       -2.381960   -0.000081    0.000000
      4          1           0        2.381960    0.000081   -0.000000
 ---------------------------------------------------------------------

 Alpha  occ. eigenvalues --   -7.15376  -7.15362  -0.58294  -0.56002  -0.38235
 Alpha  occ. eigenvalues --   -0.22498  -0.22498
 Alpha virt. eigenvalues --   -0.06438  -0.06438  -0.05627   0.02558   0.02623
 Alpha virt. eigenvalues --    0.06518   0.06518   0.07680   0.07680   0.07710
 Alpha virt. eigenvalues --    0.13312   0.21217   0.24179   0.37842   0.38609

  Beta  occ. eigenvalues --   -7.15102  -7.15096  -0.54967  -0.54003  -0.35871
  Beta virt. eigenvalues --   -0.06332  -0.06332  -0.01125  -0.01125  -0.00183
  Beta virt. eigenvalues --    0.00646   0.02951   0.05481   0.08356   0.08356
  Beta virt. eigenvalues --    0.11111   0.11111   0.11182   0.22150   0.25877

 Mulliken charges and spin densities:
               1          2
     1  B   -0.118873   1.039184
     2  B   -0.118873   1.039184
     3  H    0.118873  -0.039184
     4  H    0.118873  -0.039184
 Sum of Mulliken charges =  -0.00000   2.00000

 Dipole moment (field-independent basis, Debye):
    X=             -0.0000    Y=             -0.0000    Z=              0.0000  Tot=              0.0000
 Quadrupole moment (field-independent basis, Debye-Ang):
   XX=            -10.1775   YY=            -16.5299   ZZ=            -16.5299
   XY=              0.0004   XZ=             -0.0000   YZ=             -0.0000

 1\1\GINC-NODE03\FOpt\UM062X\6-311+G(d,p)\B2H2(3)\SZHAO\21-Apr-2025\0\\
 #p opt UM062X/6-311+G** nosymm int=superfine\\Title Card Required\\0,3
 \B,-1.20341047,0.,0.\B,1.20341047,0.,0.\H,-2.381960009,-0.0000806182,0
 .0000000002\H,2.3819600124,0.0000806181,-0.0000000002\\Version=ES64L-G
 16RevA.03\HF=-50.567819\S2=2.009823\S2-1=0.\S2A=2.000029\RMSD=7.874e-0
 9\RMSF=1.996e-05\Dipole=0.,0.,0.\Quadrupole=3.1485719,-1.5742859,-1.57
 4286,0.0002974,0.,0.\PG=C*V [C*(H1B1B1H1)]\\@

 Normal termination of Gaussian 16 at Mon Apr 21 17:23:11 2025.
