 Gaussian 16, Revision A.03,
 Gaussian 16:  ES64L-G16RevA.03 25-Dec-2016

 ---------------------------------------------------------
 #p opt UM062X/6-311+G** nosymm int=superfine SCF=NoVarAcc
 ---------------------------------------------------------

 -------------------
 Title Card Required
 -------------------
 Symbolic Z-matrix:
 Charge =  0 Multiplicity = 1

 SCF Done:  E(UM062X) =  -76.9390712626     A.U. after   82 cycles
 SCF Done:  E(UM062X) =  -76.9390877442     A.U. after    8 cycles
 Optimization completed.
    -- Stationary point found.

                          Input orientation:
 ---------------------------------------------------------------------
 Center     Atomic      Atomic             Coordinates (Angstroms)
 Number     Number       Type             X           Y           Z
 ---------------------------------------------------------------------
      1          6           0       -9.432625    0.000000    0.000000
      2          6           0        9.432625    0.000000    0.000000
      3          1           0      -10.551767   -0.000006    0.000006
      4          1           0       10.551767    0.000004   -0.000004
 ---------------------------------------------------------------------

 Alpha  occ. eigenvalues --  -10.63982 -10.63010  -0.73313  -0.68756  -0.38738
 Alpha  occ. eigenvalues --   -0.35897  -0.31189
 Alpha virt. eigenvalues --   -0.09368  -0.07314  -0.04707   0.02848   0.03806
 Alpha virt. eigenvalues --    0.08254   0.08347   0.08508   0.08547   0.09126
 Alpha virt. eigenvalues --    0.10745   0.17666   0.19117   0.45369   0.46209

  Beta  occ. eigenvalues --  -10.63982 -10.63010  -0.73313  -0.68756  -0.38738
  Beta  occ. eigenvalues --   -0.35897  -0.31189
  Beta virt. eigenvalues --   -0.09368  -0.07314  -0.04707   0.02848   0.03806
  Beta virt. eigenvalues --    0.08254   0.08347   0.08508   0.08547   0.09126
  Beta virt. eigenvalues --    0.10745   0.17666   0.19117   0.45369   0.46209

 Mulliken charges and spin densities:
               1          2
     1  C   -0.118644   1.032496
     2  C   -0.118644  -1.032496
     3  H    0.118644  -0.032496
     4  H    0.118644   0.032496
 Sum of Mulliken charges =   0.00000  -0.00000

 Dipole moment (field-independent basis, Debye):
    X=              0.0000    Y=             -0.0000    Z=              0.0000  Tot=              0.0000
 Quadrupole moment (field-independent basis, Debye-Ang):
   XX=             47.5292   YY=            -13.6047   ZZ=            -13.6024
   XY=              0.0001   XZ=             -0.0001   YZ=             -0.0000

 Normal termination of Gaussian 16 at Tue Dec  3 20:23:52 2024.
