 Gaussian 16, Revision A.03,
 Gaussian 16:  ES64L-G16RevA.03 25-Dec-2016

 --------------------------------------------
 #p opt UM062X/6-311+G** nosymm int=superfine
 --------------------------------------------

 -------------------
 Title Card Required
 -------------------
 Symbolic Z-matrix:
 Charge =  0 Multiplicity = 1

 SCF Done:  E(UM062X) =  -685.022083009     A.U. after   11 cycles
 SCF Done:  E(UM062X) =  -685.023759277     A.U. after   10 cycles
 SCF Done:  E(UM062X) =  -685.024140676     A.U. after   10 cycles
 SCF Done:  E(UM062X) =  -685.024157548     A.U. after    9 cycles
 SCF Done:  E(UM062X) =  -685.024162831     A.U. after    8 cycles
 SCF Done:  E(UM062X) =  -685.024167634     A.U. after    9 cycles
 SCF Done:  E(UM062X) =  -685.024171903     A.U. after    9 cycles
 SCF Done:  E(UM062X) =  -685.024175251     A.U. after    9 cycles
 SCF Done:  E(UM062X) =  -685.024176208     A.U. after    9 cycles
 SCF Done:  E(UM062X) =  -685.024176720     A.U. after    9 cycles
 SCF Done:  E(UM062X) =  -685.024199470     A.U. after   10 cycles
 SCF Done:  E(UM062X) =  -685.024344582     A.U. after   12 cycles
 SCF Done:  E(UM062X) =  -685.024383794     A.U. after   11 cycles
 SCF Done:  E(UM062X) =  -685.024437348     A.U. after   10 cycles
 SCF Done:  E(UM062X) =  -685.024446037     A.U. after    8 cycles
 SCF Done:  E(UM062X) =  -685.024450351     A.U. after    8 cycles
 SCF Done:  E(UM062X) =  -685.024451687     A.U. after    8 cycles
 SCF Done:  E(UM062X) =  -685.024451799     A.U. after    8 cycles
 SCF Done:  E(UM062X) =  -685.024451822     A.U. after    7 cycles
 SCF Done:  E(UM062X) =  -685.024451827     A.U. after    7 cycles
 Optimization completed.
    -- Stationary point found.

                          Input orientation:
 ---------------------------------------------------------------------
 Center     Atomic      Atomic             Coordinates (Angstroms)
 Number     Number       Type             X           Y           Z
 ---------------------------------------------------------------------
      1         15           0       -1.392217    0.000000    0.000000
      2         15           0        1.392217    0.000000    0.000000
      3          1           0        1.405562   -0.946411    1.055182
      4          1           0       -1.404830    1.018542    0.985804
      5          1           0        1.404852   -1.018478   -0.985868
      6          1           0       -1.405570    0.946353   -1.055233
 ---------------------------------------------------------------------

 Alpha  occ. eigenvalues --  -78.03975 -78.03975  -6.86362  -6.86360  -4.97903
 Alpha  occ. eigenvalues --   -4.97901  -4.97836  -4.97836  -4.97638  -4.97638
 Alpha  occ. eigenvalues --   -0.72906  -0.68719  -0.45737  -0.43640  -0.36751
 Alpha  occ. eigenvalues --   -0.36074  -0.29464
 Alpha virt. eigenvalues --   -0.05947   0.01353   0.03377   0.03381   0.04223
 Alpha virt. eigenvalues --    0.04627   0.05173   0.06288   0.06493   0.06850
 Alpha virt. eigenvalues --    0.09432   0.16584   0.18843   0.28609   0.29114

  Beta  occ. eigenvalues --  -78.03975 -78.03975  -6.86362  -6.86360  -4.97903
  Beta  occ. eigenvalues --   -4.97901  -4.97836  -4.97836  -4.97638  -4.97638
  Beta  occ. eigenvalues --   -0.72906  -0.68719  -0.45737  -0.43640  -0.36751
  Beta  occ. eigenvalues --   -0.36074  -0.29464
  Beta virt. eigenvalues --   -0.05947   0.01353   0.03377   0.03381   0.04223
  Beta virt. eigenvalues --    0.04627   0.05173   0.06288   0.06493   0.06850
  Beta virt. eigenvalues --    0.09432   0.16584   0.18843   0.28609   0.29114

 Mulliken charges and spin densities:
               1          2
     1  P   -0.047290   0.000000
     2  P   -0.047290  -0.000000
     3  H    0.023655   0.000000
     4  H    0.023636   0.000000
     5  H    0.023635   0.000000
     6  H    0.023654   0.000000
 Sum of Mulliken charges =  -0.00000  -0.00000

 Dipole moment (field-independent basis, Debye):
    X=              0.0000    Y=             -0.0000    Z=             -0.0000  Tot=              0.0000
 Quadrupole moment (field-independent basis, Debye-Ang):
   XX=            -30.6043   YY=            -30.8697   ZZ=            -28.0375
   XY=             -3.5419   XZ=              0.1272   YZ=              0.1004

 Normal termination of Gaussian 16 at Mon Apr 21 20:49:19 2025.
