 Gaussian 16, Revision A.03,
 Gaussian 16:  ES64L-G16RevA.03 25-Dec-2016

 --------------------------------------------
 #p opt UM062X/6-311+G** nosymm int=superfine
 --------------------------------------------

 -------------------
 Title Card Required
 -------------------
 Symbolic Z-matrix:
 Charge =  0 Multiplicity = 1

 SCF Done:  E(UM062X) =  -110.317788212     A.U. after   13 cycles
 SCF Done:  E(UM062X) =  -110.330400609     A.U. after   11 cycles
 SCF Done:  E(UM062X) =  -110.333358977     A.U. after   12 cycles
 SCF Done:  E(UM062X) =  -110.333361873     A.U. after    9 cycles
 Optimization completed.
    -- Stationary point found.

                          Input orientation:
 ---------------------------------------------------------------------
 Center     Atomic      Atomic             Coordinates (Angstroms)
 Number     Number       Type             X           Y           Z
 ---------------------------------------------------------------------
      1          7           0       -1.140428    0.000000    0.000000
      2          7           0        1.140428    0.000000    0.000000
      3          1           0       -1.057995   -1.032339   -0.000000
      4          1           0        1.057995    1.032339   -0.000000
 ---------------------------------------------------------------------

 Alpha  occ. eigenvalues --  -14.88508 -14.88501  -0.94801  -0.89700  -0.49921
 Alpha  occ. eigenvalues --   -0.47463  -0.37256  -0.33125
 Alpha virt. eigenvalues --   -0.17543  -0.11456   0.05734   0.07832   0.10694
 Alpha virt. eigenvalues --    0.12301   0.13222   0.14843   0.16109   0.19218
 Alpha virt. eigenvalues --    0.20290   0.24973   0.53353   0.56329   0.75631

  Beta  occ. eigenvalues --  -14.88508 -14.88501  -0.94801  -0.89700  -0.49921
  Beta  occ. eigenvalues --   -0.47463  -0.37256  -0.33125
  Beta virt. eigenvalues --   -0.17543  -0.11456   0.05734   0.07832   0.10694
  Beta virt. eigenvalues --    0.12301   0.13222   0.14843   0.16109   0.19218
  Beta virt. eigenvalues --    0.20290   0.24973   0.53353   0.56329   0.75631

 Mulliken charges and spin densities:
               1          2
     1  N   -0.247856  -0.000000
     2  N   -0.247856   0.000000
     3  H    0.247856   0.000000
     4  H    0.247856  -0.000000
 Sum of Mulliken charges =  -0.00000  -0.00000

 Dipole moment (field-independent basis, Debye):
    X=             -0.0000    Y=              0.0000    Z=             -0.0000  Tot=              0.0000
 Quadrupole moment (field-independent basis, Debye-Ang):
   XX=            -13.6629   YY=            -10.8582   ZZ=            -14.0470
   XY=              4.1682   XZ=              0.0000   YZ=              0.0000

 Normal termination of Gaussian 16 at Thu May 15 15:35:50 2025.
