 Gaussian 16, Revision A.03,
 Gaussian 16:  ES64L-G16RevA.03 25-Dec-2016

 --------------------------------------------
 #p opt UM062X/6-311+G** nosymm int=superfine
 --------------------------------------------

 -------------------
 Title Card Required
 -------------------
 Symbolic Z-matrix:
 Charge =  0 Multiplicity = 1

 SCF Done:  E(UM062X) =  -79.6408590945     A.U. after    8 cycles
 SCF Done:  E(UM062X) =  -79.6745815541     A.U. after    9 cycles
 SCF Done:  E(UM062X) =  -79.7025824360     A.U. after   10 cycles
 SCF Done:  E(UM062X) =  -79.7104275920     A.U. after   10 cycles
 SCF Done:  E(UM062X) =  -79.7104953197     A.U. after    8 cycles
 SCF Done:  E(UM062X) =  -79.7104969391     A.U. after    7 cycles
 Optimization completed.
    -- Stationary point found.

                          Input orientation:
 ---------------------------------------------------------------------
 Center     Atomic      Atomic             Coordinates (Angstroms)
 Number     Number       Type             X           Y           Z
 ---------------------------------------------------------------------
      1          6           0       -1.114779    0.000000    0.000000
      2          6           0        1.114892    0.000000    0.000000
      3          1           0        1.363559   -0.912472    0.528002
      4          1           0       -1.363439   -0.913504   -0.526220
      5          1           0        1.363555    0.913504    0.526218
      6          1           0        1.363560   -0.001028   -1.054224
      7          1           0       -1.363445    0.912472   -0.528002
      8          1           0       -1.363450    0.001027    1.054223
 ---------------------------------------------------------------------

 Alpha  occ. eigenvalues --  -10.55208 -10.55202  -0.78051  -0.73432  -0.48268
 Alpha  occ. eigenvalues --   -0.48267  -0.45447  -0.45447  -0.30495
 Alpha virt. eigenvalues --    0.00741   0.02431   0.05591   0.05591   0.08299
 Alpha virt. eigenvalues --    0.08365   0.08365   0.09804   0.13266   0.18166
 Alpha virt. eigenvalues --    0.18166   0.22102   0.22103   0.24357   0.26563

  Beta  occ. eigenvalues --  -10.55208 -10.55202  -0.78051  -0.73432  -0.48268
  Beta  occ. eigenvalues --   -0.48267  -0.45447  -0.45447  -0.30495
  Beta virt. eigenvalues --    0.00741   0.02431   0.05591   0.05591   0.08299
  Beta virt. eigenvalues --    0.08365   0.08365   0.09804   0.13266   0.18166
  Beta virt. eigenvalues --    0.18166   0.22102   0.22103   0.24357   0.26563

 Mulliken charges and spin densities:
               1          2
     1  C   -0.504667   0.000000
     2  C   -0.504667   0.000000
     3  H    0.168222  -0.000000
     4  H    0.168222  -0.000000
     5  H    0.168223  -0.000000
     6  H    0.168222  -0.000000
     7  H    0.168222  -0.000000
     8  H    0.168222  -0.000000
 Sum of Mulliken charges =  -0.00000  -0.00000

 Dipole moment (field-independent basis, Debye):
    X=             -0.0000    Y=             -0.0000    Z=             -0.0000  Tot=              0.0000
 Quadrupole moment (field-independent basis, Debye-Ang):
   XX=            -15.5522   YY=            -14.8355   ZZ=            -14.8356
   XY=             -0.0000   XZ=             -0.0000   YZ=             -0.0000

 Normal termination of Gaussian 16 at Tue Nov 19 12:14:14 2024.
