 Gaussian 16, Revision A.03,
 Gaussian 16:  ES64L-G16RevA.03 25-Dec-2016

 --------------------------------------------
 #p opt UM062X/6-311+G** nosymm int=superfine
 --------------------------------------------

 -------------------
 Title Card Required
 -------------------
 Symbolic Z-matrix:
 Charge =  1 Multiplicity = 2

 SCF Done:  E(UM062X) =  -1615.55730095     A.U. after   22 cycles
 SCF Done:  E(UM062X) =  -1615.58554750     A.U. after   21 cycles
 SCF Done:  E(UM062X) =  -1615.58689359     A.U. after   20 cycles
 SCF Done:  E(UM062X) =  -1615.58700582     A.U. after   19 cycles
 SCF Done:  E(UM062X) =  -1615.58656123     A.U. after   22 cycles
 SCF Done:  E(UM062X) =  -1615.57001646     A.U. after   26 cycles
 SCF Done:  E(UM062X) =  -1615.56818977     A.U. after   24 cycles
 SCF Done:  E(UM062X) =  -1615.58707931     A.U. after   18 cycles
 SCF Done:  E(UM062X) =  -1615.58693281     A.U. after   22 cycles
 SCF Done:  E(UM062X) =  -1615.58713503     A.U. after   23 cycles
 SCF Done:  E(UM062X) =  -1615.58721909     A.U. after   20 cycles
 SCF Done:  E(UM062X) =  -1615.58722328     A.U. after   17 cycles
 SCF Done:  E(UM062X) =  -1615.58722416     A.U. after   17 cycles
 SCF Done:  E(UM062X) =  -1615.58722463     A.U. after   13 cycles
 SCF Done:  E(UM062X) =  -1615.58722470     A.U. after   13 cycles
 SCF Done:  E(UM062X) =  -1615.58722472     A.U. after   13 cycles
 Optimization completed.
    -- Stationary point found.

                          Input orientation:
 ---------------------------------------------------------------------
 Center     Atomic      Atomic             Coordinates (Angstroms)
 Number     Number       Type             X           Y           Z
 ---------------------------------------------------------------------
      1          6           0       -1.497991    0.000000    0.000000
      2          6           0        1.497991    0.000000    0.000000
      3          6           0        0.000005   -2.092140    0.000099
      4          6           0        0.000002   -3.484727    0.000173
      5          6           0       -1.133451   -4.303933    0.221699
      6          6           0       -1.285753   -1.474895    0.194444
      7          6           0        0.663281   -5.698260   -0.131504
      8          1           0        1.289197   -6.569842   -0.259290
      9          6           0       -1.591179    0.785426    1.205398
     10          6           0       -0.663270   -5.698245    0.132140
     11          1           0       -1.289184   -6.569813    0.260035
     12          6           0        1.133461   -4.303958   -0.221224
     13          6           0        1.285765   -1.474918   -0.194305
     14          6           0        1.743952    2.207866   -1.294514
     15          6           0       -1.635047    0.381336   -1.383008
     16          6           0       -1.869531    2.808784    2.560567
     17          1           0       -2.001495    3.883775    2.602236
     18          6           0       -2.335724   -3.692569    0.464066
     19          1           0       -3.243380   -4.254783    0.650807
     20          6           0       -1.644421    1.717670   -1.903357
     21          6           0        2.387069   -2.272558   -0.436215
     22          1           0        3.348512   -1.787959   -0.573002
     23          6           0        1.635022    0.381446    1.382968
     24          6           0        1.644438    1.717825    1.903203
     25          6           0        2.335744   -3.692622   -0.463614
     26          1           0        3.243407   -4.254859   -0.650251
     27          6           0       -1.743775    2.208005    1.294302
     28          6           0       -1.496849    0.085415    2.443370
     29          1           0       -1.333912   -0.981385    2.432577
     30          6           0        1.727042   -0.669174    2.350012
     31          1           0        1.753916   -1.695676    2.017795
     32          6           0       -1.826589    2.084401    3.733457
     33          1           0       -1.936763    2.582703    4.688935
     34          6           0       -2.387048   -2.272507    0.436497
     35          1           0       -3.348487   -1.787893    0.573252
     36          6           0       -1.695890    1.914688   -3.298469
     37          1           0       -1.683115    2.933820   -3.667101
     38          6           0        1.591168    0.785315   -1.205481
     39          6           0       -1.715531    3.136625    0.195199
     40          1           0       -1.751407    4.177576    0.501650
     41          6           0       -1.785661    0.872538   -4.192134
     42          1           0       -1.844458    1.066920   -5.256178
     43          6           0       -1.640846    2.932028   -1.134611
     44          1           0       -1.615612    3.832930   -1.740360
     45          6           0        1.695729    1.914950    3.298303
     46          1           0        1.682960    2.934112    3.666855
     47          6           0       -1.617627    0.705451    3.666683
     48          1           0       -1.545702    0.116236    4.572805
     49          6           0       -1.727184   -0.669356   -2.349970
     50          1           0       -1.754059   -1.695832   -2.017680
     51          6           0        1.785343    0.872862    4.192061
     52          1           0        1.844002    1.067327    5.256097
     53          6           0        1.869652    2.808533   -2.560837
     54          1           0        2.001767    3.883502   -2.602604
     55          6           0        1.818124   -0.437099    3.700993
     56          1           0        1.910882   -1.275354    4.380678
     57          6           0        1.826465    2.084071   -3.733671
     58          1           0        1.936590    2.582291   -4.689197
     59          6           0        1.715982    3.136578   -0.195483
     60          1           0        1.752142    4.177495   -0.502015
     61          6           0       -1.818398   -0.437385   -3.700960
     62          1           0       -1.911232   -1.275691   -4.380571
     63          6           0        1.641201    2.932112    1.134344
     64          1           0        1.616179    3.833074    1.740012
     65          6           0        1.496633    0.085222   -2.443395
     66          1           0        1.333568   -0.981556   -2.432513
     67          6           0        1.617340    0.705153   -3.666769
     68          1           0        1.545233    0.115877   -4.572837
 ---------------------------------------------------------------------

 Alpha  occ. eigenvalues --  -10.70776 -10.70775 -10.68613 -10.68613 -10.68581
 Alpha  occ. eigenvalues --  -10.68580 -10.68243 -10.68242 -10.68208 -10.68208
 Alpha  occ. eigenvalues --  -10.67231 -10.67228 -10.66779 -10.66666 -10.66666
 Alpha  occ. eigenvalues --  -10.66562 -10.66562 -10.65961 -10.65961 -10.65829
 Alpha  occ. eigenvalues --  -10.65829 -10.65744 -10.65744 -10.65731 -10.65731
 Alpha  occ. eigenvalues --  -10.65617 -10.65617 -10.65607 -10.65607 -10.65581
 Alpha  occ. eigenvalues --  -10.65581 -10.65445 -10.65444 -10.65385 -10.65385
 Alpha  occ. eigenvalues --  -10.65318 -10.65318 -10.64915 -10.64915 -10.63870
 Alpha  occ. eigenvalues --  -10.63770 -10.63571  -1.12058  -1.10281  -1.10102
 Alpha  occ. eigenvalues --   -1.08347  -1.07796  -1.05440  -1.04937  -1.02545
 Alpha  occ. eigenvalues --   -1.02122  -1.00979  -1.00324  -0.97953  -0.97641
 Alpha  occ. eigenvalues --   -0.96779  -0.96291  -0.94942  -0.93533  -0.93482
 Alpha  occ. eigenvalues --   -0.92847  -0.91786  -0.87384  -0.87260  -0.84993
 Alpha  occ. eigenvalues --   -0.84794  -0.83077  -0.81492  -0.80968  -0.79796
 Alpha  occ. eigenvalues --   -0.79695  -0.79535  -0.77426  -0.76357  -0.76182
 Alpha  occ. eigenvalues --   -0.75856  -0.75383  -0.73415  -0.70207  -0.69653
 Alpha  occ. eigenvalues --   -0.68912  -0.68549  -0.67757  -0.67657  -0.66924
 Alpha  occ. eigenvalues --   -0.66878  -0.65727  -0.65366  -0.65216  -0.64738
 Alpha  occ. eigenvalues --   -0.63243  -0.62825  -0.62396  -0.62129  -0.61013
 Alpha  occ. eigenvalues --   -0.60993  -0.60549  -0.60448  -0.60111  -0.60048
 Alpha  occ. eigenvalues --   -0.59561  -0.58855  -0.58819  -0.58124  -0.57735
 Alpha  occ. eigenvalues --   -0.57524  -0.56977  -0.55978  -0.55664  -0.55658
 Alpha  occ. eigenvalues --   -0.54949  -0.53971  -0.53045  -0.52849  -0.52638
 Alpha  occ. eigenvalues --   -0.52388  -0.52374  -0.52209  -0.51026  -0.50955
 Alpha  occ. eigenvalues --   -0.50940  -0.50891  -0.49842  -0.49530  -0.49488
 Alpha  occ. eigenvalues --   -0.48711  -0.48475  -0.47868  -0.45333  -0.44728
 Alpha  occ. eigenvalues --   -0.44038  -0.42785  -0.40504  -0.40425  -0.39286
 Alpha  occ. eigenvalues --   -0.38163  -0.37539  -0.37085  -0.30850
 Alpha virt. eigenvalues --   -0.20842  -0.16017  -0.15525  -0.14335  -0.10674
 Alpha virt. eigenvalues --   -0.09981  -0.08923  -0.08552  -0.08359  -0.07558
 Alpha virt. eigenvalues --   -0.07535  -0.07434  -0.06652  -0.06342  -0.06150

  Beta  occ. eigenvalues --  -10.70626 -10.70626 -10.68658 -10.68657 -10.68619
  Beta  occ. eigenvalues --  -10.68619 -10.68203 -10.68203 -10.68163 -10.68163
  Beta  occ. eigenvalues --  -10.67250 -10.67247 -10.66750 -10.66661 -10.66661
  Beta  occ. eigenvalues --  -10.66554 -10.66554 -10.65922 -10.65922 -10.65796
  Beta  occ. eigenvalues --  -10.65796 -10.65709 -10.65709 -10.65701 -10.65701
  Beta  occ. eigenvalues --  -10.65635 -10.65635 -10.65626 -10.65626 -10.65579
  Beta  occ. eigenvalues --  -10.65579 -10.65458 -10.65458 -10.65372 -10.65372
  Beta  occ. eigenvalues --  -10.65335 -10.65335 -10.64914 -10.64913 -10.63870
  Beta  occ. eigenvalues --  -10.63770 -10.63568  -1.11907  -1.10118  -1.10020
  Beta  occ. eigenvalues --   -1.08238  -1.07702  -1.05277  -1.04801  -1.02429
  Beta  occ. eigenvalues --   -1.02023  -1.00806  -1.00157  -0.97850  -0.97547
  Beta  occ. eigenvalues --   -0.96665  -0.96194  -0.94895  -0.93467  -0.93387
  Beta  occ. eigenvalues --   -0.92777  -0.91703  -0.87090  -0.86904  -0.84926
  Beta  occ. eigenvalues --   -0.84733  -0.82998  -0.81397  -0.80863  -0.79714
  Beta  occ. eigenvalues --   -0.79627  -0.79465  -0.77319  -0.76208  -0.76031
  Beta  occ. eigenvalues --   -0.75695  -0.75346  -0.73297  -0.70091  -0.69509
  Beta  occ. eigenvalues --   -0.68786  -0.68437  -0.67709  -0.67613  -0.66803
  Beta  occ. eigenvalues --   -0.66769  -0.65646  -0.65219  -0.65075  -0.64642
  Beta  occ. eigenvalues --   -0.63049  -0.62777  -0.62316  -0.62056  -0.60862
  Beta  occ. eigenvalues --   -0.60736  -0.60410  -0.60237  -0.60051  -0.59995
  Beta  occ. eigenvalues --   -0.59430  -0.58730  -0.58725  -0.58054  -0.57569
  Beta  occ. eigenvalues --   -0.57242  -0.56730  -0.55688  -0.55619  -0.55607
  Beta  occ. eigenvalues --   -0.54926  -0.53664  -0.52942  -0.52765  -0.52571
  Beta  occ. eigenvalues --   -0.52284  -0.52272  -0.52174  -0.50962  -0.50881
  Beta  occ. eigenvalues --   -0.50806  -0.50475  -0.49496  -0.49346  -0.48879
  Beta  occ. eigenvalues --   -0.48417  -0.48260  -0.47571  -0.44678  -0.44196
  Beta  occ. eigenvalues --   -0.43319  -0.42438  -0.40361  -0.40148  -0.38700
  Beta  occ. eigenvalues --   -0.38033  -0.37264  -0.36996
  Beta virt. eigenvalues --   -0.21150  -0.18034  -0.15831  -0.15491  -0.14390
  Beta virt. eigenvalues --   -0.10357  -0.09576  -0.08547  -0.08494  -0.08107
  Beta virt. eigenvalues --   -0.07596  -0.07570  -0.07215  -0.06636  -0.06275

 Mulliken charges and spin densities:
               1          2
     1  C    0.023394   0.375542
     2  C    0.023203   0.375524
     3  C    0.290486   0.011690
     4  C    0.202475  -0.007745
     5  C    0.148047   0.005933
     6  C   -0.030344  -0.034545
     7  C   -0.305904   0.000769
     8  H    0.176103  -0.000021
     9  C    0.127395  -0.057199
    10  C   -0.305960   0.000769
    11  H    0.176103  -0.000021
    12  C    0.148036   0.005938
    13  C   -0.030265  -0.034539
    14  C    0.497535   0.028819
    15  C    0.402766  -0.085128
    16  C   -0.396317  -0.032451
    17  H    0.165708   0.001128
    18  C   -0.510672   0.001674
    19  H    0.175840   0.000187
    20  C    0.236847   0.108044
    21  C   -0.088565   0.022341
    22  H    0.175316  -0.000272
    23  C    0.402738  -0.085122
    24  C    0.236942   0.108033
    25  C   -0.510706   0.001674
    26  H    0.175841   0.000187
    27  C    0.497363   0.028793
    28  C    0.005143   0.081407
    29  H    0.208849  -0.004166
    30  C   -0.264511   0.037131
    31  H    0.225751  -0.002919
    32  C   -0.402199   0.057739
    33  H    0.182375  -0.003255
    34  C   -0.088482   0.022351
    35  H    0.175323  -0.000272
    36  C   -0.020611  -0.060396
    37  H    0.160785   0.001523
    38  C    0.127270  -0.057223
    39  C   -0.311175   0.057998
    40  H    0.165213  -0.003093
    41  C   -0.236006   0.068930
    42  H    0.180858  -0.003534
    43  C   -0.342959   0.011281
    44  H    0.160470  -0.000574
    45  C   -0.020446  -0.060389
    46  H    0.160778   0.001523
    47  C   -0.054305  -0.040930
    48  H    0.168390   0.000010
    49  C   -0.264599   0.037138
    50  H    0.225748  -0.002919
    51  C   -0.235901   0.068951
    52  H    0.180856  -0.003536
    53  C   -0.396153  -0.032459
    54  H    0.165707   0.001128
    55  C   -0.545668  -0.035257
    56  H    0.175977   0.001314
    57  C   -0.402117   0.057740
    58  H    0.182376  -0.003255
    59  C   -0.311592   0.057983
    60  H    0.165228  -0.003092
    61  C   -0.545440  -0.035249
    62  H    0.175977   0.001314
    63  C   -0.343173   0.011292
    64  H    0.160488  -0.000574
    65  C    0.005345   0.081406
    66  H    0.208838  -0.004166
    67  C   -0.054201  -0.040910
    68  H    0.168387   0.000010
 Sum of Mulliken charges =   1.00000   1.00000

 Dipole moment (field-independent basis, Debye):
    X=             -0.0000    Y=              2.4713    Z=             -0.0000  Tot=              2.4713
 Quadrupole moment (field-independent basis, Debye-Ang):
   XX=           -222.5114   YY=           -174.9649   ZZ=           -176.1917
   XY=              0.0023   XZ=             -0.8188   YZ=             -0.0009

 Normal termination of Gaussian 16 at Thu Nov  7 23:56:46 2024.
