 Gaussian 16, Revision A.03,
 Gaussian 16:  ES64L-G16RevA.03 25-Dec-2016

 --------------------------------------------
 #p opt UM062X/6-311+G** nosymm int=superfine
 --------------------------------------------

 -------------------
 Title Card Required
 -------------------
 Symbolic Z-matrix:
 Charge =  1 Multiplicity = 2

 SCF Done:  E(UM062X) =  -78.1513222997     A.U. after    9 cycles
 SCF Done:  E(UM062X) =  -78.1600037578     A.U. after    8 cycles
 SCF Done:  E(UM062X) =  -78.1609119085     A.U. after    8 cycles
 SCF Done:  E(UM062X) =  -78.1609414885     A.U. after    6 cycles
 Optimization completed.
    -- Stationary point found.

                          Input orientation:
 ---------------------------------------------------------------------
 Center     Atomic      Atomic             Coordinates (Angstroms)
 Number     Number       Type             X           Y           Z
 ---------------------------------------------------------------------
      1          6           0       -0.805857    0.000000    0.000000
      2          6           0        0.805857    0.000000    0.000000
      3          1           0       -1.326813   -0.951914    0.000000
      4          1           0       -1.326888    0.951878    0.000000
      5          1           0        1.326813    0.951914    0.000000
      6          1           0        1.326888   -0.951878   -0.000000
 ---------------------------------------------------------------------

 Alpha  occ. eigenvalues --  -10.90854 -10.90816  -1.13183  -0.98637  -0.82824
 Alpha  occ. eigenvalues --   -0.75441  -0.74930  -0.62356
 Alpha virt. eigenvalues --   -0.32491  -0.14538  -0.13742  -0.11691  -0.09149
 Alpha virt. eigenvalues --   -0.07553  -0.07138  -0.04630  -0.04607  -0.04084
 Alpha virt. eigenvalues --   -0.01913  -0.01132   0.03299   0.10098   0.19221

  Beta  occ. eigenvalues --  -10.90628 -10.90601  -1.09595  -0.96612  -0.81952
  Beta  occ. eigenvalues --   -0.74584  -0.74357
  Beta virt. eigenvalues --   -0.39344  -0.24757  -0.16225  -0.13234  -0.11998
  Beta virt. eigenvalues --   -0.09344  -0.08305  -0.07181  -0.04657  -0.03972
  Beta virt. eigenvalues --   -0.02911  -0.01333  -0.00300   0.03086   0.10593

 Mulliken charges and spin densities:
               1          2
     1  C   -0.059027   0.538994
     2  C   -0.059027   0.538994
     3  H    0.279510  -0.019498
     4  H    0.279517  -0.019497
     5  H    0.279510  -0.019498
     6  H    0.279517  -0.019497
 Sum of Mulliken charges =   1.00000   1.00000

 Dipole moment (field-independent basis, Debye):
    X=              0.0000    Y=             -0.0000    Z=              0.0000  Tot=              0.0000
 Quadrupole moment (field-independent basis, Debye-Ang):
   XX=             -4.5857   YY=             -8.3821   ZZ=            -11.8920
   XY=             -0.0002   XZ=             -0.0000   YZ=             -0.0000

 Normal termination of Gaussian 16 at Tue Nov 19 11:06:03 2024.
