 Gaussian 16, Revision A.03,
 Gaussian 16:  ES64L-G16RevA.03 25-Dec-2016

 ---------------------------------------------------
 #p UM062X/6-311+G** force int=superfine pop=saveNBO
 ---------------------------------------------------

 -------------------
 Title Card Required
 -------------------
 Symbolic Z-matrix:
 Charge =  0 Multiplicity = 1

                         Standard orientation:
 ---------------------------------------------------------------------
 Center     Atomic      Atomic             Coordinates (Angstroms)
 Number     Number       Type             X           Y           Z
 ---------------------------------------------------------------------
      1         15           0        0.000000    0.000000    1.613495
      2         15           0        0.000000    0.000000   -1.613495
 ---------------------------------------------------------------------

 SCF Done:  E(UM062X) =  -682.381556986     A.U. after    9 cycles

 The electronic state is 1-SGG.
 Alpha  occ. eigenvalues --  -78.12085 -78.12085  -6.93625  -6.93624  -5.04931
 Alpha  occ. eigenvalues --   -5.04931  -5.04931  -5.04931  -5.04899  -5.04899
 Alpha  occ. eigenvalues --   -0.65500  -0.62064  -0.29777  -0.26522  -0.26522
 Alpha virt. eigenvalues --   -0.15947  -0.15947  -0.11612   0.02417   0.03305
 Alpha virt. eigenvalues --    0.04583   0.04583   0.06194   0.06489   0.06489
 Alpha virt. eigenvalues --    0.11267   0.28840   0.29762   0.29762   0.33208

  Beta  occ. eigenvalues --  -78.12085 -78.12085  -6.93625  -6.93624  -5.04931
  Beta  occ. eigenvalues --   -5.04931  -5.04931  -5.04931  -5.04899  -5.04899
  Beta  occ. eigenvalues --   -0.65500  -0.62064  -0.29777  -0.26522  -0.26522
  Beta virt. eigenvalues --   -0.15947  -0.15947  -0.11612   0.02417   0.03305
  Beta virt. eigenvalues --    0.04583   0.04583   0.06194   0.06489   0.06489
  Beta virt. eigenvalues --    0.11267   0.28840   0.29762   0.29762   0.33208

 Mulliken charges and spin densities:
               1          2
     1  P   -0.000000   0.000000
     2  P   -0.000000   0.000000
 Sum of Mulliken charges =  -0.00000   0.00000

 Dipole moment (field-independent basis, Debye):
    X=             -0.0000    Y=             -0.0000    Z=              0.0000  Tot=              0.0000
 Quadrupole moment (field-independent basis, Debye-Ang):
   XX=            -29.3218   YY=            -29.3218   ZZ=            -24.5596
   XY=              0.0000   XZ=             -0.0000   YZ=              0.0000

 Summary of Natural Population Analysis:

                                       Natural Population
                Natural  -----------------------------------------------
    Atom  No    Charge         Core      Valence    Rydberg      Total
 -----------------------------------------------------------------------
      P    1   -0.00000      4.99999     2.49922    0.00079     7.50000
      P    2    0.00000      4.99999     2.49922    0.00079     7.50000
 =======================================================================
   * Total *   -0.00000      9.99998     4.99845    0.00157    15.00000

 Normal termination of Gaussian 16 at Mon Apr 21 21:21:12 2025.
