 Gaussian 16, Revision A.03,
 Gaussian 16:  ES64L-G16RevA.03 25-Dec-2016

 ---------------------------------------------------
 #p UM062X/6-311+G** force int=superfine pop=saveNBO
 ---------------------------------------------------

 -------------------
 Title Card Required
 -------------------
 Symbolic Z-matrix:
 Charge =  0 Multiplicity = 1

                         Standard orientation:
 ---------------------------------------------------------------------
 Center     Atomic      Atomic             Coordinates (Angstroms)
 Number     Number       Type             X           Y           Z
 ---------------------------------------------------------------------
      1          6           0        0.000000    0.000000   -2.784431
      2         16           0        0.000000    0.000000    1.044161
 ---------------------------------------------------------------------

 SCF Done:  E(UM062X) =  -435.750005362     A.U. after   21 cycles

 The electronic state is 1-SG.
 Alpha  occ. eigenvalues --  -89.93555 -10.82530  -8.29379  -6.21182  -6.21182
 Alpha  occ. eigenvalues --   -6.21085  -0.73174  -0.71041  -0.29683  -0.28353
 Alpha  occ. eigenvalues --   -0.28353
 Alpha virt. eigenvalues --   -0.20575  -0.20575  -0.18807   0.02603   0.05616
 Alpha virt. eigenvalues --    0.05758   0.05758   0.08400   0.08400   0.08484
 Alpha virt. eigenvalues --    0.13568   0.35596   0.36296   0.36296   0.51542

  Beta  occ. eigenvalues --  -89.93555 -10.82530  -8.29379  -6.21182  -6.21182
  Beta  occ. eigenvalues --   -6.21085  -0.73174  -0.71041  -0.29683  -0.28353
  Beta  occ. eigenvalues --   -0.28353
  Beta virt. eigenvalues --   -0.20575  -0.20575  -0.18807   0.02603   0.05616
  Beta virt. eigenvalues --    0.05758   0.05758   0.08400   0.08400   0.08484
  Beta virt. eigenvalues --    0.13568   0.35596   0.36296   0.36296   0.51542

 Mulliken charges and spin densities:
               1          2
     1  C    0.217840   0.000000
     2  S   -0.217840  -0.000000
 Sum of Mulliken charges =  -0.00000   0.00000

 Dipole moment (field-independent basis, Debye):
    X=              0.0000    Y=              0.0000    Z=             -3.9828  Tot=              3.9828
 Quadrupole moment (field-independent basis, Debye-Ang):
   XX=            -20.9118   YY=            -20.9118   ZZ=            -11.3088
   XY=              0.0000   XZ=              0.0000   YZ=              0.0000

 Summary of Natural Population Analysis:

                                       Natural Population
                Natural  -----------------------------------------------
    Atom  No    Charge         Core      Valence    Rydberg      Total
 -----------------------------------------------------------------------
      C    1    0.12361      1.00000     1.87594    0.00045     2.87639
      S    2   -0.12361      5.00000     3.12335    0.00026     8.12361
 =======================================================================
   * Total *   -0.00000      6.00000     4.99929    0.00071    11.00000

 Normal termination of Gaussian 16 at Mon Apr 21 19:46:55 2025.
