 Gaussian 16, Revision A.03,
 Gaussian 16:  ES64L-G16RevA.03 25-Dec-2016

 --------------------------------------------
 #p opt UM062X/6-311+G** nosymm int=superfine
 --------------------------------------------

 -------------------
 Title Card Required
 -------------------
 Symbolic Z-matrix:
 Charge =  0 Multiplicity = 1

 SCF Done:  E(UM062X) =  -579.900953690     A.U. after    9 cycles
 SCF Done:  E(UM062X) =  -579.905028597     A.U. after    9 cycles
 SCF Done:  E(UM062X) =  -579.905054478     A.U. after    8 cycles
 Optimization completed.
    -- Stationary point found.

                          Input orientation:
 ---------------------------------------------------------------------
 Center     Atomic      Atomic             Coordinates (Angstroms)
 Number     Number       Type             X           Y           Z
 ---------------------------------------------------------------------
      1         14           0       -1.553705    0.000000    0.000000
      2         14           0        1.553705    0.000000    0.000000
      3          1           0       -3.094525    0.000073    0.000000
      4          1           0        3.094525    0.000141   -0.000000
 ---------------------------------------------------------------------

 Alpha  occ. eigenvalues --  -67.04268 -67.04268  -5.58692  -5.58692  -3.89759
 Alpha  occ. eigenvalues --   -3.89758  -3.89315  -3.89314  -3.89226  -3.89224
 Alpha  occ. eigenvalues --   -0.55534  -0.53583  -0.37049  -0.27512  -0.20036
 Alpha virt. eigenvalues --   -0.10511  -0.08431  -0.06953   0.02187   0.03083
 Alpha virt. eigenvalues --    0.04383   0.04636   0.05579   0.06188   0.07127
 Alpha virt. eigenvalues --    0.09680   0.10392   0.22288   0.29420   0.29789

  Beta  occ. eigenvalues --  -67.04268 -67.04268  -5.58692  -5.58692  -3.89759
  Beta  occ. eigenvalues --   -3.89758  -3.89315  -3.89314  -3.89226  -3.89224
  Beta  occ. eigenvalues --   -0.55534  -0.53583  -0.37049  -0.27512  -0.20036
  Beta virt. eigenvalues --   -0.10511  -0.08431  -0.06953   0.02187   0.03083
  Beta virt. eigenvalues --    0.04383   0.04636   0.05579   0.06188   0.07127
  Beta virt. eigenvalues --    0.09680   0.10392   0.22288   0.29420   0.29789

 Mulliken charges and spin densities:
               1          2
     1  Si   0.142394   0.000000
     2  Si   0.142394  -0.000000
     3  H   -0.142394  -0.000000
     4  H   -0.142394   0.000000
 Sum of Mulliken charges =  -0.00000  -0.00000

 Dipole moment (field-independent basis, Debye):
    X=              0.0000    Y=              0.0000    Z=              0.0000  Tot=              0.0000
 Quadrupole moment (field-independent basis, Debye-Ang):
   XX=            -32.9109   YY=            -24.0354   ZZ=            -35.0636
   XY=             -0.0001   XZ=              0.0000   YZ=             -0.0073

 Normal termination of Gaussian 16 at Mon Apr 21 21:23:28 2025.
