 Gaussian 16, Revision A.03,
 Gaussian 16:  ES64L-G16RevA.03 25-Dec-2016

 ---------------------------------------------------
 #p UM062X/6-311+G** force int=superfine pop=saveNBO
 ---------------------------------------------------

 -------------------
 Title Card Required
 -------------------
 Symbolic Z-matrix:
 Charge =  0 Multiplicity = 1

                         Standard orientation:
 ---------------------------------------------------------------------
 Center     Atomic      Atomic             Coordinates (Angstroms)
 Number     Number       Type             X           Y           Z
 ---------------------------------------------------------------------
      1          6           0        0.000000    0.000000   -1.511703
      2         16           0        0.000000    0.000000    0.566889
 ---------------------------------------------------------------------

 SCF Done:  E(UM062X) =  -436.060853565     A.U. after   11 cycles

 The electronic state is 1-SG.
 Alpha  occ. eigenvalues --  -89.95729 -10.76512  -8.31506  -6.23440  -6.23232
 Alpha  occ. eigenvalues --   -6.23232  -0.81132  -0.64545  -0.38528  -0.34728
 Alpha  occ. eigenvalues --   -0.34728
 Alpha virt. eigenvalues --   -0.12478  -0.12478  -0.01732   0.03757   0.05741
 Alpha virt. eigenvalues --    0.05741   0.06343   0.08687   0.09773   0.09773
 Alpha virt. eigenvalues --    0.16182   0.33422   0.35427   0.35427   0.54441

  Beta  occ. eigenvalues --  -89.95729 -10.76512  -8.31506  -6.23440  -6.23232
  Beta  occ. eigenvalues --   -6.23232  -0.81132  -0.64545  -0.38528  -0.34728
  Beta  occ. eigenvalues --   -0.34728
  Beta virt. eigenvalues --   -0.12478  -0.12478  -0.01732   0.03757   0.05741
  Beta virt. eigenvalues --    0.05741   0.06343   0.08687   0.09773   0.09773
  Beta virt. eigenvalues --    0.16182   0.33422   0.35427   0.35427   0.54441

 Mulliken charges and spin densities:
               1          2
     1  C    0.079504   0.000000
     2  S   -0.079504  -0.000000
 Sum of Mulliken charges =  -0.00000  -0.00000

 Dipole moment (field-independent basis, Debye):
    X=              0.0000    Y=              0.0000    Z=             -0.4651  Tot=              0.4651
 Quadrupole moment (field-independent basis, Debye-Ang):
   XX=            -19.9138   YY=            -19.9138   ZZ=            -18.6353
   XY=              0.0000   XZ=              0.0000   YZ=              0.0000

 Summary of Natural Population Analysis:

                                       Natural Population
                Natural  -----------------------------------------------
    Atom  No    Charge         Core      Valence    Rydberg      Total
 -----------------------------------------------------------------------
      C    1    0.07606      0.99998     1.92022    0.00374     2.92394
      S    2   -0.07606      4.99992     3.06730    0.00885     8.07606
 =======================================================================
   * Total *    0.00000      5.99990     4.98752    0.01258    11.00000

 Normal termination of Gaussian 16 at Mon Apr 21 19:46:20 2025.
