 Gaussian 16, Revision A.03,
 Gaussian 16:  ES64L-G16RevA.03 25-Dec-2016

 --------------------------------------------
 #p opt UM062X/6-311+G** nosymm int=superfine
 --------------------------------------------

 -------------------
 Title Card Required
 -------------------
 Symbolic Z-matrix:
 Charge =  0 Multiplicity = 1

 SCF Done:  E(UM062X) =  -95.6051762464     A.U. after   14 cycles
 SCF Done:  E(UM062X) =  -95.6217286240     A.U. after   11 cycles
 SCF Done:  E(UM062X) =  -95.6332274170     A.U. after   14 cycles
 SCF Done:  E(UM062X) =  -95.6335934622     A.U. after   11 cycles
 SCF Done:  E(UM062X) =  -95.6337874885     A.U. after   14 cycles
 SCF Done:  E(UM062X) =  -95.6338407832     A.U. after   12 cycles
 SCF Done:  E(UM062X) =  -95.6338482430     A.U. after   10 cycles
 SCF Done:  E(UM062X) =  -95.6338512797     A.U. after   11 cycles
 SCF Done:  E(UM062X) =  -95.6338531640     A.U. after    9 cycles
 SCF Done:  E(UM062X) =  -95.6338542503     A.U. after    9 cycles
 SCF Done:  E(UM062X) =  -95.6338546620     A.U. after   11 cycles
 Optimization completed.
    -- Stationary point found.

                          Input orientation:
 ---------------------------------------------------------------------
 Center     Atomic      Atomic             Coordinates (Angstroms)
 Number     Number       Type             X           Y           Z
 ---------------------------------------------------------------------
      1          6           0       -1.630542    0.000000    0.000000
      2          7           0        1.630542    0.000000    0.000000
      3          1           0        1.596311   -1.015722    0.139567
      4          1           0       -1.650638    1.080101    0.007859
      5          1           0        1.596394    0.367515    0.957137
      6          1           0       -1.650343   -0.523516   -0.944785
      7          1           0       -1.770638   -0.547334    0.921320
 ---------------------------------------------------------------------

 Alpha  occ. eigenvalues --  -14.75022 -10.61797  -0.90215  -0.80498  -0.52670
 Alpha  occ. eigenvalues --   -0.52461  -0.50668  -0.35970  -0.26255
 Alpha virt. eigenvalues --   -0.12525   0.01736   0.04746   0.05174   0.06971
 Alpha virt. eigenvalues --    0.10012   0.13195   0.15933   0.16753   0.17165
 Alpha virt. eigenvalues --    0.18980   0.20902   0.22221   0.28982   0.41214

  Beta  occ. eigenvalues --  -14.75022 -10.61797  -0.90215  -0.80498  -0.52670
  Beta  occ. eigenvalues --   -0.52461  -0.50668  -0.35970  -0.26255
  Beta virt. eigenvalues --   -0.12525   0.01736   0.04746   0.05174   0.06971
  Beta virt. eigenvalues --    0.10012   0.13195   0.15933   0.16753   0.17165
  Beta virt. eigenvalues --    0.18980   0.20902   0.22221   0.28982   0.41214

 Mulliken charges and spin densities:
               1          2
     1  C   -0.430418   0.000000
     2  N   -0.588694  -0.000000
     3  H    0.215129  -0.000000
     4  H    0.200932  -0.000000
     5  H    0.215129  -0.000000
     6  H    0.200987  -0.000000
     7  H    0.186935  -0.000000
 Sum of Mulliken charges =  -0.00000  -0.00000

 Dipole moment (field-independent basis, Debye):
    X=             -3.0015    Y=             -0.9848    Z=              1.6661  Tot=              3.5714
 Quadrupole moment (field-independent basis, Debye-Ang):
   XX=            -15.3615   YY=            -13.3997   ZZ=            -14.2009
   XY=             -1.7051   XZ=              2.8851   YZ=              0.7279

 Normal termination of Gaussian 16 at Mon Apr 21 18:15:53 2025.
