 Gaussian 16, Revision A.03,
 Gaussian 16:  ES64L-G16RevA.03 25-Dec-2016

 --------------------------------------------
 #p opt UM062X/6-311+G** nosymm int=superfine
 --------------------------------------------

 -------------------
 Title Card Required
 -------------------
 Symbolic Z-matrix:
 Charge =  0 Multiplicity = 1

 SCF Done:  E(UM062X) =  -115.493072506     A.U. after   15 cycles
 SCF Done:  E(UM062X) =  -115.509043170     A.U. after   11 cycles
 SCF Done:  E(UM062X) =  -115.517608108     A.U. after   11 cycles
 SCF Done:  E(UM062X) =  -115.517748637     A.U. after   12 cycles
 SCF Done:  E(UM062X) =  -115.517834917     A.U. after   12 cycles
 SCF Done:  E(UM062X) =  -115.517854742     A.U. after    9 cycles
 SCF Done:  E(UM062X) =  -115.517856700     A.U. after   11 cycles
 SCF Done:  E(UM062X) =  -115.517857096     A.U. after    8 cycles
 SCF Done:  E(UM062X) =  -115.517857352     A.U. after   10 cycles
 SCF Done:  E(UM062X) =  -115.517857530     A.U. after    8 cycles
 Optimization completed.
    -- Stationary point found.

                          Input orientation:
 ---------------------------------------------------------------------
 Center     Atomic      Atomic             Coordinates (Angstroms)
 Number     Number       Type             X           Y           Z
 ---------------------------------------------------------------------
      1          6           0       -1.432203    0.000000    0.000000
      2          8           0        1.432203    0.000000    0.000000
      3          1           0        1.474283   -0.964669    0.000283
      4          1           0       -1.524786   -0.530735    0.937102
      5          1           0       -1.399259    1.080143   -0.000765
      6          1           0       -1.524825   -0.532065   -0.936343
 ---------------------------------------------------------------------

 Alpha  occ. eigenvalues --  -19.59324 -10.66215  -1.01590  -0.83726  -0.55835
 Alpha  occ. eigenvalues --   -0.55571  -0.46068  -0.33019  -0.30537
 Alpha virt. eigenvalues --   -0.13662   0.00667   0.04083   0.04508   0.06506
 Alpha virt. eigenvalues --    0.14020   0.15611   0.15848   0.20120   0.22931
 Alpha virt. eigenvalues --    0.23035   0.24683   0.31027   0.39763   0.40163

  Beta  occ. eigenvalues --  -19.59324 -10.66215  -1.01590  -0.83726  -0.55835
  Beta  occ. eigenvalues --   -0.55571  -0.46068  -0.33019  -0.30537
  Beta virt. eigenvalues --   -0.13662   0.00667   0.04083   0.04508   0.06506
  Beta virt. eigenvalues --    0.14020   0.15611   0.15848   0.20120   0.22931
  Beta virt. eigenvalues --    0.23035   0.24683   0.31027   0.39763   0.40163

 Mulliken charges and spin densities:
               1          2
     1  C   -0.288114   0.000002
     2  O   -0.565271  -0.000002
     3  H    0.214881   0.000000
     4  H    0.207289  -0.000000
     5  H    0.223937  -0.000000
     6  H    0.207278  -0.000000
 Sum of Mulliken charges =  -0.00000  -0.00000

 Dipole moment (field-independent basis, Debye):
    X=             -5.0401    Y=             -1.5508    Z=              0.0005  Tot=              5.2733
 Quadrupole moment (field-independent basis, Debye-Ang):
   XX=            -13.2352   YY=            -11.4272   ZZ=            -13.8525
   XY=             -2.4794   XZ=              0.0007   YZ=             -0.0007

 Normal termination of Gaussian 16 at Mon Apr 21 18:43:37 2025.
