 Gaussian 16, Revision A.03,
 Gaussian 16:  ES64L-G16RevA.03 25-Dec-2016

 --------------------------------------------
 #p opt UM062X/6-311+G** nosymm int=superfine
 --------------------------------------------

 -------------------
 Title Card Required
 -------------------
 Symbolic Z-matrix:
 Charge =  1 Multiplicity = 2

 SCF Done:  E(UM062X) =  -76.8334706311     A.U. after   10 cycles
 SCF Done:  E(UM062X) =  -76.8553312881     A.U. after   10 cycles
 SCF Done:  E(UM062X) =  -76.8576804967     A.U. after    9 cycles
 SCF Done:  E(UM062X) =  -76.8576819539     A.U. after    7 cycles
 Optimization completed.
    -- Stationary point found.

                          Input orientation:
 ---------------------------------------------------------------------
 Center     Atomic      Atomic             Coordinates (Angstroms)
 Number     Number       Type             X           Y           Z
 ---------------------------------------------------------------------
      1          6           0       -0.714544    0.000000    0.000000
      2          6           0        0.714544    0.000000    0.000000
      3          1           0       -1.801404    0.000000   -0.000000
      4          1           0        1.801403    0.000000   -0.000000
 ---------------------------------------------------------------------

 Alpha  occ. eigenvalues --  -10.97133 -10.97052  -1.16573  -0.98182  -0.87814
 Alpha  occ. eigenvalues --   -0.68303  -0.65922
 Alpha virt. eigenvalues --   -0.31795  -0.29775  -0.18851  -0.14368  -0.11172
 Alpha virt. eigenvalues --   -0.09734  -0.09487  -0.09209  -0.05111  -0.04740
 Alpha virt. eigenvalues --    0.02080   0.04361   0.11752   0.20346   0.30815

  Beta  occ. eigenvalues --  -10.96895 -10.96832  -1.12162  -0.96530  -0.87234
  Beta  occ. eigenvalues --   -0.63632
  Beta virt. eigenvalues --   -0.43592  -0.28089  -0.24521  -0.17168  -0.15509
  Beta virt. eigenvalues --   -0.11426  -0.10048  -0.09813  -0.09141  -0.04795
  Beta virt. eigenvalues --   -0.04344   0.01548   0.04523   0.12321   0.21255

 Mulliken charges and spin densities:
               1          2
     1  C    0.164380   0.520077
     2  C    0.164380   0.520077
     3  H    0.335620  -0.020077
     4  H    0.335620  -0.020077
 Sum of Mulliken charges =   1.00000   1.00000

 Dipole moment (field-independent basis, Debye):
    X=             -0.0000    Y=              0.0000    Z=             -0.0000  Tot=              0.0000
 Quadrupole moment (field-independent basis, Debye-Ang):
   XX=              0.8855   YY=            -10.3502   ZZ=            -11.7986
   XY=             -0.0000   XZ=             -0.0000   YZ=             -0.6472

 Normal termination of Gaussian 16 at Tue Nov 19 13:05:30 2024.
