 Gaussian 16, Revision A.03,
 Gaussian 16:  ES64L-G16RevA.03 25-Dec-2016

 --------------------------------------------
 #p opt UM062X/6-311+G** nosymm int=superfine
 --------------------------------------------

 -------------------
 Title Card Required
 -------------------
 Symbolic Z-matrix:
 Charge =  0 Multiplicity = 1

 SCF Done:  E(UM062X) =  -581.139388416     A.U. after    9 cycles
 SCF Done:  E(UM062X) =  -581.159533203     A.U. after    8 cycles
 SCF Done:  E(UM062X) =  -581.172220480     A.U. after    8 cycles
 SCF Done:  E(UM062X) =  -581.172240547     A.U. after    8 cycles
 Optimization completed.
    -- Stationary point found.

                          Input orientation:
 ---------------------------------------------------------------------
 Center     Atomic      Atomic             Coordinates (Angstroms)
 Number     Number       Type             X           Y           Z
 ---------------------------------------------------------------------
      1         14           0       -2.037518    0.000000    0.000000
      2         14           0        2.037518    0.000000    0.000000
      3          1           0       -3.105406   -1.081880    0.000208
      4          1           0        3.105406    1.081880   -0.000376
      5          1           0       -3.105412    1.081875    0.000444
      6          1           0        3.105412   -1.081875    0.001028
 ---------------------------------------------------------------------

 Alpha  occ. eigenvalues --  -67.01068 -67.01068  -5.55803  -5.55801  -3.87040
 Alpha  occ. eigenvalues --   -3.87039  -3.86501  -3.86501  -3.86367  -3.86367
 Alpha  occ. eigenvalues --   -0.57155  -0.56939  -0.37624  -0.37542  -0.30001
 Alpha  occ. eigenvalues --   -0.26147
 Alpha virt. eigenvalues --   -0.08431  -0.07199   0.02099   0.02199   0.03172
 Alpha virt. eigenvalues --    0.04569   0.05877   0.06157   0.06388   0.06548
 Alpha virt. eigenvalues --    0.09208   0.09398   0.11705   0.14199   0.28988

  Beta  occ. eigenvalues --  -67.01068 -67.01068  -5.55803  -5.55801  -3.87040
  Beta  occ. eigenvalues --   -3.87039  -3.86501  -3.86501  -3.86367  -3.86367
  Beta  occ. eigenvalues --   -0.57155  -0.56939  -0.37624  -0.37542  -0.30001
  Beta  occ. eigenvalues --   -0.26147
  Beta virt. eigenvalues --   -0.08431  -0.07199   0.02099   0.02199   0.03172
  Beta virt. eigenvalues --    0.04569   0.05877   0.06157   0.06388   0.06548
  Beta virt. eigenvalues --    0.09208   0.09398   0.11705   0.14199   0.28988

 Mulliken charges and spin densities:
               1          2
     1  Si   0.319543  -0.000000
     2  Si   0.319543  -0.000000
     3  H   -0.159772   0.000000
     4  H   -0.159772   0.000000
     5  H   -0.159772  -0.000000
     6  H   -0.159772   0.000000
 Sum of Mulliken charges =  -0.00000   0.00000

 Dipole moment (field-independent basis, Debye):
    X=              0.0000    Y=              0.0000    Z=              0.0001  Tot=              0.0001
 Quadrupole moment (field-independent basis, Debye-Ang):
   XX=            -36.7695   YY=            -32.8131   ZZ=            -24.4069
   XY=             -0.0000   XZ=              0.0000   YZ=              0.0023

 Normal termination of Gaussian 16 at Mon Apr 21 20:34:31 2025.
