 Gaussian 16, Revision A.03,
 Gaussian 16:  ES64L-G16RevA.03 25-Dec-2016

 --------------------------------------------
 #p opt UM062X/6-311+G** nosymm int=superfine
 --------------------------------------------

 -------------------
 Title Card Required
 -------------------
 Symbolic Z-matrix:
 Charge =  1 Multiplicity = 2

 SCF Done:  E(UM062X) =  -579.697561589     A.U. after   14 cycles
 SCF Done:  E(UM062X) =  -579.705468466     A.U. after   12 cycles
 SCF Done:  E(UM062X) =  -579.709608530     A.U. after   13 cycles
 SCF Done:  E(UM062X) =  -579.709691302     A.U. after   12 cycles
 SCF Done:  E(UM062X) =  -579.709848256     A.U. after   12 cycles
 SCF Done:  E(UM062X) =  -579.709967548     A.U. after   12 cycles
 SCF Done:  E(UM062X) =  -579.709968375     A.U. after   11 cycles
 Optimization completed.
    -- Stationary point found.

                          Input orientation:
 ---------------------------------------------------------------------
 Center     Atomic      Atomic             Coordinates (Angstroms)
 Number     Number       Type             X           Y           Z
 ---------------------------------------------------------------------
      1         14           0       -1.552975    0.000000    0.000000
      2         14           0        1.552975    0.000000    0.000000
      3          1           0       -1.796298   -1.483210   -0.000019
      4          1           0        1.796608    1.483132   -0.000019
 ---------------------------------------------------------------------

 Alpha  occ. eigenvalues --  -67.27463 -67.27463  -5.81649  -5.81648  -4.12775
 Alpha  occ. eigenvalues --   -4.12774  -4.12716  -4.12716  -4.12049  -4.12048
 Alpha  occ. eigenvalues --   -0.78489  -0.75400  -0.54648  -0.53680  -0.45440
 Alpha virt. eigenvalues --   -0.30477  -0.26680  -0.23975  -0.12462  -0.10747
 Alpha virt. eigenvalues --   -0.09133  -0.08821  -0.08566  -0.07794  -0.06241
 Alpha virt. eigenvalues --   -0.05843  -0.05834  -0.02956   0.12331   0.13675

  Beta  occ. eigenvalues --  -67.27169 -67.27169  -5.81537  -5.81535  -4.12638
  Beta  occ. eigenvalues --   -4.12638  -4.12086  -4.12085  -4.11830  -4.11829
  Beta  occ. eigenvalues --   -0.76621  -0.73432  -0.54464  -0.51432
  Beta virt. eigenvalues --   -0.30282  -0.29815  -0.25901  -0.20016  -0.12881
  Beta virt. eigenvalues --   -0.10386  -0.09093  -0.08768  -0.08204  -0.07147
  Beta virt. eigenvalues --   -0.05767  -0.05602  -0.05243  -0.02234   0.11380

 Mulliken charges and spin densities:
               1          2
     1  Si   0.561198   0.506214
     2  Si   0.561159   0.506308
     3  H   -0.061185  -0.006262
     4  H   -0.061172  -0.006260
 Sum of Mulliken charges =   1.00000   1.00000

 Dipole moment (field-independent basis, Debye):
    X=              0.0001    Y=              0.0000    Z=             -0.0000  Tot=              0.0001
 Quadrupole moment (field-independent basis, Debye-Ang):
   XX=             -8.6495   YY=            -26.8501   ZZ=            -19.4502
   XY=              1.5460   XZ=              0.0000   YZ=             -0.0000

 Normal termination of Gaussian 16 at Mon Apr 21 20:38:57 2025.
