 Gaussian 16, Revision A.03,
 Gaussian 16:  ES64L-G16RevA.03 25-Dec-2016

 --------------------------------------------
 #p opt UM062X/6-311+G** nosymm int=superfine
 --------------------------------------------

 -------------------
 Title Card Required
 -------------------
 Symbolic Z-matrix:
 Charge =  0 Multiplicity = 1

 SCF Done:  E(UM062X) =  -115.668063368     A.U. after   10 cycles
 SCF Done:  E(UM062X) =  -115.672443480     A.U. after   10 cycles
 SCF Done:  E(UM062X) =  -115.672616357     A.U. after    9 cycles
 SCF Done:  E(UM062X) =  -115.672616941     A.U. after    7 cycles
 Optimization completed.
    -- Stationary point found.

                          Input orientation:
 ---------------------------------------------------------------------
 Center     Atomic      Atomic             Coordinates (Angstroms)
 Number     Number       Type             X           Y           Z
 ---------------------------------------------------------------------
      1          6           0       -0.857203    0.000000    0.000000
      2          8           0        0.857203    0.000000    0.000000
      3          1           0        1.060995   -0.940069    0.000365
      4          1           0       -1.165792   -0.502653    0.910553
      5          1           0       -1.079647    1.059424   -0.000694
      6          1           0       -1.165820   -0.503843   -0.909886
 ---------------------------------------------------------------------

 Alpha  occ. eigenvalues --  -19.61965 -10.60210  -1.08057  -0.79057  -0.54260
 Alpha  occ. eigenvalues --   -0.51229  -0.47657  -0.41367  -0.36039
 Alpha virt. eigenvalues --    0.01288   0.01752   0.05148   0.05450   0.12156
 Alpha virt. eigenvalues --    0.15759   0.17802   0.18233   0.20400   0.23128
 Alpha virt. eigenvalues --    0.23735   0.24213   0.32781   0.42079   0.43682

  Beta  occ. eigenvalues --  -19.61965 -10.60210  -1.08057  -0.79057  -0.54260
  Beta  occ. eigenvalues --   -0.51229  -0.47657  -0.41367  -0.36039
  Beta virt. eigenvalues --    0.01288   0.01752   0.05148   0.05450   0.12156
  Beta virt. eigenvalues --    0.15759   0.17802   0.18233   0.20400   0.23128
  Beta virt. eigenvalues --    0.23735   0.24213   0.32781   0.42079   0.43682

 Mulliken charges and spin densities:
               1          2
     1  C   -0.302478   0.000000
     2  O   -0.453253  -0.000000
     3  H    0.244458  -0.000000
     4  H    0.164815  -0.000000
     5  H    0.181653   0.000000
     6  H    0.164804  -0.000000
 Sum of Mulliken charges =  -0.00000  -0.00000

 Dipole moment (field-independent basis, Debye):
    X=             -2.1503    Y=             -1.5384    Z=              0.0006  Tot=              2.6440
 Quadrupole moment (field-independent basis, Debye-Ang):
   XX=            -13.4879   YY=            -11.5194   ZZ=            -13.8210
   XY=             -2.1070   XZ=              0.0008   YZ=             -0.0009

 Normal termination of Gaussian 16 at Mon Apr 21 18:40:16 2025.
