 Gaussian 16, Revision A.03,
 Gaussian 16:  ES64L-G16RevA.03 25-Dec-2016

 --------------------------------------------
 #p opt UM062X/6-311+G** nosymm int=superfine
 --------------------------------------------

 -------------------
 Title Card Required
 -------------------
 Symbolic Z-matrix:
 Charge =  1 Multiplicity = 2

 SCF Done:  E(UM062X) =  -1615.49328680     A.U. after   26 cycles
 SCF Done:  E(UM062X) =  -1615.54345420     A.U. after   26 cycles
 SCF Done:  E(UM062X) =  -1615.55944248     A.U. after   29 cycles
 SCF Done:  E(UM062X) =  -1615.56044376     A.U. after   27 cycles
 SCF Done:  E(UM062X) =  -1615.55973249     A.U. after   30 cycles
 SCF Done:  E(UM062X) =  -1615.55309841     A.U. after   29 cycles
 SCF Done:  E(UM062X) =  -1615.55364943     A.U. after   30 cycles
 SCF Done:  E(UM062X) =  -1615.56046496     A.U. after   25 cycles
 SCF Done:  E(UM062X) =  -1615.56009089     A.U. after   27 cycles
 SCF Done:  E(UM062X) =  -1615.56094946     A.U. after   26 cycles
 SCF Done:  E(UM062X) =  -1615.56098723     A.U. after   27 cycles
 SCF Done:  E(UM062X) =  -1615.56102685     A.U. after   25 cycles
 SCF Done:  E(UM062X) =  -1615.56103830     A.U. after   20 cycles
 SCF Done:  E(UM062X) =  -1615.56104463     A.U. after   24 cycles
 SCF Done:  E(UM062X) =  -1615.56104701     A.U. after   24 cycles
 SCF Done:  E(UM062X) =  -1615.56104830     A.U. after   25 cycles
 SCF Done:  E(UM062X) =  -1615.56104922     A.U. after   21 cycles
 SCF Done:  E(UM062X) =  -1615.56104974     A.U. after   20 cycles
 SCF Done:  E(UM062X) =  -1615.56104988     A.U. after   17 cycles
 SCF Done:  E(UM062X) =  -1615.56104993     A.U. after   22 cycles
 Optimization completed.
    -- Stationary point found.

                          Input orientation:
 ---------------------------------------------------------------------
 Center     Atomic      Atomic             Coordinates (Angstroms)
 Number     Number       Type             X           Y           Z
 ---------------------------------------------------------------------
      1          6           0       -1.769027    0.000000    0.000000
      2          6           0        1.769027    0.000000    0.000000
      3          6           0       -0.000040   -2.020826   -0.001844
      4          6           0       -0.000024   -3.429173   -0.003177
      5          6           0       -1.131739   -4.273691    0.176122
      6          6           0       -1.353131   -1.453762    0.141043
      7          6           0        0.665384   -5.666081   -0.114376
      8          1           0        1.303229   -6.531649   -0.222475
      9          6           0       -1.733950    0.751015    1.229119
     10          6           0       -0.665391   -5.666299    0.103752
     11          1           0       -1.303219   -6.532082    0.210222
     12          6           0        1.131705   -4.273330   -0.184113
     13          6           0        1.353038   -1.453473   -0.143752
     14          6           0        1.868527    2.175647   -1.371145
     15          6           0       -1.895681    0.425015   -1.367925
     16          6           0       -1.830335    2.741680    2.661514
     17          1           0       -1.946335    3.815937    2.745508
     18          6           0       -2.356220   -3.707534    0.376945
     19          1           0       -3.253041   -4.295340    0.533529
     20          6           0       -1.939270    1.779224   -1.842550
     21          6           0        2.429926   -2.294678   -0.347635
     22          1           0        3.406987   -1.833316   -0.452762
     23          6           0        1.895666    0.422456    1.368704
     24          6           0        1.939656    1.775787    1.845799
     25          6           0        2.356162   -3.706773   -0.383933
     26          1           0        3.252986   -4.294263   -0.541679
     27          6           0       -1.867743    2.173170    1.375144
     28          6           0       -1.507671    0.017967    2.433443
     29          1           0       -1.373271   -1.051390    2.381669
     30          6           0        1.914821   -0.598981    2.371364
     31          1           0        1.910346   -1.635084    2.069535
     32          6           0       -1.644633    1.988266    3.801868
     33          1           0       -1.627796    2.463026    4.775338
     34          6           0       -2.430012   -2.295380    0.343291
     35          1           0       -3.407086   -1.834231    0.449234
     36          6           0       -1.957161    2.022257   -3.229999
     37          1           0       -1.974278    3.053069   -3.564153
     38          6           0        1.733965    0.753303   -1.227701
     39          6           0       -1.975465    3.129604    0.305899
     40          1           0       -2.037999    4.158931    0.644830
     41          6           0       -1.967060    1.008632   -4.161493
     42          1           0       -1.994681    1.238030   -5.219852
     43          6           0       -1.977411    2.966321   -1.032179
     44          1           0       -2.032823    3.885037   -1.607875
     45          6           0        1.957159    2.016281    3.233698
     46          1           0        1.974555    3.046474    3.569740
     47          6           0       -1.468780    0.608649    3.675848
     48          1           0       -1.301434   -0.005430    4.552402
     49          6           0       -1.915411   -0.594573   -2.372452
     50          1           0       -1.911158   -1.631228   -2.072523
     51          6           0        1.966365    1.000949    4.163332
     52          1           0        1.993669    1.228403    5.222120
     53          6           0        1.831098    2.746537   -2.656465
     54          1           0        1.947745    3.820871   -2.738533
     55          6           0        1.963036   -0.325390    3.716376
     56          1           0        1.993938   -1.143018    4.426243
     57          6           0        1.644573    1.995322   -3.798133
     58          1           0        1.627700    2.471879   -4.770724
     59          6           0        1.977116    3.130039   -0.300185
     60          1           0        2.040503    4.159929   -0.637240
     61          6           0       -1.963965   -0.318513   -3.716956
     62          1           0       -1.995328   -1.134842   -4.428298
     63          6           0        1.978781    2.964319    1.037602
     64          1           0        2.034815    3.881943    1.614977
     65          6           0        1.506905    0.022587   -2.433304
     66          1           0        1.371933   -1.046790   -2.383436
     67          6           0        1.467937    0.615573   -3.674601
     68          1           0        1.299922    0.003212   -4.552227
 ---------------------------------------------------------------------

 Alpha  occ. eigenvalues --  -10.70667 -10.70664 -10.68697 -10.68696 -10.68609
 Alpha  occ. eigenvalues --  -10.68607 -10.68265 -10.68263 -10.68220 -10.68218
 Alpha  occ. eigenvalues --  -10.68116 -10.67697 -10.67693 -10.66664 -10.66662
 Alpha  occ. eigenvalues --  -10.66561 -10.66558 -10.65905 -10.65904 -10.65869
 Alpha  occ. eigenvalues --  -10.65867 -10.65733 -10.65732 -10.65621 -10.65619
 Alpha  occ. eigenvalues --  -10.65598 -10.65596 -10.65526 -10.65524 -10.65359
 Alpha  occ. eigenvalues --  -10.65358 -10.65347 -10.65345 -10.65236 -10.65236
 Alpha  occ. eigenvalues --  -10.65086 -10.65085 -10.64780 -10.64778 -10.63994
 Alpha  occ. eigenvalues --  -10.63650 -10.63548  -1.11519  -1.10385  -1.09852
 Alpha  occ. eigenvalues --   -1.08168  -1.07829  -1.04983  -1.04965  -1.02396
 Alpha  occ. eigenvalues --   -1.02158  -1.01020  -1.00045  -0.97871  -0.97651
 Alpha  occ. eigenvalues --   -0.96605  -0.96300  -0.94752  -0.93528  -0.93416
 Alpha  occ. eigenvalues --   -0.92854  -0.91616  -0.87272  -0.87031  -0.84922
 Alpha  occ. eigenvalues --   -0.84794  -0.82942  -0.81513  -0.80527  -0.79694
 Alpha  occ. eigenvalues --   -0.79620  -0.79516  -0.77175  -0.76215  -0.76105
 Alpha  occ. eigenvalues --   -0.75880  -0.75214  -0.73163  -0.70027  -0.69541
 Alpha  occ. eigenvalues --   -0.68543  -0.68483  -0.67728  -0.67608  -0.66860
 Alpha  occ. eigenvalues --   -0.66838  -0.65706  -0.65311  -0.65203  -0.64578
 Alpha  occ. eigenvalues --   -0.63202  -0.62646  -0.62385  -0.62064  -0.60855
 Alpha  occ. eigenvalues --   -0.60850  -0.60488  -0.60089  -0.59962  -0.59749
 Alpha  occ. eigenvalues --   -0.59506  -0.58729  -0.58542  -0.58053  -0.57534
 Alpha  occ. eigenvalues --   -0.57406  -0.57027  -0.55875  -0.55613  -0.55610
 Alpha  occ. eigenvalues --   -0.54890  -0.54226  -0.52967  -0.52820  -0.52548
 Alpha  occ. eigenvalues --   -0.52406  -0.52331  -0.51894  -0.51003  -0.50973
 Alpha  occ. eigenvalues --   -0.50817  -0.50438  -0.49563  -0.49556  -0.49358
 Alpha  occ. eigenvalues --   -0.48289  -0.48087  -0.48011  -0.45786  -0.44605
 Alpha  occ. eigenvalues --   -0.43616  -0.42854  -0.40716  -0.40389  -0.39139
 Alpha  occ. eigenvalues --   -0.38098  -0.37610  -0.36943  -0.29787
 Alpha virt. eigenvalues --   -0.21811  -0.15843  -0.15493  -0.14420  -0.10705
 Alpha virt. eigenvalues --   -0.09862  -0.08881  -0.08554  -0.08316  -0.07609
 Alpha virt. eigenvalues --   -0.07510  -0.07474  -0.06605  -0.06255  -0.06246

  Beta  occ. eigenvalues --  -10.70499 -10.70496 -10.68745 -10.68744 -10.68654
  Beta  occ. eigenvalues --  -10.68652 -10.68220 -10.68218 -10.68180 -10.68178
  Beta  occ. eigenvalues --  -10.68087 -10.67716 -10.67712 -10.66659 -10.66657
  Beta  occ. eigenvalues --  -10.66554 -10.66552 -10.65870 -10.65869 -10.65829
  Beta  occ. eigenvalues --  -10.65827 -10.65701 -10.65700 -10.65617 -10.65616
  Beta  occ. eigenvalues --  -10.65582 -10.65580 -10.65545 -10.65543 -10.65378
  Beta  occ. eigenvalues --  -10.65377 -10.65364 -10.65362 -10.65232 -10.65232
  Beta  occ. eigenvalues --  -10.65074 -10.65073 -10.64780 -10.64778 -10.63991
  Beta  occ. eigenvalues --  -10.63650 -10.63547  -1.11376  -1.10214  -1.09781
  Beta  occ. eigenvalues --   -1.08065  -1.07742  -1.04833  -1.04792  -1.02286
  Beta  occ. eigenvalues --   -1.02062  -1.00838  -0.99884  -0.97769  -0.97556
  Beta  occ. eigenvalues --   -0.96500  -0.96213  -0.94710  -0.93458  -0.93319
  Beta  occ. eigenvalues --   -0.92787  -0.91532  -0.86967  -0.86674  -0.84858
  Beta  occ. eigenvalues --   -0.84734  -0.82869  -0.81418  -0.80436  -0.79616
  Beta  occ. eigenvalues --   -0.79550  -0.79445  -0.77072  -0.76084  -0.75934
  Beta  occ. eigenvalues --   -0.75718  -0.75170  -0.73049  -0.69911  -0.69396
  Beta  occ. eigenvalues --   -0.68440  -0.68368  -0.67684  -0.67565  -0.66741
  Beta  occ. eigenvalues --   -0.66723  -0.65610  -0.65159  -0.65059  -0.64484
  Beta  occ. eigenvalues --   -0.63037  -0.62592  -0.62304  -0.61999  -0.60728
  Beta  occ. eigenvalues --   -0.60639  -0.60370  -0.60010  -0.59908  -0.59500
  Beta  occ. eigenvalues --   -0.59350  -0.58633  -0.58404  -0.57973  -0.57441
  Beta  occ. eigenvalues --   -0.57206  -0.56586  -0.55663  -0.55566  -0.55563
  Beta  occ. eigenvalues --   -0.54852  -0.53933  -0.52870  -0.52734  -0.52497
  Beta  occ. eigenvalues --   -0.52302  -0.52214  -0.51874  -0.50941  -0.50828
  Beta  occ. eigenvalues --   -0.50748  -0.50030  -0.49425  -0.49416  -0.48809
  Beta  occ. eigenvalues --   -0.48163  -0.47870  -0.47285  -0.44999  -0.44151
  Beta  occ. eigenvalues --   -0.42907  -0.42492  -0.40463  -0.40331  -0.38513
  Beta  occ. eigenvalues --   -0.38039  -0.37206  -0.36935
  Beta virt. eigenvalues --   -0.20271  -0.18467  -0.15819  -0.15502  -0.14492
  Beta virt. eigenvalues --   -0.10362  -0.09476  -0.08545  -0.08502  -0.07981
  Beta virt. eigenvalues --   -0.07618  -0.07529  -0.07313  -0.06597  -0.06339

 Mulliken charges and spin densities:
               1          2
     1  C   -0.042069   0.305919
     2  C   -0.042272   0.305543
     3  C    0.367128   0.029022
     4  C    0.087638  -0.005820
     5  C    0.091343   0.008574
     6  C    0.342701  -0.022445
     7  C   -0.374341   0.000591
     8  H    0.176621   0.000010
     9  C   -0.104081  -0.060138
    10  C   -0.374228   0.000590
    11  H    0.176620   0.000010
    12  C    0.091263   0.008602
    13  C    0.342900  -0.022431
    14  C    0.626483   0.049569
    15  C    0.264003  -0.064787
    16  C   -0.422394  -0.039746
    17  H    0.163036   0.001087
    18  C   -0.342262  -0.001257
    19  H    0.174761   0.000036
    20  C    0.393761   0.114308
    21  C   -0.215069   0.032928
    22  H    0.178011  -0.000472
    23  C    0.263861  -0.064579
    24  C    0.394377   0.114137
    25  C   -0.342174  -0.001249
    26  H    0.174763   0.000036
    27  C    0.625543   0.049542
    28  C   -0.113093   0.093628
    29  H    0.215379  -0.005265
    30  C   -0.266112   0.035872
    31  H    0.223590  -0.004145
    32  C   -0.367473   0.068593
    33  H    0.180965  -0.003895
    34  C   -0.214615   0.033047
    35  H    0.178037  -0.000473
    36  C   -0.074673  -0.070792
    37  H    0.160597   0.001395
    38  C   -0.104711  -0.060172
    39  C   -0.410727   0.037478
    40  H    0.165181  -0.001364
    41  C   -0.207374   0.076829
    42  H    0.181775  -0.004036
    43  C   -0.393377   0.008464
    44  H    0.162901  -0.000576
    45  C   -0.074211  -0.070765
    46  H    0.160589   0.001393
    47  C    0.075070  -0.037534
    48  H    0.165595   0.000404
    49  C   -0.266285   0.036029
    50  H    0.223595  -0.004143
    51  C   -0.206893   0.076847
    52  H    0.181771  -0.004037
    53  C   -0.422124  -0.039717
    54  H    0.163046   0.001086
    55  C   -0.512725  -0.032335
    56  H    0.176510   0.001486
    57  C   -0.367660   0.068526
    58  H    0.180974  -0.003891
    59  C   -0.411493   0.037447
    60  H    0.165213  -0.001361
    61  C   -0.512308  -0.032362
    62  H    0.176500   0.001486
    63  C   -0.394113   0.008526
    64  H    0.162946  -0.000575
    65  C   -0.112433   0.093633
    66  H    0.215379  -0.005261
    67  C    0.075273  -0.037451
    68  H    0.165589   0.000404
 Sum of Mulliken charges =   1.00000   1.00000

 Dipole moment (field-independent basis, Debye):
    X=              0.0021    Y=              2.6555    Z=              0.0026  Tot=              2.6555
 Quadrupole moment (field-independent basis, Debye-Ang):
   XX=           -220.9336   YY=           -174.4808   ZZ=           -176.7276
   XY=              0.0117   XZ=              3.3516   YZ=              0.0009

 Normal termination of Gaussian 16 at Sat Nov 16 08:53:43 2024.
