 Gaussian 16, Revision A.03,
 Gaussian 16:  ES64L-G16RevA.03 25-Dec-2016

 --------------------------------------------
 #p opt UM062X/6-311+G** nosymm int=superfine
 --------------------------------------------

 -------------------
 Title Card Required
 -------------------
 Symbolic Z-matrix:
 Charge =  0 Multiplicity = 1

 SCF Done:  E(UM062X) =  -797.376175809     A.U. after   15 cycles
 SCF Done:  E(UM062X) =  -797.376224678     A.U. after   13 cycles
 SCF Done:  E(UM062X) =  -797.376342628     A.U. after   15 cycles
 SCF Done:  E(UM062X) =  -797.376445271     A.U. after   15 cycles
 SCF Done:  E(UM062X) =  -797.376576077     A.U. after   16 cycles
 SCF Done:  E(UM062X) =  -797.376676734     A.U. after   15 cycles
 SCF Done:  E(UM062X) =  -797.376704324     A.U. after   21 cycles
 SCF Done:  E(UM062X) =  -797.376708227     A.U. after   14 cycles
 SCF Done:  E(UM062X) =  -797.376720879     A.U. after   19 cycles
 SCF Done:  E(UM062X) =  -797.376717823     A.U. after   14 cycles
 SCF Done:  E(UM062X) =  -797.376723056     A.U. after   14 cycles
 SCF Done:  E(UM062X) =  -797.376713189     A.U. after   14 cycles
 SCF Done:  E(UM062X) =  -797.376719075     A.U. after   19 cycles
 SCF Done:  E(UM062X) =  -797.376722983     A.U. after   14 cycles
 SCF Done:  E(UM062X) =  -797.376722997     A.U. after   13 cycles
 SCF Done:  E(UM062X) =  -797.376723175     A.U. after   13 cycles
 SCF Done:  E(UM062X) =  -797.376723282     A.U. after   13 cycles
 SCF Done:  E(UM062X) =  -797.376723337     A.U. after   17 cycles
 SCF Done:  E(UM062X) =  -797.376723409     A.U. after   13 cycles
 SCF Done:  E(UM062X) =  -797.376723420     A.U. after   12 cycles
 Optimization completed.
    -- Stationary point found.

                          Input orientation:
 ---------------------------------------------------------------------
 Center     Atomic      Atomic             Coordinates (Angstroms)
 Number     Number       Type             X           Y           Z
 ---------------------------------------------------------------------
      1         16           0       -2.493191    0.000000    0.000000
      2         16           0        2.493191    0.000000    0.000000
      3          1           0       -2.348135   -1.220312   -0.549709
      4          1           0        2.356721    0.565836    1.213941
 ---------------------------------------------------------------------

 Alpha  occ. eigenvalues --  -89.94239 -89.94237  -8.30511  -8.30509  -6.22650
 Alpha  occ. eigenvalues --   -6.22649  -6.22411  -6.22410  -6.21841  -6.21840
 Alpha  occ. eigenvalues --   -0.81297  -0.81141  -0.47314  -0.47301  -0.33342
 Alpha  occ. eigenvalues --   -0.33268  -0.29631
 Alpha virt. eigenvalues --   -0.22871   0.01833   0.02899   0.04361   0.04910
 Alpha virt. eigenvalues --    0.06326   0.06457   0.07213   0.07396   0.08095
 Alpha virt. eigenvalues --    0.12798   0.31756   0.32128   0.32618   0.35036

  Beta  occ. eigenvalues --  -89.94239 -89.94237  -8.30511  -8.30509  -6.22650
  Beta  occ. eigenvalues --   -6.22649  -6.22411  -6.22410  -6.21841  -6.21840
  Beta  occ. eigenvalues --   -0.81297  -0.81141  -0.47314  -0.47301  -0.33342
  Beta  occ. eigenvalues --   -0.33268  -0.29631
  Beta virt. eigenvalues --   -0.22871   0.01833   0.02899   0.04361   0.04910
  Beta virt. eigenvalues --    0.06326   0.06457   0.07213   0.07396   0.08095
  Beta virt. eigenvalues --    0.12798   0.31756   0.32128   0.32618   0.35036

 Mulliken charges and spin densities:
               1          2
     1  S   -0.080205   0.000000
     2  S   -0.080487   0.000000
     3  H    0.080357   0.000000
     4  H    0.080335   0.000000
 Sum of Mulliken charges =  -0.00000   0.00000

 Dipole moment (field-independent basis, Debye):
    X=              0.0049    Y=             -0.5428    Z=              0.5499  Tot=              0.7727
 Quadrupole moment (field-independent basis, Debye-Ang):
   XX=            -26.1745   YY=            -28.0589   ZZ=            -28.1374
   XY=              3.5701   XZ=              3.5317   YZ=              3.0564

 Normal termination of Gaussian 16 at Mon Apr 21 21:23:58 2025.
