 Gaussian 16, Revision A.03,
 Gaussian 16:  ES64L-G16RevA.03 25-Dec-2016

 ---------------------------------------------------------
 #p opt UM062X/6-311+G** nosymm int=superfine SCF=NoVarAcc
 ---------------------------------------------------------

 -------------------
 Title Card Required
 -------------------
 Symbolic Z-matrix:
 Charge =  1 Multiplicity = 2

 SCF Done:  E(UM062X) =  -77.9529355638     A.U. after    9 cycles
 SCF Done:  E(UM062X) =  -77.9531783586     A.U. after    8 cycles
 SCF Done:  E(UM062X) =  -77.9532837124     A.U. after    8 cycles
 Optimization completed.
    -- Stationary point found.

                          Input orientation:
 ---------------------------------------------------------------------
 Center     Atomic      Atomic             Coordinates (Angstroms)
 Number     Number       Type             X           Y           Z
 ---------------------------------------------------------------------
      1          6           0       -1.281027    0.000000    0.000000
      2          6           0        1.281027    0.000000    0.000000
      3          1           0       -1.686058   -1.007231    0.000000
      4          1           0       -1.686051    1.007237    0.000000
      5          1           0        1.686058    1.007231    0.000000
      6          1           0        1.686051   -1.007237   -0.000000
 ---------------------------------------------------------------------

 Alpha  occ. eigenvalues --  -10.92270 -10.92263  -1.03451  -1.00850  -0.79691
 Alpha  occ. eigenvalues --   -0.78659  -0.59466  -0.52225
 Alpha virt. eigenvalues --   -0.38862  -0.33391  -0.13526  -0.10774  -0.10481
 Alpha virt. eigenvalues --   -0.07847  -0.07550  -0.06700  -0.04647  -0.04198
 Alpha virt. eigenvalues --   -0.03384   0.01009   0.01692   0.09219   0.18723

  Beta  occ. eigenvalues --  -10.92014 -10.92009  -1.00616  -0.98425  -0.79289
  Beta  occ. eigenvalues --   -0.78302  -0.57655
  Beta virt. eigenvalues --   -0.32737  -0.31197  -0.29201  -0.14627  -0.11026
  Beta virt. eigenvalues --   -0.10724  -0.07397  -0.07363  -0.06836  -0.03777
  Beta virt. eigenvalues --   -0.03767  -0.03696   0.00401   0.01409   0.10183

 Mulliken charges and spin densities:
               1          2
     1  C   -0.066552   0.541759
     2  C   -0.066552   0.541759
     3  H    0.283276  -0.020880
     4  H    0.283276  -0.020880
     5  H    0.283276  -0.020880
     6  H    0.283276  -0.020880
 Sum of Mulliken charges =   1.00000   1.00000

 Dipole moment (field-independent basis, Debye):
    X=             -0.0000    Y=             -0.0000    Z=              0.0000  Tot=              0.0000
 Quadrupole moment (field-independent basis, Debye-Ang):
   XX=              2.0440   YY=             -7.8741   ZZ=            -12.9004
   XY=             -0.0000   XZ=             -0.0000   YZ=              0.0000

 Normal termination of Gaussian 16 at Tue Dec  3 13:23:01 2024.
