 Gaussian 16, Revision A.03,
 Gaussian 16:  ES64L-G16RevA.03 25-Dec-2016

 --------------------------------------------
 #p opt UM062X/6-311+G** nosymm int=superfine
 --------------------------------------------

 -------------------
 Title Card Required
 -------------------
 Symbolic Z-matrix:
 Charge =  0 Multiplicity = 1

 SCF Done:  E(UM062X) =  -474.543655868     A.U. after   12 cycles
 SCF Done:  E(UM062X) =  -474.545240951     A.U. after   11 cycles
 SCF Done:  E(UM062X) =  -474.544998209     A.U. after   12 cycles
 SCF Done:  E(UM062X) =  -474.545355147     A.U. after   10 cycles
 SCF Done:  E(UM062X) =  -474.545355237     A.U. after    8 cycles
 Optimization completed.
    -- Stationary point found.

                          Input orientation:
 ---------------------------------------------------------------------
 Center     Atomic      Atomic             Coordinates (Angstroms)
 Number     Number       Type             X           Y           Z
 ---------------------------------------------------------------------
      1          8           0       -0.964392    0.000000    0.000000
      2         16           0        0.964392    0.000000    0.000000
      3          1           0       -1.149419   -0.945733   -0.041002
      4          1           0        1.031500    0.188248    1.328374
 ---------------------------------------------------------------------

 Alpha  occ. eigenvalues --  -89.95609 -19.66760  -8.31715  -6.23946  -6.23569
 Alpha  occ. eigenvalues --   -6.23057  -1.12296  -0.82041  -0.55872  -0.50276
 Alpha  occ. eigenvalues --   -0.44595  -0.39541  -0.33075
 Alpha virt. eigenvalues --   -0.05695   0.01499   0.04324   0.05118   0.06420
 Alpha virt. eigenvalues --    0.08320   0.16000   0.18958   0.20063   0.22539
 Alpha virt. eigenvalues --    0.28312   0.31964   0.33764   0.35156   0.41084

  Beta  occ. eigenvalues --  -89.95609 -19.66760  -8.31715  -6.23946  -6.23569
  Beta  occ. eigenvalues --   -6.23057  -1.12296  -0.82041  -0.55872  -0.50276
  Beta  occ. eigenvalues --   -0.44595  -0.39541  -0.33075
  Beta virt. eigenvalues --   -0.05695   0.01499   0.04324   0.05118   0.06420
  Beta virt. eigenvalues --    0.08320   0.16000   0.18958   0.20063   0.22539
  Beta virt. eigenvalues --    0.28312   0.31964   0.33764   0.35156   0.41084

 Mulliken charges and spin densities:
               1          2
     1  O   -0.432042   0.000000
     2  S    0.076999  -0.000000
     3  H    0.267712  -0.000000
     4  H    0.087331   0.000000
 Sum of Mulliken charges =  -0.00000  -0.00000

 Dipole moment (field-independent basis, Debye):
    X=              1.0287    Y=             -1.4950    Z=              1.0095  Tot=              2.0766
 Quadrupole moment (field-independent basis, Debye-Ang):
   XX=            -18.8195   YY=            -19.7248   ZZ=            -18.3849
   XY=              2.6568   XZ=              1.5582   YZ=              0.6750

 Normal termination of Gaussian 16 at Thu May 15 12:52:33 2025.
