 Gaussian 16, Revision A.03,
 Gaussian 16:  ES64L-G16RevA.03 25-Dec-2016

 --------------------------------------------
 #p opt UM062X/6-311+G** nosymm int=superfine
 --------------------------------------------

 -------------------
 Title Card Required
 -------------------
 Symbolic Z-matrix:
 Charge =  0 Multiplicity = 1

 SCF Done:  E(UM062X) =  -93.3491373775     A.U. after   10 cycles
 SCF Done:  E(UM062X) =  -93.3491752618     A.U. after    8 cycles
 Optimization completed.
    -- Stationary point found.

                          Input orientation:
 ---------------------------------------------------------------------
 Center     Atomic      Atomic             Coordinates (Angstroms)
 Number     Number       Type             X           Y           Z
 ---------------------------------------------------------------------
      1          6           0       -0.672395    0.000000    0.000000
      2          7           0        0.672395    0.000000    0.000000
      3          1           0       -1.747849   -0.000000    0.000000
 ---------------------------------------------------------------------

 Alpha  occ. eigenvalues --  -14.83368 -10.65068  -0.96782  -0.70863  -0.47712
 Alpha  occ. eigenvalues --   -0.39580  -0.39580
 Alpha virt. eigenvalues --   -0.01501  -0.01501   0.01668   0.03316   0.07137
 Alpha virt. eigenvalues --    0.07137   0.12710   0.17103   0.18371   0.18371
 Alpha virt. eigenvalues --    0.25438   0.36028   0.55897   0.55897   0.61986

  Beta  occ. eigenvalues --  -14.83368 -10.65068  -0.96782  -0.70863  -0.47712
  Beta  occ. eigenvalues --   -0.39580  -0.39580
  Beta virt. eigenvalues --   -0.01501  -0.01501   0.01668   0.03316   0.07137
  Beta virt. eigenvalues --    0.07137   0.12710   0.17103   0.18371   0.18371
  Beta virt. eigenvalues --    0.25438   0.36028   0.55897   0.55897   0.61986

 Mulliken charges and spin densities:
               1          2
     1  C   -0.083525  -0.000000
     2  N   -0.143076  -0.000000
     3  H    0.226601   0.000000
 Sum of Mulliken charges =  -0.00000  -0.00000

 Dipole moment (field-independent basis, Debye):
    X=             -3.0928    Y=             -0.0000    Z=              0.0000  Tot=              3.0928
 Quadrupole moment (field-independent basis, Debye-Ang):
   XX=             -9.0000   YY=            -12.5680   ZZ=            -12.5680
   XY=              0.0000   XZ=             -0.0000   YZ=              0.0000

 Normal termination of Gaussian 16 at Mon Apr 21 18:37:30 2025.
