 Gaussian 16, Revision A.03,
 Gaussian 16:  ES64L-G16RevA.03 25-Dec-2016

 --------------------------------------------
 #p opt UM062X/6-311+G** nosymm int=superfine
 --------------------------------------------

 -------------------
 Title Card Required
 -------------------
 Symbolic Z-matrix:
 Charge =  0 Multiplicity = 1

 SCF Done:  E(UM062X) =  -94.5196385044     A.U. after   11 cycles
 SCF Done:  E(UM062X) =  -94.5239834719     A.U. after   10 cycles
 SCF Done:  E(UM062X) =  -94.5242038266     A.U. after   10 cycles
 SCF Done:  E(UM062X) =  -94.5134740408     A.U. after   12 cycles
 SCF Done:  E(UM062X) =  -94.5240741727     A.U. after   10 cycles
 SCF Done:  E(UM062X) =  -94.5242194737     A.U. after    7 cycles
 SCF Done:  E(UM062X) =  -94.5242508533     A.U. after   10 cycles
 SCF Done:  E(UM062X) =  -94.5242578539     A.U. after    9 cycles
 Optimization completed.
    -- Stationary point found.

                          Input orientation:
 ---------------------------------------------------------------------
 Center     Atomic      Atomic             Coordinates (Angstroms)
 Number     Number       Type             X           Y           Z
 ---------------------------------------------------------------------
      1          6           0       -0.806637    0.000000    0.000000
      2          7           0        0.806637    0.000000    0.000000
      3          1           0       -1.354673   -0.933220   -0.020000
      4          1           0        0.992029   -1.010401   -0.021662
      5          1           0       -1.260998    0.979392    0.020328
 ---------------------------------------------------------------------

 Alpha  occ. eigenvalues --  -14.79310 -10.63376  -0.93047  -0.74335  -0.55210
 Alpha  occ. eigenvalues --   -0.47192  -0.37736  -0.33935
 Alpha virt. eigenvalues --   -0.05512   0.01916   0.03222   0.04931   0.07575
 Alpha virt. eigenvalues --    0.12289   0.15509   0.16118   0.17732   0.19374
 Alpha virt. eigenvalues --    0.21404   0.24172   0.26540   0.43715   0.46118

  Beta  occ. eigenvalues --  -14.79310 -10.63376  -0.93047  -0.74335  -0.55210
  Beta  occ. eigenvalues --   -0.47192  -0.37736  -0.33935
  Beta virt. eigenvalues --   -0.05512   0.01916   0.03222   0.04931   0.07575
  Beta virt. eigenvalues --    0.12289   0.15509   0.16118   0.17732   0.19374
  Beta virt. eigenvalues --    0.21404   0.24172   0.26540   0.43715   0.46118

 Mulliken charges and spin densities:
               1          2
     1  C   -0.282828  -0.000000
     2  N   -0.275183   0.000000
     3  H    0.174712   0.000000
     4  H    0.194964  -0.000000
     5  H    0.188335   0.000000
 Sum of Mulliken charges =   0.00000   0.00000

 Dipole moment (field-independent basis, Debye):
    X=             -2.2280    Y=             -1.4803    Z=             -0.0322  Tot=              2.6752
 Quadrupole moment (field-independent basis, Debye-Ang):
   XX=            -12.6788   YY=            -11.3865   ZZ=            -14.9213
   XY=             -1.9227   XZ=             -0.0405   YZ=              0.0751

 Normal termination of Gaussian 16 at Mon Apr 21 18:19:55 2025.
