 Gaussian 16, Revision A.03,
 Gaussian 16:  ES64L-G16RevA.03 25-Dec-2016

 --------------------------------------------
 #p opt UM062X/6-311+G** nosymm int=superfine
 --------------------------------------------

 -------------------
 Title Card Required
 -------------------
 Symbolic Z-matrix:
 Charge =  0 Multiplicity = 1

 SCF Done:  E(UM062X) =  -581.157446476     A.U. after   10 cycles
 SCF Done:  E(UM062X) =  -581.158087220     A.U. after    8 cycles
 SCF Done:  E(UM062X) =  -581.158301814     A.U. after    9 cycles
 SCF Done:  E(UM062X) =  -581.158300359     A.U. after   10 cycles
 SCF Done:  E(UM062X) =  -581.158302431     A.U. after    9 cycles
 SCF Done:  E(UM062X) =  -581.158302540     A.U. after   10 cycles
 SCF Done:  E(UM062X) =  -581.159891269     A.U. after   13 cycles
 SCF Done:  E(UM062X) =  -581.164368740     A.U. after   15 cycles
 SCF Done:  E(UM062X) =  -581.180347948     A.U. after   12 cycles
 SCF Done:  E(UM062X) =  -581.195568922     A.U. after   12 cycles
 SCF Done:  E(UM062X) =  -581.208179103     A.U. after   12 cycles
 SCF Done:  E(UM062X) =  -581.210335026     A.U. after   11 cycles
 SCF Done:  E(UM062X) =  -581.210351237     A.U. after   14 cycles
 SCF Done:  E(UM062X) =  -581.210356354     A.U. after    9 cycles
 SCF Done:  E(UM062X) =  -581.210356453     A.U. after    7 cycles
 SCF Done:  E(UM062X) =  -581.210356735     A.U. after    8 cycles
 SCF Done:  E(UM062X) =  -581.210357298     A.U. after    8 cycles
 SCF Done:  E(UM062X) =  -581.210357527     A.U. after    8 cycles
 Optimization completed.
    -- Stationary point found.

                          Input orientation:
 ---------------------------------------------------------------------
 Center     Atomic      Atomic             Coordinates (Angstroms)
 Number     Number       Type             X           Y           Z
 ---------------------------------------------------------------------
      1         14           0       -1.512518    0.000000    0.000000
      2         14           0        1.512518    0.000000    0.000000
      3          1           0       -2.044397   -1.137188   -0.824206
      4          1           0        2.045188    1.137080    0.823797
      5          1           0       -2.045048    1.136691   -0.824469
      6          1           0        2.044587   -1.136863    0.824485
 ---------------------------------------------------------------------

 Alpha  occ. eigenvalues --  -67.02503 -67.02502  -5.57134  -5.57133  -3.88405
 Alpha  occ. eigenvalues --   -3.88403  -3.87933  -3.87932  -3.87834  -3.87833
 Alpha  occ. eigenvalues --   -0.59524  -0.57110  -0.40327  -0.39501  -0.32483
 Alpha  occ. eigenvalues --   -0.26138
 Alpha virt. eigenvalues --   -0.10287  -0.02503   0.02244   0.02802   0.04142
 Alpha virt. eigenvalues --    0.04985   0.05447   0.05527   0.05573   0.06440
 Alpha virt. eigenvalues --    0.08661   0.08767   0.12431   0.15596   0.27914

  Beta  occ. eigenvalues --  -67.02503 -67.02502  -5.57134  -5.57133  -3.88405
  Beta  occ. eigenvalues --   -3.88403  -3.87933  -3.87932  -3.87834  -3.87833
  Beta  occ. eigenvalues --   -0.59524  -0.57110  -0.40327  -0.39501  -0.32483
  Beta  occ. eigenvalues --   -0.26138
  Beta virt. eigenvalues --   -0.10287  -0.02503   0.02244   0.02802   0.04142
  Beta virt. eigenvalues --    0.04985   0.05447   0.05527   0.05573   0.06440
  Beta virt. eigenvalues --    0.08661   0.08767   0.12431   0.15596   0.27914

 Mulliken charges and spin densities:
               1          2
     1  Si   0.229411  -0.000001
     2  Si   0.229460   0.000001
     3  H   -0.114720  -0.000000
     4  H   -0.114715   0.000000
     5  H   -0.114722  -0.000000
     6  H   -0.114714   0.000000
 Sum of Mulliken charges =   0.00000   0.00000

 Dipole moment (field-independent basis, Debye):
    X=              0.0007    Y=             -0.0000    Z=              0.0001  Tot=              0.0007
 Quadrupole moment (field-independent basis, Debye-Ang):
   XX=            -25.5069   YY=            -31.5000   ZZ=            -33.2437
   XY=             -0.0005   XZ=             -2.4512   YZ=             -0.0004

 Normal termination of Gaussian 16 at Mon Apr 21 20:34:24 2025.
