 Gaussian 16, Revision A.03,
 Gaussian 16:  ES64L-G16RevA.03 25-Dec-2016

 ---------------------------------------------------
 #p UM062X/6-311+G** force int=superfine pop=saveNBO
 ---------------------------------------------------

 -------------------
 Title Card Required
 -------------------
 Symbolic Z-matrix:
 Charge =  0 Multiplicity = 1

                         Standard orientation:
 ---------------------------------------------------------------------
 Center     Atomic      Atomic             Coordinates (Angstroms)
 Number     Number       Type             X           Y           Z
 ---------------------------------------------------------------------
      1         15           0        0.000000    0.000000    2.238495
      2         15           0        0.000000    0.000000   -2.238495
 ---------------------------------------------------------------------

 SCF Done:  E(UM062X) =  -682.255260084     A.U. after    9 cycles

 The electronic state is 1-SGG.
 Alpha  occ. eigenvalues --  -78.11664 -78.11664  -6.93363  -6.93363  -5.04659
 Alpha  occ. eigenvalues --   -5.04659  -5.04646  -5.04646  -5.04646  -5.04646
 Alpha  occ. eigenvalues --   -0.64019  -0.63327  -0.25703  -0.24590  -0.24590
 Alpha virt. eigenvalues --   -0.18033  -0.18033  -0.16740   0.02252   0.03403
 Alpha virt. eigenvalues --    0.04364   0.04364   0.06307   0.06307   0.06342
 Alpha virt. eigenvalues --    0.10071   0.28511   0.30087   0.30087   0.32490

  Beta  occ. eigenvalues --  -78.11664 -78.11664  -6.93363  -6.93363  -5.04659
  Beta  occ. eigenvalues --   -5.04659  -5.04646  -5.04646  -5.04646  -5.04646
  Beta  occ. eigenvalues --   -0.64019  -0.63327  -0.25703  -0.24590  -0.24590
  Beta virt. eigenvalues --   -0.18033  -0.18033  -0.16740   0.02252   0.03403
  Beta virt. eigenvalues --    0.04364   0.04364   0.06307   0.06307   0.06342
  Beta virt. eigenvalues --    0.10071   0.28511   0.30087   0.30087   0.32490

 Mulliken charges and spin densities:
               1          2
     1  P    0.000000  -0.000000
     2  P    0.000000  -0.000000
 Sum of Mulliken charges =   0.00000  -0.00000

 Dipole moment (field-independent basis, Debye):
    X=              0.0000    Y=              0.0000    Z=             -0.0000  Tot=              0.0000
 Quadrupole moment (field-independent basis, Debye-Ang):
   XX=            -29.3829   YY=            -29.3829   ZZ=            -24.8130
   XY=              0.0000   XZ=             -0.0000   YZ=              0.0000

 Summary of Natural Population Analysis:

                                       Natural Population
                Natural  -----------------------------------------------
    Atom  No    Charge         Core      Valence    Rydberg      Total
 -----------------------------------------------------------------------
      P    1   -0.00000      5.00000     2.49955    0.00045     7.50000
      P    2    0.00000      5.00000     2.49955    0.00045     7.50000
 =======================================================================
   * Total *    0.00000     10.00000     4.99910    0.00090    15.00000

 Normal termination of Gaussian 16 at Mon Apr 21 21:22:06 2025.
