 Gaussian 16, Revision A.03,
 Gaussian 16:  ES64L-G16RevA.03 25-Dec-2016

 --------------------------------------------
 #p opt UM062X/6-311+G** nosymm int=superfine
 --------------------------------------------

 -------------------
 Title Card Required
 -------------------
 Symbolic Z-matrix:
 Charge =  0 Multiplicity = 1

 SCF Done:  E(UM062X) =  -382.249673869     A.U. after   14 cycles
 SCF Done:  E(UM062X) =  -382.259894560     A.U. after   11 cycles
 SCF Done:  E(UM062X) =  -382.265655829     A.U. after   11 cycles
 SCF Done:  E(UM062X) =  -382.265742259     A.U. after   12 cycles
 SCF Done:  E(UM062X) =  -382.265787728     A.U. after   10 cycles
 SCF Done:  E(UM062X) =  -382.265813484     A.U. after   11 cycles
 SCF Done:  E(UM062X) =  -382.265820132     A.U. after    9 cycles
 SCF Done:  E(UM062X) =  -382.265822046     A.U. after   11 cycles
 SCF Done:  E(UM062X) =  -382.265823080     A.U. after    8 cycles
 SCF Done:  E(UM062X) =  -382.265823545     A.U. after    9 cycles
 SCF Done:  E(UM062X) =  -382.265823658     A.U. after    9 cycles
 Optimization completed.
    -- Stationary point found.

                          Input orientation:
 ---------------------------------------------------------------------
 Center     Atomic      Atomic             Coordinates (Angstroms)
 Number     Number       Type             X           Y           Z
 ---------------------------------------------------------------------
      1          6           0       -1.881264    0.000000    0.000000
      2         15           0        1.881264    0.000000    0.000000
      3          1           0        1.814471   -1.417619    0.028174
      4          1           0       -1.938399    1.052712    0.235776
      5          1           0        1.814455    0.078589    1.415694
      6          1           0       -1.938307   -0.319092   -1.030525
      7          1           0       -1.965562   -0.730644    0.791503
 ---------------------------------------------------------------------

 Alpha  occ. eigenvalues --  -78.03219 -10.59475  -6.85601  -4.97129  -4.97051
 Alpha  occ. eigenvalues --   -4.96868  -0.78734  -0.69410  -0.50866  -0.50810
 Alpha  occ. eigenvalues --   -0.43577  -0.34675  -0.24190
 Alpha virt. eigenvalues --   -0.12076   0.02139   0.03904   0.03987   0.04556
 Alpha virt. eigenvalues --    0.06288   0.06836   0.07218   0.07264   0.11491
 Alpha virt. eigenvalues --    0.17224   0.18318   0.18395   0.23155   0.30270

  Beta  occ. eigenvalues --  -78.03219 -10.59475  -6.85601  -4.97129  -4.97051
  Beta  occ. eigenvalues --   -4.96868  -0.78734  -0.69410  -0.50866  -0.50810
  Beta  occ. eigenvalues --   -0.43577  -0.34675  -0.24190
  Beta virt. eigenvalues --   -0.12076   0.02139   0.03904   0.03987   0.04556
  Beta virt. eigenvalues --    0.06288   0.06836   0.07218   0.07264   0.11491
  Beta virt. eigenvalues --    0.17224   0.18318   0.18395   0.23155   0.30270

 Mulliken charges and spin densities:
               1          2
     1  C   -0.512541   0.000000
     2  P   -0.046789  -0.000000
     3  H   -0.000819   0.000000
     4  H    0.187730  -0.000000
     5  H   -0.000818   0.000000
     6  H    0.187720  -0.000000
     7  H    0.185517  -0.000000
 Sum of Mulliken charges =  -0.00000   0.00000

 Dipole moment (field-independent basis, Debye):
    X=             -1.4548    Y=             -0.5670    Z=              0.6114  Tot=              1.6768
 Quadrupole moment (field-independent basis, Debye-Ang):
   XX=            -22.2377   YY=            -22.3888   ZZ=            -22.4949
   XY=             -1.2322   XZ=              1.3285   YZ=              0.7025

 Normal termination of Gaussian 16 at Mon Apr 21 19:07:40 2025.
