 Gaussian 16, Revision A.03,
 Gaussian 16:  ES64L-G16RevA.03 25-Dec-2016

 ---------------------------------------------------------------------
 #p opt UM062X/6-311+G** nosymm int=superfine SCF=(Tight,MaxCycle=200)
 ---------------------------------------------------------------------

 -------------------
 Title Card Required
 -------------------
 Symbolic Z-matrix:
 Charge =  1 Multiplicity = 2

 SCF Done:  E(UM062X) =  -1615.04751646     A.U. after   22 cycles
 SCF Done:  E(UM062X) =  -1615.24745078     A.U. after   21 cycles
 SCF Done:  E(UM062X) =  -1615.49700178     A.U. after   20 cycles
 SCF Done:  E(UM062X) =  -1615.55012617     A.U. after   20 cycles
 SCF Done:  E(UM062X) =  -1615.54899363     A.U. after   24 cycles
 SCF Done:  E(UM062X) =  -1615.55654259     A.U. after   19 cycles
 SCF Done:  E(UM062X) =  -1615.55563060     A.U. after   22 cycles
 SCF Done:  E(UM062X) =  -1615.55712740     A.U. after   20 cycles
 SCF Done:  E(UM062X) =  -1615.55803479     A.U. after   20 cycles
 SCF Done:  E(UM062X) =  -1615.55784109     A.U. after   20 cycles
 SCF Done:  E(UM062X) =  -1615.55826912     A.U. after   15 cycles
 SCF Done:  E(UM062X) =  -1615.55827156     A.U. after   16 cycles
 SCF Done:  E(UM062X) =  -1615.55826130     A.U. after   16 cycles
 SCF Done:  E(UM062X) =  -1615.55827234     A.U. after   15 cycles
 SCF Done:  E(UM062X) =  -1615.55826230     A.U. after   16 cycles
 SCF Done:  E(UM062X) =  -1615.55827254     A.U. after   16 cycles
 SCF Done:  E(UM062X) =  -1615.55826237     A.U. after   16 cycles
 SCF Done:  E(UM062X) =  -1615.55827269     A.U. after   15 cycles
 SCF Done:  E(UM062X) =  -1615.55826238     A.U. after   15 cycles
 SCF Done:  E(UM062X) =  -1615.55827271     A.U. after   16 cycles
 Optimization completed.
    -- Stationary point found.

                          Input orientation:
 ---------------------------------------------------------------------
 Center     Atomic      Atomic             Coordinates (Angstroms)
 Number     Number       Type             X           Y           Z
 ---------------------------------------------------------------------
      1          6           0       -1.012970    0.000000    0.000000
      2          6           0        1.012970    0.000000    0.000000
      3          6           0       -0.000016   -2.186054   -0.000078
      4          6           0       -0.000011   -3.551019   -0.000079
      5          6           0       -1.118413   -4.328165    0.345654
      6          6           0       -1.160233   -1.475570    0.331314
      7          6           0        0.649194   -5.725464   -0.201617
      8          1           0        1.245740   -6.606653   -0.390197
      9          6           0       -1.408641    0.909648    1.106739
     10          6           0       -0.648995   -5.725473    0.202102
     11          1           0       -1.245457   -6.606669    0.390913
     12          6           0        1.118488   -4.328148   -0.345518
     13          6           0        1.160252   -1.475578   -0.331260
     14          6           0        1.616425    2.318714   -1.018586
     15          6           0       -1.416599    0.213466   -1.436359
     16          6           0       -1.856882    3.058612    2.204309
     17          1           0       -2.015050    4.126793    2.111071
     18          6           0       -2.261084   -3.639855    0.704876
     19          1           0       -3.170873   -4.157252    0.988012
     20          6           0       -1.540718    1.473389   -2.090182
     21          6           0        2.278288   -2.204702   -0.685654
     22          1           0        3.207669   -1.698419   -0.924571
     23          6           0        1.416381    0.213523    1.436413
     24          6           0        1.540622    1.473476    2.090146
     25          6           0        2.261227   -3.639830   -0.704523
     26          1           0        3.171097   -4.157228   -0.987400
     27          6           0       -1.615701    2.318904    1.018419
     28          6           0       -1.452710    0.345256    2.399836
     29          1           0       -1.275059   -0.712613    2.519802
     30          6           0        1.603791   -0.922985    2.257867
     31          1           0        1.560301   -1.915076    1.838564
     32          6           0       -1.896777    2.470813    3.444042
     33          1           0       -2.083618    3.064691    4.330143
     34          6           0       -2.278181   -2.204725    0.685935
     35          1           0       -3.207536   -1.698467    0.925012
     36          6           0       -1.767953    1.526092   -3.484181
     37          1           0       -1.836282    2.502481   -3.949634
     38          6           0        1.408641    0.909552   -1.106809
     39          6           0       -1.564354    3.121847   -0.168406
     40          1           0       -1.605179    4.190395    0.020007
     41          6           0       -1.929952    0.394650   -4.248720
     42          1           0       -2.117878    0.468155   -5.312623
     43          6           0       -1.492023    2.768399   -1.470816
     44          1           0       -1.483747    3.595530   -2.174149
     45          6           0        1.767246    1.526238    3.484235
     46          1           0        1.835650    2.502650    3.949629
     47          6           0       -1.687832    1.090225    3.537265
     48          1           0       -1.700424    0.597981    4.502318
     49          6           0       -1.604595   -0.923079   -2.257646
     50          1           0       -1.561193   -1.915139   -1.838256
     51          6           0        1.928617    0.394823    4.248962
     52          1           0        2.116094    0.468388    5.312941
     53          6           0        1.857769    3.058240   -2.204572
     54          1           0        2.016543    4.126337   -2.111410
     55          6           0        1.861923   -0.843352    3.614170
     56          1           0        2.008504   -1.757700    4.176236
     57          6           0        1.897052    2.470385   -3.444291
     58          1           0        2.083991    3.064142   -4.330453
     59          6           0        1.565668    3.121757    0.168195
     60          1           0        1.607323    4.190264   -0.020258
     61          6           0       -1.863265   -0.843496   -3.613841
     62          1           0       -2.010289   -1.757855   -4.175773
     63          6           0        1.492815    2.768450    1.470612
     64          1           0        1.484925    3.595656    2.173861
     65          6           0        1.452146    0.345098   -2.399920
     66          1           0        1.273997   -0.712698   -2.519798
     67          6           0        1.687352    1.089896   -3.537428
     68          1           0        1.699416    0.597623   -4.502472
 ---------------------------------------------------------------------

 Alpha  occ. eigenvalues --  -10.71941 -10.71933 -10.68862 -10.68861 -10.68648
 Alpha  occ. eigenvalues --  -10.68647 -10.68497 -10.68497 -10.67756 -10.67756
 Alpha  occ. eigenvalues --  -10.67226 -10.67225 -10.67012 -10.67012 -10.66482
 Alpha  occ. eigenvalues --  -10.66482 -10.66273 -10.66272 -10.66250 -10.66250
 Alpha  occ. eigenvalues --  -10.66014 -10.66013 -10.65855 -10.65855 -10.65608
 Alpha  occ. eigenvalues --  -10.65608 -10.65559 -10.65559 -10.65529 -10.65528
 Alpha  occ. eigenvalues --  -10.65315 -10.65315 -10.65211 -10.65211 -10.65171
 Alpha  occ. eigenvalues --  -10.65171 -10.64847 -10.64847 -10.64284 -10.64012
 Alpha  occ. eigenvalues --  -10.63916 -10.62597  -1.13010  -1.10408  -1.09826
 Alpha  occ. eigenvalues --   -1.08551  -1.07879  -1.06198  -1.04119  -1.02852
 Alpha  occ. eigenvalues --   -1.02400  -1.00668  -0.99969  -0.97953  -0.97813
 Alpha  occ. eigenvalues --   -0.96960  -0.96227  -0.94831  -0.93449  -0.93416
 Alpha  occ. eigenvalues --   -0.92615  -0.91859  -0.87938  -0.86907  -0.84993
 Alpha  occ. eigenvalues --   -0.84793  -0.82695  -0.81640  -0.81123  -0.79981
 Alpha  occ. eigenvalues --   -0.79736  -0.79519  -0.77814  -0.76376  -0.76150
 Alpha  occ. eigenvalues --   -0.75434  -0.75221  -0.73841  -0.70126  -0.70020
 Alpha  occ. eigenvalues --   -0.68973  -0.68178  -0.67796  -0.67589  -0.67114
 Alpha  occ. eigenvalues --   -0.66841  -0.65490  -0.65166  -0.64983  -0.64755
 Alpha  occ. eigenvalues --   -0.63620  -0.63062  -0.62270  -0.62117  -0.61489
 Alpha  occ. eigenvalues --   -0.61341  -0.60665  -0.60253  -0.60158  -0.59904
 Alpha  occ. eigenvalues --   -0.59606  -0.58829  -0.58480  -0.58012  -0.57743
 Alpha  occ. eigenvalues --   -0.57294  -0.56043  -0.55898  -0.55819  -0.55682
 Alpha  occ. eigenvalues --   -0.54853  -0.54670  -0.53969  -0.52914  -0.52785
 Alpha  occ. eigenvalues --   -0.52553  -0.52125  -0.51999  -0.51678  -0.51107
 Alpha  occ. eigenvalues --   -0.50887  -0.50810  -0.50599  -0.49190  -0.48724
 Alpha  occ. eigenvalues --   -0.48531  -0.48491  -0.48111  -0.44243  -0.43728
 Alpha  occ. eigenvalues --   -0.43427  -0.43068  -0.40953  -0.39991  -0.39725
 Alpha  occ. eigenvalues --   -0.38083  -0.37804  -0.37125  -0.35363
 Alpha virt. eigenvalues --   -0.15639  -0.15593  -0.15155  -0.14587  -0.10090
 Alpha virt. eigenvalues --   -0.10070  -0.08777  -0.08726  -0.08333  -0.07721
 Alpha virt. eigenvalues --   -0.07699  -0.07518  -0.07021  -0.06552  -0.06323

  Beta  occ. eigenvalues --  -10.71875 -10.71870 -10.68829 -10.68828 -10.68612
  Beta  occ. eigenvalues --  -10.68610 -10.68486 -10.68486 -10.67734 -10.67734
  Beta  occ. eigenvalues --  -10.67195 -10.67195 -10.66975 -10.66974 -10.66480
  Beta  occ. eigenvalues --  -10.66480 -10.66248 -10.66247 -10.66227 -10.66227
  Beta  occ. eigenvalues --  -10.66008 -10.66007 -10.65856 -10.65856 -10.65609
  Beta  occ. eigenvalues --  -10.65609 -10.65550 -10.65550 -10.65547 -10.65546
  Beta  occ. eigenvalues --  -10.65307 -10.65307 -10.65209 -10.65208 -10.65171
  Beta  occ. eigenvalues --  -10.65171 -10.64844 -10.64844 -10.64279 -10.64012
  Beta  occ. eigenvalues --  -10.63916 -10.62598  -1.12872  -1.10295  -1.09635
  Beta  occ. eigenvalues --   -1.08412  -1.07742  -1.06070  -1.04035  -1.02638
  Beta  occ. eigenvalues --   -1.02207  -1.00544  -0.99843  -0.97806  -0.97684
  Beta  occ. eigenvalues --   -0.96851  -0.96132  -0.94793  -0.93295  -0.93284
  Beta  occ. eigenvalues --   -0.92463  -0.91730  -0.87683  -0.86703  -0.84870
  Beta  occ. eigenvalues --   -0.84676  -0.82632  -0.81522  -0.81047  -0.79860
  Beta  occ. eigenvalues --   -0.79660  -0.79445  -0.77660  -0.76189  -0.75988
  Beta  occ. eigenvalues --   -0.75280  -0.75194  -0.73723  -0.70017  -0.69867
  Beta  occ. eigenvalues --   -0.68884  -0.68094  -0.67676  -0.67481  -0.66979
  Beta  occ. eigenvalues --   -0.66728  -0.65387  -0.65072  -0.64861  -0.64633
  Beta  occ. eigenvalues --   -0.63285  -0.63016  -0.62197  -0.62007  -0.61263
  Beta  occ. eigenvalues --   -0.61165  -0.60527  -0.60182  -0.60051  -0.59817
  Beta  occ. eigenvalues --   -0.59454  -0.58624  -0.58408  -0.57885  -0.57331
  Beta  occ. eigenvalues --   -0.57186  -0.55945  -0.55777  -0.55705  -0.55084
  Beta  occ. eigenvalues --   -0.54790  -0.54198  -0.53618  -0.52800  -0.52688
  Beta  occ. eigenvalues --   -0.52488  -0.52047  -0.51843  -0.51254  -0.51008
  Beta  occ. eigenvalues --   -0.50705  -0.50673  -0.49697  -0.49056  -0.48620
  Beta  occ. eigenvalues --   -0.48468  -0.48254  -0.47654  -0.43651  -0.42942
  Beta  occ. eigenvalues --   -0.42896  -0.42725  -0.40593  -0.39942  -0.39093
  Beta  occ. eigenvalues --   -0.37541  -0.37177  -0.36595
  Beta virt. eigenvalues --   -0.25755  -0.15487  -0.15251  -0.15000  -0.14018
  Beta virt. eigenvalues --   -0.09942  -0.09690  -0.08683  -0.08370  -0.08172
  Beta virt. eigenvalues --   -0.07573  -0.07565  -0.07438  -0.06546  -0.06453

 Mulliken charges and spin densities:
               1          2
     1  C    0.009956   0.029168
     2  C    0.009098   0.029081
     3  C    0.136383   0.002727
     4  C    0.124261  -0.003791
     5  C    0.132431   0.006916
     6  C    0.152401   0.005843
     7  C   -0.300957   0.001065
     8  H    0.175636  -0.000059
     9  C    0.166310   0.074295
    10  C   -0.300854   0.001066
    11  H    0.175635  -0.000059
    12  C    0.132105   0.006920
    13  C    0.151923   0.005828
    14  C   -0.005443   0.041760
    15  C    0.181923   0.046466
    16  C   -0.090508   0.023986
    17  H    0.165826  -0.000916
    18  C   -0.496423   0.001226
    19  H    0.174301   0.000412
    20  C    0.201326   0.045676
    21  C   -0.183686   0.011869
    22  H    0.174167  -0.000444
    23  C    0.181454   0.046454
    24  C    0.201717   0.045689
    25  C   -0.496274   0.001228
    26  H    0.174300   0.000412
    27  C   -0.005525   0.041668
    28  C   -0.101365  -0.036207
    29  H    0.198026   0.000998
    30  C   -0.310927  -0.004754
    31  H    0.216587   0.000392
    32  C   -0.279613   0.019489
    33  H    0.180197  -0.000996
    34  C   -0.183728   0.011870
    35  H    0.174198  -0.000444
    36  C   -0.158208  -0.007172
    37  H    0.163034   0.000037
    38  C    0.166621   0.074263
    39  C   -0.179179   0.097649
    40  H    0.169059  -0.006991
    41  C   -0.256986   0.012823
    42  H    0.177719  -0.000419
    43  C   -0.157338   0.061005
    44  H    0.162443  -0.003484
    45  C   -0.158397  -0.007154
    46  H    0.163026   0.000037
    47  C   -0.172140   0.077676
    48  H    0.175269  -0.005103
    49  C   -0.311050  -0.004766
    50  H    0.216573   0.000392
    51  C   -0.256828   0.012808
    52  H    0.177718  -0.000419
    53  C   -0.089755   0.024034
    54  H    0.165836  -0.000916
    55  C   -0.089008   0.009251
    56  H    0.175163  -0.000832
    57  C   -0.279383   0.019533
    58  H    0.180198  -0.000998
    59  C   -0.179881   0.097526
    60  H    0.169099  -0.006982
    61  C   -0.088523   0.009270
    62  H    0.175165  -0.000832
    63  C   -0.157675   0.061036
    64  H    0.162444  -0.003489
    65  C   -0.100975  -0.036225
    66  H    0.198087   0.001000
    67  C   -0.172259   0.077707
    68  H    0.175273  -0.005102
 Sum of Mulliken charges =   1.00000   1.00000

 Dipole moment (field-independent basis, Debye):
    X=              0.0002    Y=              3.1837    Z=             -0.0000  Tot=              3.1837
 Quadrupole moment (field-independent basis, Debye-Ang):
   XX=           -222.4280   YY=           -174.0727   ZZ=           -177.2437
   XY=              0.0090   XZ=             -1.8663   YZ=             -0.0031

 Normal termination of Gaussian 16 at Fri Mar 21 08:29:58 2025.
