 Gaussian 16, Revision A.03,
 Gaussian 16:  ES64L-G16RevA.03 25-Dec-2016

 --------------------------------------------
 #p opt UM062X/6-311+G** nosymm int=superfine
 --------------------------------------------

 -------------------
 Title Card Required
 -------------------
 Symbolic Z-matrix:
 Charge = -1 Multiplicity = 2

 SCF Done:  E(UM062X) =  -51.8787121707     A.U. after   11 cycles
 SCF Done:  E(UM062X) =  -51.8833710734     A.U. after   10 cycles
 SCF Done:  E(UM062X) =  -51.8856209709     A.U. after   11 cycles
 SCF Done:  E(UM062X) =  -51.8856444734     A.U. after   11 cycles
 SCF Done:  E(UM062X) =  -51.8856414042     A.U. after   11 cycles
 SCF Done:  E(UM062X) =  -51.8856402233     A.U. after   16 cycles
 SCF Done:  E(UM062X) =  -51.8856441888     A.U. after   11 cycles
 SCF Done:  E(UM062X) =  -51.8856445271     A.U. after   14 cycles
 Optimization completed.
    -- Stationary point found.

                          Input orientation:
 ---------------------------------------------------------------------
 Center     Atomic      Atomic             Coordinates (Angstroms)
 Number     Number       Type             X           Y           Z
 ---------------------------------------------------------------------
      1          5           0       -1.522274    0.000000    0.000000
      2          5           0        1.522274    0.000000    0.000000
      3          1           0       -2.046631   -1.070066    0.000189
      4          1           0        2.046632    1.070065   -0.000326
      5          1           0       -2.046632    1.070065   -0.000323
      6          1           0        2.046633   -1.070065    0.000197
 ---------------------------------------------------------------------

 Alpha  occ. eigenvalues --   -6.88448  -6.88445  -0.37914  -0.36693  -0.23608
 Alpha  occ. eigenvalues --   -0.23056  -0.03790   0.01447
 Alpha virt. eigenvalues --    0.12285   0.14678   0.16436   0.18677   0.19095
 Alpha virt. eigenvalues --    0.19936   0.22268   0.22494   0.23706   0.25626
 Alpha virt. eigenvalues --    0.32323   0.34129   0.34184   0.41281   0.49237

  Beta  occ. eigenvalues --   -6.88411  -6.88409  -0.36339  -0.35379  -0.23518
  Beta  occ. eigenvalues --   -0.23018  -0.02511
  Beta virt. eigenvalues --    0.10740   0.13155   0.13736   0.13895   0.16079
  Beta virt. eigenvalues --    0.17238   0.18348   0.19796   0.21572   0.22262
  Beta virt. eigenvalues --    0.23968   0.31443   0.33035   0.34212   0.40946

 Mulliken charges and spin densities:
               1          2
     1  B   -0.424571   0.546238
     2  B   -0.424571   0.546243
     3  H   -0.037715  -0.023120
     4  H   -0.037715  -0.023120
     5  H   -0.037715  -0.023120
     6  H   -0.037715  -0.023120
 Sum of Mulliken charges =  -1.00000   1.00000

 Dipole moment (field-independent basis, Debye):
    X=             -0.0000    Y=             -0.0000    Z=             -0.0001  Tot=              0.0001
 Quadrupole moment (field-independent basis, Debye-Ang):
   XX=            -32.9321   YY=            -23.5814   ZZ=            -26.1182
   XY=             -0.0000   XZ=             -0.0000   YZ=             -0.0006

 Normal termination of Gaussian 16 at Mon Apr 21 17:24:20 2025.
