 Gaussian 16, Revision A.03,
 Gaussian 16:  ES64L-G16RevA.03 25-Dec-2016

 ---------------------------------------------------
 #p UM062X/6-311+G** force int=superfine pop=saveNBO
 ---------------------------------------------------

 -------------------
 Title Card Required
 -------------------
 Symbolic Z-matrix:
 Charge =  0 Multiplicity = 1

                         Standard orientation:
 ---------------------------------------------------------------------
 Center     Atomic      Atomic             Coordinates (Angstroms)
 Number     Number       Type             X           Y           Z
 ---------------------------------------------------------------------
      1          6           0        0.000000    0.000000   -2.069808
      2          8           0        0.000000    0.000000    1.552356
 ---------------------------------------------------------------------

 SCF Done:  E(UM062X) =  -112.626447706     A.U. after   18 cycles

 The electronic state is 1-SG.
 Alpha  occ. eigenvalues --  -19.68227 -10.86798  -0.97450  -0.74438  -0.32314
 Alpha  occ. eigenvalues --   -0.31291  -0.31291
 Alpha virt. eigenvalues --   -0.23209  -0.23209  -0.22032   0.01739   0.05428
 Alpha virt. eigenvalues --    0.05428   0.07090   0.19610   0.22099   0.22099
 Alpha virt. eigenvalues --    0.25838   0.49037   0.49037   0.50437   0.59210

  Beta  occ. eigenvalues --  -19.68227 -10.86798  -0.97450  -0.74438  -0.32314
  Beta  occ. eigenvalues --   -0.31291  -0.31291
  Beta virt. eigenvalues --   -0.23209  -0.23209  -0.22032   0.01739   0.05428
  Beta virt. eigenvalues --    0.05428   0.07090   0.19610   0.22099   0.22099
  Beta virt. eigenvalues --    0.25838   0.49037   0.49037   0.50437   0.59210

 Mulliken charges and spin densities:
               1          2
     1  C    0.358543   0.000000
     2  O   -0.358543  -0.000000
 Sum of Mulliken charges =   0.00000   0.00000

 Dipole moment (field-independent basis, Debye):
    X=              0.0000    Y=              0.0000    Z=             -6.2116  Tot=              6.2116
 Quadrupole moment (field-independent basis, Debye-Ang):
   XX=            -12.1380   YY=            -12.1380   ZZ=             -7.6489
   XY=              0.0000   XZ=              0.0000   YZ=              0.0000

 Summary of Natural Population Analysis:

                                       Natural Population
                Natural  -----------------------------------------------
    Atom  No    Charge         Core      Valence    Rydberg      Total
 -----------------------------------------------------------------------
      C    1    0.20202      1.00000     1.79779    0.00019     2.79798
      O    2   -0.20202      1.00000     3.20191    0.00010     4.20202
 =======================================================================
   * Total *    0.00000      2.00000     4.99970    0.00030     7.00000

 Normal termination of Gaussian 16 at Mon Apr 21 19:26:20 2025.
