 Gaussian 16, Revision A.03,
 Gaussian 16:  ES64L-G16RevA.03 25-Dec-2016

 --------------------------------------------
 #p opt UM062X/6-311+G** nosymm int=superfine
 --------------------------------------------

 -------------------
 Title Card Required
 -------------------
 Symbolic Z-matrix:
 Charge =  1 Multiplicity = 2

 SCF Done:  E(UM062X) =  -580.860343350     A.U. after   15 cycles
 SCF Done:  E(UM062X) =  -580.867850747     A.U. after    9 cycles
 SCF Done:  E(UM062X) =  -580.869981706     A.U. after   12 cycles
 SCF Done:  E(UM062X) =  -580.869984587     A.U. after    6 cycles
 Optimization completed.
    -- Stationary point found.

                          Input orientation:
 ---------------------------------------------------------------------
 Center     Atomic      Atomic             Coordinates (Angstroms)
 Number     Number       Type             X           Y           Z
 ---------------------------------------------------------------------
      1         14           0       -2.466295    0.000000    0.000000
      2         14           0        2.466295    0.000000    0.000000
      3          1           0       -3.366465   -1.189646    0.000046
      4          1           0        3.366465    1.189646    0.001074
      5          1           0       -3.366480    1.189635   -0.000038
      6          1           0        3.366480   -1.189634   -0.001066
 ---------------------------------------------------------------------

 Alpha  occ. eigenvalues --  -67.23730 -67.23730  -5.78226  -5.78226  -4.09495
 Alpha  occ. eigenvalues --   -4.09495  -4.09175  -4.09175  -4.08833  -4.08833
 Alpha  occ. eigenvalues --   -0.77749  -0.77697  -0.59555  -0.59542  -0.48703
 Alpha  occ. eigenvalues --   -0.47520
 Alpha virt. eigenvalues --   -0.26553  -0.26193  -0.11931  -0.11890  -0.09200
 Alpha virt. eigenvalues --   -0.08512  -0.07722  -0.06833  -0.06710  -0.05924
 Alpha virt. eigenvalues --   -0.05498  -0.05436  -0.05326  -0.03390   0.13126

  Beta  occ. eigenvalues --  -67.23399 -67.23399  -5.77978  -5.77978  -4.09393
  Beta  occ. eigenvalues --   -4.09393  -4.08725  -4.08724  -4.08403  -4.08403
  Beta  occ. eigenvalues --   -0.75942  -0.75756  -0.58384  -0.58364  -0.41904
  Beta virt. eigenvalues --   -0.33404  -0.25381  -0.24913  -0.11274  -0.10706
  Beta virt. eigenvalues --   -0.09247  -0.07167  -0.06883  -0.06406  -0.06258
  Beta virt. eigenvalues --   -0.05958  -0.05202  -0.05195  -0.04685  -0.02981

 Mulliken charges and spin densities:
               1          2
     1  Si   0.564635   0.389810
     2  Si   0.564635   0.389810
     3  H   -0.032317   0.055095
     4  H   -0.032317   0.055095
     5  H   -0.032317   0.055095
     6  H   -0.032317   0.055095
 Sum of Mulliken charges =   1.00000   1.00000

 Dipole moment (field-independent basis, Debye):
    X=              0.0000    Y=              0.0000    Z=              0.0000  Tot=              0.0000
 Quadrupole moment (field-independent basis, Debye-Ang):
   XX=              9.2513   YY=            -25.9346   ZZ=            -20.8874
   XY=             -0.0000   XZ=              0.0000   YZ=             -0.0022

 Normal termination of Gaussian 16 at Mon Apr 21 20:23:24 2025.
