 Gaussian 16, Revision A.03,
 Gaussian 16:  ES64L-G16RevA.03 25-Dec-2016

 --------------------------------------------
 #p opt UM062X/6-311+G** nosymm int=superfine
 --------------------------------------------

 -------------------
 Title Card Required
 -------------------
 Symbolic Z-matrix:
 Charge =  0 Multiplicity = 1

 SCF Done:  E(UM062X) =  -51.7921661402     A.U. after   10 cycles
 SCF Done:  E(UM062X) =  -51.9020692131     A.U. after   10 cycles
 SCF Done:  E(UM062X) =  -51.9868541223     A.U. after    9 cycles
 SCF Done:  E(UM062X) =  -51.9899607697     A.U. after    9 cycles
 SCF Done:  E(UM062X) =  -51.9900503913     A.U. after    8 cycles
 SCF Done:  E(UM062X) =  -51.9900873919     A.U. after    8 cycles
 SCF Done:  E(UM062X) =  -51.9900930224     A.U. after    7 cycles
 Optimization completed.
    -- Stationary point found.

                          Input orientation:
 ---------------------------------------------------------------------
 Center     Atomic      Atomic             Coordinates (Angstroms)
 Number     Number       Type             X           Y           Z
 ---------------------------------------------------------------------
      1          5           0       -0.870607    0.000073   -0.000097
      2          5           0        0.870607   -0.000073   -0.000097
      3          1           0       -1.498669   -1.013008    0.002157
      4          1           0        1.498669    1.013006    0.002868
      5          1           0       -1.498502    1.013256   -0.002346
      6          1           0        1.498502   -1.013254   -0.003057
 ---------------------------------------------------------------------

 Alpha  occ. eigenvalues --   -7.05066  -7.05026  -0.61184  -0.53015  -0.43285
 Alpha  occ. eigenvalues --   -0.37755  -0.35695
 Alpha virt. eigenvalues --   -0.09041   0.02199   0.02442   0.03210   0.04089
 Alpha virt. eigenvalues --    0.05176   0.06500   0.06628   0.10091   0.11457
 Alpha virt. eigenvalues --    0.16027   0.17486   0.20942   0.23756   0.28472

  Beta  occ. eigenvalues --   -7.05066  -7.05026  -0.61184  -0.53015  -0.43285
  Beta  occ. eigenvalues --   -0.37755  -0.35695
  Beta virt. eigenvalues --   -0.09041   0.02199   0.02442   0.03210   0.04089
  Beta virt. eigenvalues --    0.05176   0.06500   0.06628   0.10091   0.11457
  Beta virt. eigenvalues --    0.16027   0.17486   0.20942   0.23756   0.28472

 Mulliken charges and spin densities:
               1          2
     1  B   -0.036181  -0.000000
     2  B   -0.036181   0.000000
     3  H    0.018090  -0.000000
     4  H    0.018090   0.000000
     5  H    0.018090  -0.000000
     6  H    0.018090   0.000000
 Sum of Mulliken charges =  -0.00000   0.00000

 Dipole moment (field-independent basis, Debye):
    X=              0.0000    Y=              0.0000    Z=             -0.0000  Tot=              0.0000
 Quadrupole moment (field-independent basis, Debye-Ang):
   XX=            -17.7131   YY=            -16.8761   ZZ=            -12.5091
   XY=              0.0001   XZ=              0.0000   YZ=             -0.0015

 Normal termination of Gaussian 16 at Tue Apr 15 23:57:18 2025.
