 Gaussian 16, Revision A.03,
 Gaussian 16:  ES64L-G16RevA.03 25-Dec-2016

 --------------------------------------------
 #p opt UM062X/6-311+G** nosymm int=superfine
 --------------------------------------------

 -------------------
 Title Card Required
 -------------------
 Symbolic Z-matrix:
 Charge =  0 Multiplicity = 1

 SCF Done:  E(UM062X) =  -76.9278764126     A.U. after   14 cycles
 SCF Done:  E(UM062X) =  -76.9291244288     A.U. after   13 cycles
 SCF Done:  E(UM062X) =  -76.9298006533     A.U. after   14 cycles
 SCF Done:  E(UM062X) =  -76.9298729884     A.U. after   12 cycles
 SCF Done:  E(UM062X) =  -76.9298730171     A.U. after   13 cycles
 Optimization completed.
    -- Stationary point found.

                          Input orientation:
 ---------------------------------------------------------------------
 Center     Atomic      Atomic             Coordinates (Angstroms)
 Number     Number       Type             X           Y           Z
 ---------------------------------------------------------------------
      1          6           0       -1.407625    0.000000    0.000000
      2          6           0        1.407625    0.000000    0.000000
      3          1           0       -1.334263    0.045790    1.114058
      4          1           0        1.334392    0.950020   -0.583698
 ---------------------------------------------------------------------

 Alpha  occ. eigenvalues --  -10.67097 -10.67094  -0.73434  -0.71059  -0.38677
 Alpha  occ. eigenvalues --   -0.38588  -0.26669
 Alpha virt. eigenvalues --   -0.10157  -0.08925  -0.07721   0.03037   0.05430
 Alpha virt. eigenvalues --    0.07393   0.07560   0.09805   0.09983   0.10615
 Alpha virt. eigenvalues --    0.14915   0.17741   0.19672   0.44432   0.46282

  Beta  occ. eigenvalues --  -10.67097 -10.67094  -0.73434  -0.71059  -0.38677
  Beta  occ. eigenvalues --   -0.38588  -0.26669
  Beta virt. eigenvalues --   -0.10157  -0.08925  -0.07721   0.03037   0.05430
  Beta virt. eigenvalues --    0.07393   0.07560   0.09805   0.09983   0.10615
  Beta virt. eigenvalues --    0.14915   0.17741   0.19672   0.44432   0.46282

 Mulliken charges and spin densities:
               1          2
     1  C   -0.139149  -0.000000
     2  C   -0.139176   0.000000
     3  H    0.139163   0.000000
     4  H    0.139162  -0.000000
 Sum of Mulliken charges =  -0.00000  -0.00000

 Dipole moment (field-independent basis, Debye):
    X=              0.0001    Y=              1.4260    Z=              0.7595  Tot=              1.6156
 Quadrupole moment (field-independent basis, Debye-Ang):
   XX=            -16.9748   YY=            -12.7861   ZZ=            -13.5288
   XY=              1.9109   XZ=             -3.5879   YZ=              0.5522

 Normal termination of Gaussian 16 at Tue Dec  3 21:56:10 2024.
