 Gaussian 16, Revision A.03,
 Gaussian 16:  ES64L-G16RevA.03 25-Dec-2016

 --------------------------------------------
 #p opt UM062X/6-311+G** nosymm int=superfine
 --------------------------------------------

 -------------------
 Title Card Required
 -------------------
 Symbolic Z-matrix:
 Charge =  0 Multiplicity = 1

 SCF Done:  E(UM062X) =  -78.1985615778     A.U. after    8 cycles
 SCF Done:  E(UM062X) =  -78.1994755914     A.U. after    9 cycles
 SCF Done:  E(UM062X) =  -78.1999677972     A.U. after    9 cycles
 Optimization completed.
    -- Stationary point found.

                          Input orientation:
 ---------------------------------------------------------------------
 Center     Atomic      Atomic             Coordinates (Angstroms)
 Number     Number       Type             X           Y           Z
 ---------------------------------------------------------------------
      1          6           0       -1.385595    0.000000    0.000000
      2          6           0        1.385595    0.000000    0.000000
      3          1           0       -1.777221   -1.004029    0.000000
      4          1           0       -1.777215    1.004039    0.000000
      5          1           0        1.777221    1.004029   -0.000000
      6          1           0        1.777215   -1.004039   -0.000000
 ---------------------------------------------------------------------

 Alpha  occ. eigenvalues --  -10.63118 -10.63113  -0.75808  -0.74115  -0.53800
 Alpha  occ. eigenvalues --   -0.53133  -0.30267  -0.23237
 Alpha virt. eigenvalues --   -0.11326  -0.08303   0.03387   0.05227   0.05266
 Alpha virt. eigenvalues --    0.06922   0.09378   0.10369   0.11089   0.13932
 Alpha virt. eigenvalues --    0.16235   0.18513   0.21479   0.26974   0.40023

  Beta  occ. eigenvalues --  -10.63118 -10.63113  -0.75808  -0.74115  -0.53800
  Beta  occ. eigenvalues --   -0.53133  -0.30267  -0.23237
  Beta virt. eigenvalues --   -0.11326  -0.08303   0.03387   0.05227   0.05266
  Beta virt. eigenvalues --    0.06922   0.09378   0.10369   0.11089   0.13932
  Beta virt. eigenvalues --    0.16235   0.18513   0.21479   0.26974   0.40023

 Mulliken charges and spin densities:
               1          2
     1  C   -0.386561  -0.000000
     2  C   -0.386561   0.000000
     3  H    0.193280   0.000000
     4  H    0.193281   0.000000
     5  H    0.193280  -0.000000
     6  H    0.193281  -0.000000
 Sum of Mulliken charges =  -0.00000   0.00000

 Dipole moment (field-independent basis, Debye):
    X=             -0.0000    Y=              0.0000    Z=             -0.0000  Tot=              0.0000
 Quadrupole moment (field-independent basis, Debye-Ang):
   XX=             -9.7468   YY=            -11.8276   ZZ=            -19.0937
   XY=             -0.0000   XZ=             -0.0000   YZ=              0.0000

 Normal termination of Gaussian 16 at Tue Dec  3 11:07:55 2024.
