 Gaussian 16, Revision A.03,
 Gaussian 16:  ES64L-G16RevA.03 25-Dec-2016

 --------------------------------------------
 #p opt UM062X/6-311+G** nosymm int=superfine
 --------------------------------------------

 -------------------
 Title Card Required
 -------------------
 Symbolic Z-matrix:
 Charge =  0 Multiplicity = 1

 SCF Done:  E(UM062X) =  -95.6149191347     A.U. after   13 cycles
 SCF Done:  E(UM062X) =  -95.6318356864     A.U. after   12 cycles
 SCF Done:  E(UM062X) =  -95.6431248237     A.U. after   12 cycles
 SCF Done:  E(UM062X) =  -95.6434139906     A.U. after   12 cycles
 SCF Done:  E(UM062X) =  -95.6435320326     A.U. after   10 cycles
 SCF Done:  E(UM062X) =  -95.6435639828     A.U. after   12 cycles
 SCF Done:  E(UM062X) =  -95.6435692212     A.U. after    9 cycles
 SCF Done:  E(UM062X) =  -95.6435722746     A.U. after   11 cycles
 SCF Done:  E(UM062X) =  -95.6435738034     A.U. after    9 cycles
 SCF Done:  E(UM062X) =  -95.6435740172     A.U. after   10 cycles
 Optimization completed.
    -- Stationary point found.

                          Input orientation:
 ---------------------------------------------------------------------
 Center     Atomic      Atomic             Coordinates (Angstroms)
 Number     Number       Type             X           Y           Z
 ---------------------------------------------------------------------
      1          6           0       -1.555542    0.000000    0.000000
      2          7           0        1.555542    0.000000    0.000000
      3          1           0        1.530874   -1.015906    0.139112
      4          1           0       -1.590125    1.079733    0.006513
      5          1           0        1.530876    0.367221    0.957375
      6          1           0       -1.589874   -0.522663   -0.944831
      7          1           0       -1.704770   -0.546498    0.920471
 ---------------------------------------------------------------------

 Alpha  occ. eigenvalues --  -14.75081 -10.61612  -0.90242  -0.80273  -0.52432
 Alpha  occ. eigenvalues --   -0.52229  -0.50662  -0.35985  -0.26833
 Alpha virt. eigenvalues --   -0.11723   0.01721   0.04794   0.05251   0.06904
 Alpha virt. eigenvalues --    0.10085   0.13247   0.15947   0.16740   0.17293
 Alpha virt. eigenvalues --    0.19235   0.21082   0.22229   0.29742   0.41263

  Beta  occ. eigenvalues --  -14.75081 -10.61612  -0.90242  -0.80273  -0.52432
  Beta  occ. eigenvalues --   -0.52229  -0.50662  -0.35985  -0.26833
  Beta virt. eigenvalues --   -0.11723   0.01721   0.04794   0.05251   0.06904
  Beta virt. eigenvalues --    0.10085   0.13247   0.15947   0.16740   0.17293
  Beta virt. eigenvalues --    0.19235   0.21082   0.22229   0.29742   0.41263

 Mulliken charges and spin densities:
               1          2
     1  C   -0.429522   0.000000
     2  N   -0.592367  -0.000000
     3  H    0.217685   0.000000
     4  H    0.200446  -0.000000
     5  H    0.217684   0.000000
     6  H    0.200492  -0.000000
     7  H    0.185582  -0.000000
 Sum of Mulliken charges =   0.00000  -0.00000

 Dipole moment (field-independent basis, Debye):
    X=             -2.8613    Y=             -0.9779    Z=              1.6529  Tot=              3.4461
 Quadrupole moment (field-independent basis, Debye-Ang):
   XX=            -15.2837   YY=            -13.3785   ZZ=            -14.1810
   XY=             -1.6433   XZ=              2.7776   YZ=              0.7305

 Normal termination of Gaussian 16 at Mon Apr 21 18:14:03 2025.
