 Gaussian 16, Revision A.03,
 Gaussian 16:  ES64L-G16RevA.03 25-Dec-2016

 --------------------------------------------
 #p opt UM062X/6-311+G** nosymm int=superfine
 --------------------------------------------

 -------------------
 Title Card Required
 -------------------
 Symbolic Z-matrix:
 Charge =  0 Multiplicity = 1

 SCF Done:  E(UM062X) =  -683.809315125     A.U. after    9 cycles
 SCF Done:  E(UM062X) =  -683.809764580     A.U. after    8 cycles
 SCF Done:  E(UM062X) =  -683.809788577     A.U. after    7 cycles
 Optimization completed.
    -- Stationary point found.

                          Input orientation:
 ---------------------------------------------------------------------
 Center     Atomic      Atomic             Coordinates (Angstroms)
 Number     Number       Type             X           Y           Z
 ---------------------------------------------------------------------
      1         15           0       -1.184490    0.000000    0.000000
      2         15           0        1.184490    0.000000    0.000000
      3          1           0       -1.218031   -1.420202    0.000000
      4          1           0        1.218031    1.420202    0.000000
 ---------------------------------------------------------------------

 Alpha  occ. eigenvalues --  -78.06166 -78.06166  -6.88313  -6.88308  -4.99810
 Alpha  occ. eigenvalues --   -4.99808  -4.99724  -4.99715  -4.99568  -4.99563
 Alpha  occ. eigenvalues --   -0.73476  -0.63903  -0.41520  -0.40177  -0.31946
 Alpha  occ. eigenvalues --   -0.29312
 Alpha virt. eigenvalues --   -0.10910  -0.01213   0.01794   0.03516   0.04343
 Alpha virt. eigenvalues --    0.04599   0.04767   0.06400   0.06952   0.08388
 Alpha virt. eigenvalues --    0.10647   0.13011   0.27386   0.29252   0.31484

  Beta  occ. eigenvalues --  -78.06166 -78.06166  -6.88313  -6.88308  -4.99810
  Beta  occ. eigenvalues --   -4.99808  -4.99724  -4.99715  -4.99568  -4.99563
  Beta  occ. eigenvalues --   -0.73476  -0.63903  -0.41520  -0.40177  -0.31946
  Beta  occ. eigenvalues --   -0.29312
  Beta virt. eigenvalues --   -0.10910  -0.01213   0.01794   0.03516   0.04343
  Beta virt. eigenvalues --    0.04599   0.04767   0.06400   0.06952   0.08388
  Beta virt. eigenvalues --    0.10647   0.13011   0.27386   0.29252   0.31484

 Mulliken charges and spin densities:
               1          2
     1  P    0.013531   0.000000
     2  P    0.013530  -0.000000
     3  H   -0.013531   0.000000
     4  H   -0.013531   0.000000
 Sum of Mulliken charges =  -0.00000   0.00000

 Dipole moment (field-independent basis, Debye):
    X=             -0.0000    Y=              0.0000    Z=              0.0000  Tot=              0.0000
 Quadrupole moment (field-independent basis, Debye-Ang):
   XX=            -28.8814   YY=            -27.6348   ZZ=            -29.3704
   XY=              2.5836   XZ=              0.0000   YZ=              0.0000

 Normal termination of Gaussian 16 at Mon Apr 21 21:01:01 2025.
