 Gaussian 16, Revision A.03,
 Gaussian 16:  ES64L-G16RevA.03 25-Dec-2016

 --------------------------------------------
 #p opt UM062X/6-311+G** nosymm int=superfine
 --------------------------------------------

 -------------------
 Title Card Required
 -------------------
 Symbolic Z-matrix:
 Charge =  1 Multiplicity = 2

 SCF Done:  E(UM062X) =  -579.694593177     A.U. after   18 cycles
 SCF Done:  E(UM062X) =  -579.695281306     A.U. after   17 cycles
 SCF Done:  E(UM062X) =  -579.697356806     A.U. after   17 cycles
 SCF Done:  E(UM062X) =  -579.698677067     A.U. after   16 cycles
 SCF Done:  E(UM062X) =  -579.699795145     A.U. after   21 cycles
 SCF Done:  E(UM062X) =  -579.702157912     A.U. after   19 cycles
 SCF Done:  E(UM062X) =  -579.702602946     A.U. after   18 cycles
 SCF Done:  E(UM062X) =  -579.702634309     A.U. after   16 cycles
 SCF Done:  E(UM062X) =  -579.702639378     A.U. after   11 cycles
 Optimization completed.
    -- Stationary point found.

                          Input orientation:
 ---------------------------------------------------------------------
 Center     Atomic      Atomic             Coordinates (Angstroms)
 Number     Number       Type             X           Y           Z
 ---------------------------------------------------------------------
      1         14           0       -1.477975    0.000000    0.000000
      2         14           0        1.477975    0.000000    0.000000
      3          1           0       -1.232935   -1.492771    0.002405
      4          1           0        2.964732    0.069886    0.000286
 ---------------------------------------------------------------------

 Alpha  occ. eigenvalues --  -67.28907 -67.27258  -5.83045  -5.81467  -4.14041
 Alpha  occ. eigenvalues --   -4.13872  -4.13391  -4.12876  -4.12675  -4.11994
 Alpha  occ. eigenvalues --   -0.79752  -0.75590  -0.56576  -0.53131  -0.43754
 Alpha virt. eigenvalues --   -0.29028  -0.28986  -0.26989  -0.12664  -0.10144
 Alpha virt. eigenvalues --   -0.09330  -0.08405  -0.07867  -0.06971  -0.05625
 Alpha virt. eigenvalues --   -0.05563  -0.03151  -0.00264   0.12241   0.13185

  Beta  occ. eigenvalues --  -67.28839 -67.26770  -5.83036  -5.81288  -4.13891
  Beta  occ. eigenvalues --   -4.13837  -4.13377  -4.12544  -4.11819  -4.11506
  Beta  occ. eigenvalues --   -0.77984  -0.73801  -0.55617  -0.52715
  Beta virt. eigenvalues --   -0.29680  -0.27938  -0.26252  -0.24576  -0.14294
  Beta virt. eigenvalues --   -0.10484  -0.10111  -0.08249  -0.07555  -0.07455
  Beta virt. eigenvalues --   -0.05195  -0.04264  -0.04186  -0.00457   0.11508

 Mulliken charges and spin densities:
               1          2
     1  Si   0.732750   0.162443
     2  Si   0.311304   0.858464
     3  H   -0.088410  -0.005102
     4  H    0.044357  -0.015804
 Sum of Mulliken charges =   1.00000   1.00000

 Dipole moment (field-independent basis, Debye):
    X=              0.0787    Y=             -0.4238    Z=              0.0011  Tot=              0.4311
 Quadrupole moment (field-independent basis, Debye-Ang):
   XX=             -7.7277   YY=            -23.4283   ZZ=            -23.8297
   XY=              1.2709   XZ=             -0.0018   YZ=             -0.0010

 Normal termination of Gaussian 16 at Mon Apr 21 20:38:49 2025.
