 Gaussian 16, Revision A.03,
 Gaussian 16:  ES64L-G16RevA.03 25-Dec-2016

 --------------------------------------------
 #p opt UM062X/6-311+G** nosymm int=superfine
 --------------------------------------------

 -------------------
 Title Card Required
 -------------------
 Symbolic Z-matrix:
 Charge = -1 Multiplicity = 2

 SCF Done:  E(UM062X) =  -50.5595332143     A.U. after   17 cycles
 SCF Done:  E(UM062X) =  -50.5634371181     A.U. after   16 cycles
 SCF Done:  E(UM062X) =  -50.5636767813     A.U. after   15 cycles
 Optimization completed.
    -- Stationary point found.

                          Input orientation:
 ---------------------------------------------------------------------
 Center     Atomic      Atomic             Coordinates (Angstroms)
 Number     Number       Type             X           Y           Z
 ---------------------------------------------------------------------
      1          5           0       -2.041404    0.000000    0.000000
      2          5           0        2.041404    0.000000    0.000000
      3          1           0       -3.304732   -0.000957    0.000000
      4          1           0        3.304732    0.000957    0.000000
 ---------------------------------------------------------------------

 Alpha  occ. eigenvalues --   -6.91446  -6.91446  -0.35051  -0.34923  -0.09728
 Alpha  occ. eigenvalues --   -0.07190   0.02657
 Alpha virt. eigenvalues --    0.09983   0.12286   0.13399   0.15397   0.16082
 Alpha virt. eigenvalues --    0.21458   0.21695   0.21852   0.22520   0.23127
 Alpha virt. eigenvalues --    0.25422   0.32398   0.36979   0.50109   0.56597

  Beta  occ. eigenvalues --   -6.91358  -6.91357  -0.33984  -0.33929  -0.08624
  Beta  occ. eigenvalues --   -0.06162
  Beta virt. eigenvalues --    0.10595   0.11413   0.12150   0.12561   0.13412
  Beta virt. eigenvalues --    0.13660   0.19183   0.20099   0.20357   0.21249
  Beta virt. eigenvalues --    0.21451   0.21807   0.32252   0.37052   0.49792

 Mulliken charges and spin densities:
               1          2
     1  B   -0.409881   0.512180
     2  B   -0.409881   0.512180
     3  H   -0.090119  -0.012180
     4  H   -0.090119  -0.012180
 Sum of Mulliken charges =  -1.00000   1.00000

 Dipole moment (field-independent basis, Debye):
    X=              0.0000    Y=             -0.0000    Z=              0.0000  Tot=              0.0000
 Quadrupole moment (field-independent basis, Debye-Ang):
   XX=            -39.6103   YY=            -19.0781   ZZ=            -26.4095
   XY=             -0.0010   XZ=              0.0000   YZ=             -0.0000

 Normal termination of Gaussian 16 at Mon Apr 21 17:34:03 2025.
