 Gaussian 16, Revision A.03,
 Gaussian 16:  ES64L-G16RevA.03 25-Dec-2016

 --------------------------------------------
 #p opt UM062X/6-311+G** nosymm int=superfine
 --------------------------------------------

 -------------------
 Title Card Required
 -------------------
 Symbolic Z-matrix:
 Charge =  0 Multiplicity = 1

 SCF Done:  E(UM062X) =  -151.413013236     A.U. after   14 cycles
 SCF Done:  E(UM062X) =  -151.418437163     A.U. after   14 cycles
 SCF Done:  E(UM062X) =  -151.420793392     A.U. after   16 cycles
 SCF Done:  E(UM062X) =  -151.420868905     A.U. after   13 cycles
 SCF Done:  E(UM062X) =  -151.420884477     A.U. after   13 cycles
 SCF Done:  E(UM062X) =  -151.420890602     A.U. after   13 cycles
 SCF Done:  E(UM062X) =  -151.420892421     A.U. after   12 cycles
 SCF Done:  E(UM062X) =  -151.420892466     A.U. after   10 cycles
 Optimization completed.
    -- Stationary point found.

                          Input orientation:
 ---------------------------------------------------------------------
 Center     Atomic      Atomic             Coordinates (Angstroms)
 Number     Number       Type             X           Y           Z
 ---------------------------------------------------------------------
      1          8           0       -1.111938    0.000000    0.000000
      2          8           0        1.111938    0.000000    0.000000
      3          1           0       -1.028473   -0.778667   -0.576368
      4          1           0        1.028461    0.779077    0.575809
 ---------------------------------------------------------------------

 Alpha  occ. eigenvalues --  -19.72483 -19.72480  -1.14515  -1.10671  -0.57677
 Alpha  occ. eigenvalues --   -0.55254  -0.45084  -0.43139  -0.42288
 Alpha virt. eigenvalues --   -0.18615   0.05598   0.09614   0.14737   0.16063
 Alpha virt. eigenvalues --    0.17510   0.19639   0.21598   0.23213   0.25457
 Alpha virt. eigenvalues --    0.33902   0.49196   0.53675   0.96454   0.97902

  Beta  occ. eigenvalues --  -19.72483 -19.72480  -1.14515  -1.10671  -0.57677
  Beta  occ. eigenvalues --   -0.55254  -0.45084  -0.43139  -0.42288
  Beta virt. eigenvalues --   -0.18615   0.05598   0.09614   0.14737   0.16063
  Beta virt. eigenvalues --    0.17510   0.19639   0.21598   0.23213   0.25457
  Beta virt. eigenvalues --    0.33902   0.49196   0.53675   0.96454   0.97902

 Mulliken charges and spin densities:
               1          2
     1  O   -0.272356   0.000000
     2  O   -0.272355  -0.000000
     3  H    0.272355  -0.000000
     4  H    0.272355   0.000000
 Sum of Mulliken charges =   0.00000   0.00000

 Dipole moment (field-independent basis, Debye):
    X=             -0.0000    Y=              0.0008    Z=             -0.0011  Tot=              0.0013
 Quadrupole moment (field-independent basis, Debye-Ang):
   XX=            -11.8475   YY=            -10.2603   ZZ=            -11.7827
   XY=              3.3402   XZ=              2.4705   YZ=              2.4862

 Normal termination of Gaussian 16 at Mon Apr 21 21:36:01 2025.
