 Gaussian 16, Revision A.03,
 Gaussian 16:  ES64L-G16RevA.03 25-Dec-2016

 --------------------------------------------
 #p opt UM062X/6-311+G** nosymm int=superfine
 --------------------------------------------

 -------------------
 Title Card Required
 -------------------
 Symbolic Z-matrix:
 Charge =  0 Multiplicity = 1

 SCF Done:  E(UM062X) =  -151.437037078     A.U. after   14 cycles
 SCF Done:  E(UM062X) =  -151.442820687     A.U. after   16 cycles
 SCF Done:  E(UM062X) =  -151.444348121     A.U. after   15 cycles
 SCF Done:  E(UM062X) =  -151.444406655     A.U. after   12 cycles
 SCF Done:  E(UM062X) =  -151.444413212     A.U. after   11 cycles
 SCF Done:  E(UM062X) =  -151.444420619     A.U. after   12 cycles
 SCF Done:  E(UM062X) =  -151.444421850     A.U. after   11 cycles
 SCF Done:  E(UM062X) =  -151.444422746     A.U. after   11 cycles
 SCF Done:  E(UM062X) =  -151.444422849     A.U. after   11 cycles
 SCF Done:  E(UM062X) =  -151.444422852     A.U. after   10 cycles
 Optimization completed.
    -- Stationary point found.

                          Input orientation:
 ---------------------------------------------------------------------
 Center     Atomic      Atomic             Coordinates (Angstroms)
 Number     Number       Type             X           Y           Z
 ---------------------------------------------------------------------
      1          8           0       -1.036938    0.000000    0.000000
      2          8           0        1.036938    0.000000    0.000000
      3          1           0       -0.986297   -0.780275   -0.576358
      4          1           0        0.986428    0.780312    0.576318
 ---------------------------------------------------------------------

 Alpha  occ. eigenvalues --  -19.72202 -19.72198  -1.15283  -1.09805  -0.57964
 Alpha  occ. eigenvalues --   -0.54885  -0.45433  -0.44531  -0.41583
 Alpha virt. eigenvalues --   -0.16094   0.05600   0.09855   0.14792   0.16278
 Alpha virt. eigenvalues --    0.17467   0.19770   0.21760   0.23674   0.25414
 Alpha virt. eigenvalues --    0.34463   0.49196   0.53943   0.95481   0.99758

  Beta  occ. eigenvalues --  -19.72202 -19.72198  -1.15283  -1.09805  -0.57964
  Beta  occ. eigenvalues --   -0.54885  -0.45433  -0.44531  -0.41583
  Beta virt. eigenvalues --   -0.16094   0.05600   0.09855   0.14792   0.16278
  Beta virt. eigenvalues --    0.17467   0.19770   0.21760   0.23674   0.25414
  Beta virt. eigenvalues --    0.34463   0.49196   0.53943   0.95481   0.99758

 Mulliken charges and spin densities:
               1          2
     1  O   -0.272144   0.000000
     2  O   -0.272168  -0.000000
     3  H    0.272157  -0.000000
     4  H    0.272156   0.000000
 Sum of Mulliken charges =  -0.00000  -0.00000

 Dipole moment (field-independent basis, Debye):
    X=              0.0002    Y=              0.0001    Z=             -0.0001  Tot=              0.0002
 Quadrupole moment (field-independent basis, Debye-Ang):
   XX=            -11.7919   YY=            -10.2073   ZZ=            -11.7399
   XY=              3.2268   XZ=              2.3833   YZ=              2.4909

 Normal termination of Gaussian 16 at Mon Apr 21 21:35:14 2025.
