 Gaussian 16, Revision A.03,
 Gaussian 16:  ES64L-G16RevA.03 25-Dec-2016

 --------------------------------------------
 #p opt UM062X/6-311+G** nosymm int=superfine
 --------------------------------------------

 -------------------
 Title Card Required
 -------------------
 Symbolic Z-matrix:
 Charge =  0 Multiplicity = 1

 SCF Done:  E(UM062X) =  -115.435370803     A.U. after   54 cycles
 SCF Done:  E(UM062X) =  -115.451609438     A.U. after   12 cycles
 SCF Done:  E(UM062X) =  -115.461717290     A.U. after   14 cycles
 SCF Done:  E(UM062X) =  -115.461829212     A.U. after   12 cycles
 SCF Done:  E(UM062X) =  -115.461867391     A.U. after   14 cycles
 SCF Done:  E(UM062X) =  -115.462005220     A.U. after   16 cycles
 SCF Done:  E(UM062X) =  -115.462030105     A.U. after   15 cycles
 SCF Done:  E(UM062X) =  -115.462032567     A.U. after   10 cycles
 Optimization completed.
    -- Stationary point found.

                          Input orientation:
 ---------------------------------------------------------------------
 Center     Atomic      Atomic             Coordinates (Angstroms)
 Number     Number       Type             X           Y           Z
 ---------------------------------------------------------------------
      1          6           0       -1.982203    0.000000    0.000000
      2          8           0        1.982203    0.000000    0.000000
      3          1           0        2.059420   -0.962728    0.000648
      4          1           0       -2.046094   -0.534919    0.937783
      5          1           0       -1.876402    1.076399   -0.000633
      6          1           0       -2.045989   -0.536025   -0.937158
 ---------------------------------------------------------------------

 Alpha  occ. eigenvalues --  -19.58242 -10.67242  -1.00713  -0.85216  -0.57294
 Alpha  occ. eigenvalues --   -0.57132  -0.45245  -0.32208  -0.27047
 Alpha virt. eigenvalues --   -0.18051   0.00262   0.03535   0.03748   0.06919
 Alpha virt. eigenvalues --    0.13041   0.14443   0.14591   0.18485   0.22636
 Alpha virt. eigenvalues --    0.23076   0.25004   0.28578   0.38817   0.39003

  Beta  occ. eigenvalues --  -19.58242 -10.67242  -1.00713  -0.85216  -0.57294
  Beta  occ. eigenvalues --   -0.57132  -0.45245  -0.32208  -0.27047
  Beta virt. eigenvalues --   -0.18051   0.00262   0.03535   0.03748   0.06919
  Beta virt. eigenvalues --    0.13041   0.14443   0.14591   0.18485   0.22636
  Beta virt. eigenvalues --    0.23076   0.25004   0.28578   0.38817   0.39003

 Mulliken charges and spin densities:
               1          2
     1  C   -0.291048   0.000002
     2  O   -0.561205  -0.000002
     3  H    0.213710  -0.000000
     4  H    0.209490  -0.000000
     5  H    0.219560  -0.000000
     6  H    0.209493  -0.000000
 Sum of Mulliken charges =  -0.00000  -0.00000

 Dipole moment (field-independent basis, Debye):
    X=             -6.6446    Y=             -1.5911    Z=              0.0011  Tot=              6.8325
 Quadrupole moment (field-independent basis, Debye-Ang):
   XX=            -13.0829   YY=            -11.5105   ZZ=            -13.9221
   XY=             -3.3548   XZ=              0.0022   YZ=             -0.0016

 Normal termination of Gaussian 16 at Mon Apr 21 18:46:25 2025.
