 Gaussian 16, Revision A.03,
 Gaussian 16:  ES64L-G16RevA.03 25-Dec-2016

 --------------------------------------------
 #p opt UM062X/6-311+G** nosymm int=superfine
 --------------------------------------------

 -------------------
 Title Card Required
 -------------------
 Symbolic Z-matrix:
 Charge =  1 Multiplicity = 2

 SCF Done:  E(UM062X) =  -582.133378157     A.U. after   11 cycles
 SCF Done:  E(UM062X) =  -582.134179097     A.U. after    9 cycles
 SCF Done:  E(UM062X) =  -582.134414973     A.U. after    9 cycles
 SCF Done:  E(UM062X) =  -582.134415609     A.U. after    8 cycles
 Optimization completed.
    -- Stationary point found.

                          Input orientation:
 ---------------------------------------------------------------------
 Center     Atomic      Atomic             Coordinates (Angstroms)
 Number     Number       Type             X           Y           Z
 ---------------------------------------------------------------------
      1         14           0       -2.426292    0.000000    0.000000
      2         14           0        2.426292    0.000000    0.000000
      3          1           0        2.534440   -1.460357   -0.000009
      4          1           0       -2.533712   -0.730048    1.264840
      5          1           0        2.534234    0.730209   -1.264702
      6          1           0        2.533508    0.730134    1.264808
      7          1           0       -2.534466    1.460355   -0.000133
      8          1           0       -2.534004   -0.730298   -1.264671
 ---------------------------------------------------------------------

 Alpha  occ. eigenvalues --  -67.22215 -67.22215  -5.77060  -5.77059  -4.08746
 Alpha  occ. eigenvalues --   -4.08746  -4.07932  -4.07932  -4.07932  -4.07932
 Alpha  occ. eigenvalues --   -0.80750  -0.80461  -0.61162  -0.61161  -0.61104
 Alpha  occ. eigenvalues --   -0.61102  -0.39634
 Alpha virt. eigenvalues --   -0.30142  -0.11836  -0.11628  -0.09931  -0.09299
 Alpha virt. eigenvalues --   -0.09299  -0.08122  -0.08122  -0.07597  -0.07156
 Alpha virt. eigenvalues --   -0.07154  -0.06062  -0.06058  -0.04802   0.00514

  Beta  occ. eigenvalues --  -67.21942 -67.21942  -5.76978  -5.76977  -4.08108
  Beta  occ. eigenvalues --   -4.08108  -4.07838  -4.07838  -4.07838  -4.07838
  Beta  occ. eigenvalues --   -0.79027  -0.78870  -0.61062  -0.61061  -0.60996
  Beta  occ. eigenvalues --   -0.60995
  Beta virt. eigenvalues --   -0.32378  -0.23359  -0.15858  -0.12339  -0.12338
  Beta virt. eigenvalues --   -0.10744  -0.10514  -0.08652  -0.08651  -0.07384
  Beta virt. eigenvalues --   -0.06707  -0.06707  -0.05659  -0.05659  -0.05646

 Mulliken charges and spin densities:
               1          2
     1  Si   0.506735   0.555097
     2  Si   0.506735   0.555097
     3  H   -0.002231  -0.018354
     4  H   -0.002254  -0.018370
     5  H   -0.002248  -0.018373
     6  H   -0.002256  -0.018369
     7  H   -0.002231  -0.018354
     8  H   -0.002251  -0.018372
 Sum of Mulliken charges =   1.00000   1.00000

 Dipole moment (field-independent basis, Debye):
    X=             -0.0000    Y=             -0.0000    Z=              0.0001  Tot=              0.0001
 Quadrupole moment (field-independent basis, Debye-Ang):
   XX=              7.7375   YY=            -26.2474   ZZ=            -26.2473
   XY=              0.0007   XZ=              0.0001   YZ=             -0.0000

 Normal termination of Gaussian 16 at Mon Apr 21 20:17:23 2025.
