 Gaussian 16, Revision A.03,
 Gaussian 16:  ES64L-G16RevA.03 25-Dec-2016

 --------------------------------------------
 #p opt UM062X/6-311+G** nosymm int=superfine
 --------------------------------------------

 -------------------
 Title Card Required
 -------------------
 Symbolic Z-matrix:
 Charge =  1 Multiplicity = 2

 SCF Done:  E(UM062X) =  -80.3458660210     A.U. after   13 cycles
 SCF Done:  E(UM062X) =  -80.3458848341     A.U. after   10 cycles
 SCF Done:  E(UM062X) =  -80.3458843824     A.U. after    8 cycles
 SCF Done:  E(UM062X) =  -80.3458848777     A.U. after    8 cycles
 Optimization completed.
    -- Stationary point found.

                          Input orientation:
 ---------------------------------------------------------------------
 Center     Atomic      Atomic             Coordinates (Angstroms)
 Number     Number       Type             X           Y           Z
 ---------------------------------------------------------------------
      1          5           0       -0.752734    0.000000    0.000000
      2          7           0        0.752734    0.000000    0.000000
      3          1           0       -1.925784   -0.000098   -0.000000
      4          1           0        1.773950    0.000217   -0.000000
 ---------------------------------------------------------------------

 Alpha  occ. eigenvalues --  -15.10961  -7.48453  -1.24956  -0.92896  -0.82062
 Alpha  occ. eigenvalues --   -0.71308  -0.67071
 Alpha virt. eigenvalues --   -0.28929  -0.27715  -0.20313  -0.13814  -0.10871
 Alpha virt. eigenvalues --   -0.10464  -0.10031  -0.08648  -0.01804  -0.01440
 Alpha virt. eigenvalues --    0.03109   0.06223   0.11401   0.17748   0.17996

  Beta  occ. eigenvalues --  -15.09945  -7.48501  -1.18342  -0.90921  -0.81750
  Beta  occ. eigenvalues --   -0.63896
  Beta virt. eigenvalues --   -0.41471  -0.27167  -0.23893  -0.19679  -0.13669
  Beta virt. eigenvalues --   -0.10832  -0.10047  -0.09803  -0.08492  -0.01629
  Beta virt. eigenvalues --   -0.01393   0.01666   0.06469   0.11893   0.16628

 Mulliken charges and spin densities:
               1          2
     1  B    0.561494   0.056535
     2  N   -0.165325   0.983988
     3  H    0.196659  -0.009504
     4  H    0.407172  -0.031019
 Sum of Mulliken charges =   1.00000   1.00000

 Dipole moment (field-independent basis, Debye):
    X=             -0.8465    Y=              0.0004    Z=              0.0000  Tot=              0.8465
 Quadrupole moment (field-independent basis, Debye-Ang):
   XX=              0.0675   YY=             -9.5251   ZZ=            -11.3436
   XY=              0.0008   XZ=              0.0000   YZ=             -0.0006

 Normal termination of Gaussian 16 at Mon Apr 21 17:55:39 2025.
