 Gaussian 16, Revision A.03,
 Gaussian 16:  ES64L-G16RevA.03 25-Dec-2016

 ----------------------------------------------------------------------
 #p opt UM062X/6-311+G** nosymm int=superfine SCF=(MaxCycle=200,NoVarAc
 c,noincfock) guess=read
 ----------------------------------------------------------------------

 -------------------
 Title Card Required
 -------------------
 Symbolic Z-matrix:
 Charge =  0 Multiplicity = 1

 SCF Done:  E(UM062X) =  -151.331786241     A.U. after   18 cycles
 SCF Done:  E(UM062X) =  -151.333309968     A.U. after   18 cycles
 SCF Done:  E(UM062X) =  -151.336294664     A.U. after   16 cycles
 SCF Done:  E(UM062X) =  -151.336910689     A.U. after   26 cycles
 SCF Done:  E(UM062X) =  -151.337044001     A.U. after   23 cycles
 SCF Done:  E(UM062X) =  -151.337059382     A.U. after   17 cycles
 SCF Done:  E(UM062X) =  -151.337060007     A.U. after   16 cycles
 Optimization completed.
    -- Stationary point found.

                          Input orientation:
 ---------------------------------------------------------------------
 Center     Atomic      Atomic             Coordinates (Angstroms)
 Number     Number       Type             X           Y           Z
 ---------------------------------------------------------------------
      1          8           0       -1.536938    0.000000    0.000000
      2          8           0        1.536938    0.000000    0.000000
      3          1           0       -1.340672   -0.772812   -0.559480
      4          1           0        1.340741    0.771752    0.560970
 ---------------------------------------------------------------------

 Alpha  occ. eigenvalues --  -19.72704 -19.72702  -1.13240  -1.12657  -0.57032
 Alpha  occ. eigenvalues --   -0.56563  -0.44465  -0.43958  -0.37956
 Alpha virt. eigenvalues --   -0.25440   0.05257   0.08245   0.14763   0.15060
 Alpha virt. eigenvalues --    0.17676   0.18931   0.20626   0.21342   0.22765
 Alpha virt. eigenvalues --    0.31413   0.48592   0.52534   0.99476   0.99736

  Beta  occ. eigenvalues --  -19.72704 -19.72702  -1.13240  -1.12657  -0.57032
  Beta  occ. eigenvalues --   -0.56563  -0.44465  -0.43958  -0.37956
  Beta virt. eigenvalues --   -0.25440   0.05257   0.08245   0.14763   0.15060
  Beta virt. eigenvalues --    0.17676   0.18931   0.20626   0.21342   0.22765
  Beta virt. eigenvalues --    0.31413   0.48592   0.52534   0.99476   0.99736

 Mulliken charges and spin densities:
               1          2
     1  O   -0.269072  -0.000000
     2  O   -0.269079   0.000000
     3  H    0.269076   0.000000
     4  H    0.269075  -0.000000
 Sum of Mulliken charges =  -0.00000   0.00000

 Dipole moment (field-independent basis, Debye):
    X=              0.0001    Y=             -0.0021    Z=              0.0029  Tot=              0.0036
 Quadrupole moment (field-independent basis, Debye-Ang):
   XX=            -12.8928   YY=            -10.4335   ZZ=            -12.0053
   XY=              4.2798   XZ=              3.1047   YZ=              2.4066

 Normal termination of Gaussian 16 at Tue Apr 22 00:12:18 2025.
