 Gaussian 16, Revision A.03,
 Gaussian 16:  ES64L-G16RevA.03 25-Dec-2016

 --------------------------------------------
 #p opt UM062X/6-311+G** nosymm int=superfine
 --------------------------------------------

 -------------------
 Title Card Required
 -------------------
 Symbolic Z-matrix:
 Charge =  1 Multiplicity = 2

 SCF Done:  E(UM062X) =  -582.157251190     A.U. after   11 cycles
 SCF Done:  E(UM062X) =  -582.157632972     A.U. after    9 cycles
 SCF Done:  E(UM062X) =  -582.157673036     A.U. after    8 cycles
 Optimization completed.
    -- Stationary point found.

                          Input orientation:
 ---------------------------------------------------------------------
 Center     Atomic      Atomic             Coordinates (Angstroms)
 Number     Number       Type             X           Y           Z
 ---------------------------------------------------------------------
      1         14           0       -1.826292    0.000000    0.000000
      2         14           0        1.826292    0.000000    0.000000
      3          1           0        1.976317   -1.457219    0.000001
      4          1           0       -1.976048   -0.728495    1.262079
      5          1           0        1.976539    0.728638   -1.261937
      6          1           0        1.975881    0.728587    1.262047
      7          1           0       -1.976342    1.457216   -0.000107
      8          1           0       -1.976347   -0.728735   -1.261905
 ---------------------------------------------------------------------

 Alpha  occ. eigenvalues --  -67.23429 -67.23428  -5.78256  -5.78255  -4.09936
 Alpha  occ. eigenvalues --   -4.09936  -4.09130  -4.09130  -4.09130  -4.09130
 Alpha  occ. eigenvalues --   -0.82579  -0.81247  -0.62524  -0.62523  -0.62046
 Alpha  occ. eigenvalues --   -0.62045  -0.45384
 Alpha virt. eigenvalues --   -0.27435  -0.13839  -0.12018  -0.10870  -0.10869
 Alpha virt. eigenvalues --   -0.09883  -0.09621  -0.09621  -0.08144  -0.08144
 Alpha virt. eigenvalues --   -0.07838  -0.06401  -0.06400  -0.04120   0.00832

  Beta  occ. eigenvalues --  -67.23170 -67.23170  -5.78183  -5.78181  -4.09319
  Beta  occ. eigenvalues --   -4.09319  -4.09042  -4.09042  -4.09042  -4.09042
  Beta  occ. eigenvalues --   -0.80508  -0.79756  -0.62289  -0.62289  -0.61855
  Beta  occ. eigenvalues --   -0.61855
  Beta virt. eigenvalues --   -0.29771  -0.21731  -0.14417  -0.12165  -0.12164
  Beta virt. eigenvalues --   -0.11015  -0.09974  -0.09974  -0.09949  -0.07617
  Beta virt. eigenvalues --   -0.07616  -0.06691  -0.06135  -0.06135  -0.04198

 Mulliken charges and spin densities:
               1          2
     1  Si   0.498418   0.551188
     2  Si   0.498418   0.551188
     3  H    0.000528  -0.017068
     4  H    0.000523  -0.017059
     5  H    0.000535  -0.017063
     6  H    0.000518  -0.017057
     7  H    0.000529  -0.017068
     8  H    0.000530  -0.017060
 Sum of Mulliken charges =   1.00000   1.00000

 Dipole moment (field-independent basis, Debye):
    X=              0.0000    Y=             -0.0000    Z=              0.0000  Tot=              0.0000
 Quadrupole moment (field-independent basis, Debye-Ang):
   XX=             -4.7379   YY=            -26.0314   ZZ=            -26.0314
   XY=              0.0001   XZ=              0.0000   YZ=              0.0000

 Normal termination of Gaussian 16 at Mon Apr 21 20:13:46 2025.
