 Gaussian 16, Revision A.03,
 Gaussian 16:  ES64L-G16RevA.03 25-Dec-2016

 ---------------------------------------------------
 #p UM062X/6-311+G** force int=superfine pop=saveNBO
 ---------------------------------------------------

 -------------------
 Title Card Required
 -------------------
 Symbolic Z-matrix:
 Charge =  0 Multiplicity = 1

                         Standard orientation:
 ---------------------------------------------------------------------
 Center     Atomic      Atomic             Coordinates (Angstroms)
 Number     Number       Type             X           Y           Z
 ---------------------------------------------------------------------
      1          8           0        0.000000    0.000000   -1.193424
      2         16           0        0.000000    0.000000    0.596712
 ---------------------------------------------------------------------

 SCF Done:  E(UM062X) =  -473.239614908     A.U. after   12 cycles

 Unable to determine electronic state:  an orbital has unidentified symmetry.
 Alpha  occ. eigenvalues --  -90.01914 -19.73132  -8.37551  -6.29699  -6.29546
 Alpha  occ. eigenvalues --   -6.28709  -1.10464  -0.78601  -0.48753  -0.46434
 Alpha  occ. eigenvalues --   -0.43466  -0.33183
 Alpha virt. eigenvalues --   -0.17870  -0.03643   0.02345   0.04566   0.05262
 Alpha virt. eigenvalues --    0.06988   0.18900   0.20845   0.21247   0.27560
 Alpha virt. eigenvalues --    0.33065   0.33974   0.34005   0.61981   0.73552

  Beta  occ. eigenvalues --  -90.01914 -19.73132  -8.37551  -6.29699  -6.29546
  Beta  occ. eigenvalues --   -6.28709  -1.10464  -0.78601  -0.48753  -0.46434
  Beta  occ. eigenvalues --   -0.43466  -0.33183
  Beta virt. eigenvalues --   -0.17870  -0.03643   0.02345   0.04566   0.05262
  Beta virt. eigenvalues --    0.06988   0.18900   0.20845   0.21247   0.27560
  Beta virt. eigenvalues --    0.33065   0.33974   0.34005   0.61981   0.73552

 Mulliken charges and spin densities:
               1          2
     1  O   -0.245771  -0.000000
     2  S    0.245771   0.000000
 Sum of Mulliken charges =   0.00000  -0.00000

 Dipole moment (field-independent basis, Debye):
    X=              0.0000    Y=              0.0000    Z=              2.3116  Tot=              2.3116
 Quadrupole moment (field-independent basis, Debye-Ang):
   XX=            -16.4243   YY=            -20.1945   ZZ=            -18.7625
   XY=              0.0000   XZ=              0.0000   YZ=              0.0000

 Summary of Natural Population Analysis:

                                       Natural Population
                Natural  -----------------------------------------------
    Atom  No    Charge         Core      Valence    Rydberg      Total
 -----------------------------------------------------------------------
      O    1   -0.24192      0.99999     3.23876    0.00317     4.24192
      S    2    0.24192      4.99991     2.74053    0.01764     7.75808
 =======================================================================
   * Total *   -0.00000      5.99990     5.97929    0.02081    12.00000

 Normal termination of Gaussian 16 at Mon Apr 21 19:57:28 2025.
