 Gaussian 16, Revision A.03,
 Gaussian 16:  ES64L-G16RevA.03 25-Dec-2016

 ---------------------------------------------------------
 #p opt UM062X/6-311+G** nosymm int=superfine SCF=NoVarAcc
 ---------------------------------------------------------

 -------------------
 Title Card Required
 -------------------
 Symbolic Z-matrix:
 Charge =  1 Multiplicity = 2

 SCF Done:  E(UM062X) =  -77.9092236219     A.U. after   10 cycles
 SCF Done:  E(UM062X) =  -77.9132416957     A.U. after    9 cycles
 SCF Done:  E(UM062X) =  -77.9157747782     A.U. after    9 cycles
 SCF Done:  E(UM062X) =  -77.9157781580     A.U. after    7 cycles
 Optimization completed.
    -- Stationary point found.

                          Input orientation:
 ---------------------------------------------------------------------
 Center     Atomic      Atomic             Coordinates (Angstroms)
 Number     Number       Type             X           Y           Z
 ---------------------------------------------------------------------
      1          6           0       -1.781027    0.000000    0.000000
      2          6           0        1.781027    0.000000    0.000000
      3          1           0       -2.339040   -0.942430    0.000000
      4          1           0       -2.338986    0.942461    0.000000
      5          1           0        2.339040    0.942430    0.000000
      6          1           0        2.338986   -0.942461    0.000000
 ---------------------------------------------------------------------

 Alpha  occ. eigenvalues --  -10.88930 -10.88930  -1.00220  -1.00064  -0.74877
 Alpha  occ. eigenvalues --   -0.74795  -0.59075  -0.56495
 Alpha virt. eigenvalues --   -0.32253  -0.31644  -0.12928  -0.10919  -0.09385
 Alpha virt. eigenvalues --   -0.07389  -0.06629  -0.05380  -0.04387  -0.01738
 Alpha virt. eigenvalues --   -0.00693   0.00032   0.02068   0.06294   0.26469

  Beta  occ. eigenvalues --  -10.88104 -10.88102  -0.98022  -0.97725  -0.73845
  Beta  occ. eigenvalues --   -0.73747  -0.48402
  Beta virt. eigenvalues --   -0.35224  -0.30395  -0.29624  -0.12730  -0.11009
  Beta virt. eigenvalues --   -0.09220  -0.07171  -0.06653  -0.04583  -0.03821
  Beta virt. eigenvalues --   -0.01460  -0.00067   0.00430   0.02148   0.07049

 Mulliken charges and spin densities:
               1          2
     1  C    0.019618   0.486121
     2  C    0.019618   0.486121
     3  H    0.240191   0.006940
     4  H    0.240190   0.006939
     5  H    0.240191   0.006940
     6  H    0.240190   0.006939
 Sum of Mulliken charges =   1.00000   1.00000

 Dipole moment (field-independent basis, Debye):
    X=              0.0000    Y=              0.0000    Z=              0.0000  Tot=              0.0000
 Quadrupole moment (field-independent basis, Debye-Ang):
   XX=             14.7031   YY=             -9.4255   ZZ=            -10.7403
   XY=             -0.0000   XZ=             -0.0000   YZ=             -0.0000

 Normal termination of Gaussian 16 at Tue Dec  3 13:30:18 2024.
