 Gaussian 16, Revision A.03,
 Gaussian 16:  ES64L-G16RevA.03 25-Dec-2016

 --------------------------------------------
 #p opt UM062X/6-311+G** nosymm int=superfine
 --------------------------------------------

 -------------------
 Title Card Required
 -------------------
 Symbolic Z-matrix:
 Charge =  0 Multiplicity = 1

 SCF Done:  E(UM062X) =  -382.226392677     A.U. after   16 cycles
 SCF Done:  E(UM062X) =  -382.237050598     A.U. after   12 cycles
 SCF Done:  E(UM062X) =  -382.243711553     A.U. after   13 cycles
 SCF Done:  E(UM062X) =  -382.243834125     A.U. after   10 cycles
 SCF Done:  E(UM062X) =  -382.243894051     A.U. after   11 cycles
 SCF Done:  E(UM062X) =  -382.243962681     A.U. after   12 cycles
 SCF Done:  E(UM062X) =  -382.243990026     A.U. after   12 cycles
 SCF Done:  E(UM062X) =  -382.243993614     A.U. after    9 cycles
 SCF Done:  E(UM062X) =  -382.243994402     A.U. after   10 cycles
 SCF Done:  E(UM062X) =  -382.243995475     A.U. after    9 cycles
 SCF Done:  E(UM062X) =  -382.243996302     A.U. after   10 cycles
 SCF Done:  E(UM062X) =  -382.243996659     A.U. after    8 cycles
 Optimization completed.
    -- Stationary point found.

                          Input orientation:
 ---------------------------------------------------------------------
 Center     Atomic      Atomic             Coordinates (Angstroms)
 Number     Number       Type             X           Y           Z
 ---------------------------------------------------------------------
      1          6           0       -2.156264    0.000000    0.000000
      2         15           0        2.156264    0.000000    0.000000
      3          1           0        2.075339   -1.417113    0.023181
      4          1           0       -2.176616    1.054224    0.234464
      5          1           0        2.074819    0.073227    1.415351
      6          1           0       -2.176682   -0.322870   -1.030592
      7          1           0       -2.215520   -0.729758    0.794373
 ---------------------------------------------------------------------

 Alpha  occ. eigenvalues --  -78.03010 -10.59804  -6.85431  -4.96954  -4.96879
 Alpha  occ. eigenvalues --   -4.96698  -0.79183  -0.69367  -0.51378  -0.51346
 Alpha  occ. eigenvalues --   -0.43532  -0.34630  -0.22902
 Alpha virt. eigenvalues --   -0.13707   0.02118   0.03775   0.03976   0.04497
 Alpha virt. eigenvalues --    0.06144   0.06616   0.07226   0.07348   0.11042
 Alpha virt. eigenvalues --    0.16518   0.18008   0.18063   0.22607   0.30531

  Beta  occ. eigenvalues --  -78.03010 -10.59804  -6.85431  -4.96954  -4.96879
  Beta  occ. eigenvalues --   -4.96698  -0.79183  -0.69367  -0.51378  -0.51346
  Beta  occ. eigenvalues --   -0.43532  -0.34630  -0.22902
  Beta virt. eigenvalues --   -0.13707   0.02118   0.03775   0.03976   0.04497
  Beta virt. eigenvalues --    0.06144   0.06616   0.07226   0.07348   0.11042
  Beta virt. eigenvalues --    0.16518   0.18008   0.18063   0.22607   0.30531

 Mulliken charges and spin densities:
               1          2
     1  C   -0.487861  -0.000001
     2  P   -0.048803   0.000001
     3  H   -0.008016  -0.000000
     4  H    0.185023   0.000000
     5  H   -0.008016  -0.000000
     6  H    0.184992   0.000000
     7  H    0.182681   0.000000
 Sum of Mulliken charges =  -0.00000  -0.00000

 Dipole moment (field-independent basis, Debye):
    X=             -1.7721    Y=             -0.5796    Z=              0.6204  Tot=              1.9650
 Quadrupole moment (field-independent basis, Debye-Ang):
   XX=            -22.5270   YY=            -22.4388   ZZ=            -22.5350
   XY=             -1.3416   XZ=              1.4352   YZ=              0.7052

 Normal termination of Gaussian 16 at Mon Apr 21 19:10:09 2025.
