 Gaussian 16, Revision A.03,
 Gaussian 16:  ES64L-G16RevA.03 25-Dec-2016

 ---------------------------------------------------------
 #p opt UM062X/6-311+G** nosymm int=superfine SCF=NoVarAcc
 ---------------------------------------------------------

 -------------------
 Title Card Required
 -------------------
 Symbolic Z-matrix:
 Charge =  0 Multiplicity = 1

 SCF Done:  E(UM062X) =  -78.2065132804     A.U. after    9 cycles
 SCF Done:  E(UM062X) =  -78.2230712148     A.U. after    9 cycles
 SCF Done:  E(UM062X) =  -78.2373835692     A.U. after    8 cycles
 SCF Done:  E(UM062X) =  -78.2376479056     A.U. after    8 cycles
 Optimization completed.
    -- Stationary point found.

                          Input orientation:
 ---------------------------------------------------------------------
 Center     Atomic      Atomic             Coordinates (Angstroms)
 Number     Number       Type             X           Y           Z
 ---------------------------------------------------------------------
      1          6           0       -6.535595    0.000000    0.000000
      2          6           0        6.535595    0.000000    0.000000
      3          1           0       -7.234115   -0.861053   -0.000000
      4          1           0       -7.234086    0.861069    0.000000
      5          1           0        7.234115    0.861053    0.000000
      6          1           0        7.234086   -0.861069    0.000000
 ---------------------------------------------------------------------

 Alpha  occ. eigenvalues --  -10.60795 -10.60795  -0.75720  -0.75720  -0.47602
 Alpha  occ. eigenvalues --   -0.47602  -0.31419  -0.31419
 Alpha virt. eigenvalues --   -0.08238  -0.08238   0.02381   0.02381   0.06623
 Alpha virt. eigenvalues --    0.06623   0.08565   0.08566   0.09222   0.09229
 Alpha virt. eigenvalues --    0.17639   0.17639   0.19512   0.19512   0.44142

  Beta  occ. eigenvalues --  -10.60795 -10.60795  -0.75720  -0.75720  -0.47602
  Beta  occ. eigenvalues --   -0.47602  -0.31419  -0.31419
  Beta virt. eigenvalues --   -0.08238  -0.08238   0.02381   0.02381   0.06623
  Beta virt. eigenvalues --    0.06623   0.08565   0.08566   0.09222   0.09229
  Beta virt. eigenvalues --    0.17639   0.17639   0.19512   0.19512   0.44142

 Mulliken charges and spin densities:
               1          2
     1  C   -0.254548  -0.000000
     2  C   -0.254548  -0.000000
     3  H    0.127273  -0.000000
     4  H    0.127274  -0.000000
     5  H    0.127273   0.000000
     6  H    0.127274  -0.000000
 Sum of Mulliken charges =  -0.00000  -0.00000

 Dipole moment (field-independent basis, Debye):
    X=              0.0000    Y=              0.0000    Z=              0.0000  Tot=              0.0000
 Quadrupole moment (field-independent basis, Debye-Ang):
   XX=             36.3981   YY=            -14.4544   ZZ=            -12.8726
   XY=             -0.0004   XZ=              0.0000   YZ=              0.0000

 Normal termination of Gaussian 16 at Tue Dec  3 17:41:16 2024.
