 Gaussian 16, Revision A.03,
 Gaussian 16:  ES64L-G16RevA.03 25-Dec-2016

 ---------------------------------------------------
 #p UM062X/6-311+G** force int=superfine pop=saveNBO
 ---------------------------------------------------

 -------------------
 Title Card Required
 -------------------
 Symbolic Z-matrix:
 Charge =  0 Multiplicity = 1

                         Standard orientation:
 ---------------------------------------------------------------------
 Center     Atomic      Atomic             Coordinates (Angstroms)
 Number     Number       Type             X           Y           Z
 ---------------------------------------------------------------------
      1          6           0        0.000000    0.000000   -1.898379
      2          8           0        0.000000    0.000000    1.423785
 ---------------------------------------------------------------------

 SCF Done:  E(UM062X) =  -112.658654632     A.U. after   41 cycles

 The electronic state is 1-SG.
 Alpha  occ. eigenvalues --  -19.69602 -10.84114  -0.99378  -0.72788  -0.38108
 Alpha  occ. eigenvalues --   -0.31128  -0.31128
 Alpha virt. eigenvalues --   -0.22180  -0.22180  -0.18438   0.02321   0.06155
 Alpha virt. eigenvalues --    0.06155   0.07225   0.19130   0.21430   0.21430
 Alpha virt. eigenvalues --    0.25881   0.50642   0.50642   0.51575   0.60669

  Beta  occ. eigenvalues --  -19.69602 -10.84114  -0.99378  -0.72788  -0.38108
  Beta  occ. eigenvalues --   -0.31128  -0.31128
  Beta virt. eigenvalues --   -0.22180  -0.22180  -0.18438   0.02321   0.06155
  Beta virt. eigenvalues --    0.06155   0.07225   0.19130   0.21430   0.21430
  Beta virt. eigenvalues --    0.25881   0.50642   0.50642   0.51575   0.60669

 Mulliken charges and spin densities:
               1          2
     1  C    0.321433  -0.000000
     2  O   -0.321433   0.000000
 Sum of Mulliken charges =  -0.00000  -0.00000

 Dipole moment (field-independent basis, Debye):
    X=              0.0000    Y=              0.0000    Z=             -5.0702  Tot=              5.0702
 Quadrupole moment (field-independent basis, Debye-Ang):
   XX=            -12.4103   YY=            -12.4103   ZZ=             -8.3232
   XY=              0.0000   XZ=              0.0000   YZ=              0.0000

 Summary of Natural Population Analysis:

                                       Natural Population
                Natural  -----------------------------------------------
    Atom  No    Charge         Core      Valence    Rydberg      Total
 -----------------------------------------------------------------------
      C    1    0.17306      1.00000     1.82677    0.00017     2.82694
      O    2   -0.17306      1.00000     3.17214    0.00092     4.17306
 =======================================================================
   * Total *   -0.00000      2.00000     4.99891    0.00110     7.00000

 Normal termination of Gaussian 16 at Mon Apr 21 19:26:12 2025.
