 Gaussian 16, Revision A.03,
 Gaussian 16:  ES64L-G16RevA.03 25-Dec-2016

 --------------------------------------------
 #p opt UM062X/6-311+G** nosymm int=superfine
 --------------------------------------------

 -------------------
 Title Card Required
 -------------------
 Symbolic Z-matrix:
 Charge =  0 Multiplicity = 1

 SCF Done:  E(UM062X) =  -51.8442215037     A.U. after    9 cycles
 SCF Done:  E(UM062X) =  -51.8483997409     A.U. after    8 cycles
 SCF Done:  E(UM062X) =  -51.8504422546     A.U. after   10 cycles
 SCF Done:  E(UM062X) =  -51.8504429230     A.U. after    8 cycles
 SCF Done:  E(UM062X) =  -51.8504113474     A.U. after    9 cycles
 SCF Done:  E(UM062X) =  -51.8504436236     A.U. after    9 cycles
 Optimization completed.
    -- Stationary point found.

                          Input orientation:
 ---------------------------------------------------------------------
 Center     Atomic      Atomic             Coordinates (Angstroms)
 Number     Number       Type             X           Y           Z
 ---------------------------------------------------------------------
      1          5           0       -1.620607    0.000000    0.000000
      2          5           0        1.620607    0.000000    0.000000
      3          1           0       -2.113379   -1.072775   -0.000663
      4          1           0        2.113379    1.072756   -0.006399
      5          1           0       -2.113380    1.072774    0.000749
      6          1           0        2.113380   -1.072755    0.006445
 ---------------------------------------------------------------------

 Alpha  occ. eigenvalues --   -7.10693  -7.10691  -0.57584  -0.56752  -0.44256
 Alpha  occ. eigenvalues --   -0.43899  -0.22766
 Alpha virt. eigenvalues --   -0.05334  -0.03166  -0.02878   0.02312   0.03716
 Alpha virt. eigenvalues --    0.03869   0.05710   0.06276   0.07584   0.07750
 Alpha virt. eigenvalues --    0.10353   0.15785   0.17062   0.17243   0.25436

  Beta  occ. eigenvalues --   -7.10693  -7.10691  -0.57584  -0.56752  -0.44256
  Beta  occ. eigenvalues --   -0.43899  -0.22766
  Beta virt. eigenvalues --   -0.05334  -0.03166  -0.02878   0.02312   0.03716
  Beta virt. eigenvalues --    0.03869   0.05710   0.06276   0.07584   0.07750
  Beta virt. eigenvalues --    0.10353   0.15785   0.17062   0.17243   0.25436

 Mulliken charges and spin densities:
               1          2
     1  B   -0.050127   0.000000
     2  B   -0.050127  -0.000000
     3  H    0.025064   0.000000
     4  H    0.025064  -0.000000
     5  H    0.025064   0.000000
     6  H    0.025064  -0.000000
 Sum of Mulliken charges =  -0.00000  -0.00000

 Dipole moment (field-independent basis, Debye):
    X=              0.0000    Y=              0.0000    Z=              0.0000  Tot=              0.0000
 Quadrupole moment (field-independent basis, Debye-Ang):
   XX=            -13.5070   YY=            -16.8981   ZZ=            -14.1567
   XY=             -0.0000   XZ=              0.0001   YZ=              0.0073

 Normal termination of Gaussian 16 at Mon Apr 21 17:15:49 2025.
