 Gaussian 16, Revision A.03,
 Gaussian 16:  ES64L-G16RevA.03 25-Dec-2016

 --------------------------------------------
 #p opt UM062X/6-311+G** nosymm int=superfine
 --------------------------------------------

 -------------------
 Title Card Required
 -------------------
 Symbolic Z-matrix:
 Charge =  0 Multiplicity = 3

 SCF Done:  E(UM062X) =  -50.5171430683     A.U. after   12 cycles
 SCF Done:  E(UM062X) =  -50.6218686942     A.U. after   12 cycles
 SCF Done:  E(UM062X) =  -50.7186907842     A.U. after   11 cycles
 SCF Done:  E(UM062X) =  -50.7448791928     A.U. after   12 cycles
 SCF Done:  E(UM062X) =  -50.7524827230     A.U. after   11 cycles
 SCF Done:  E(UM062X) =  -50.7471580118     A.U. after   11 cycles
 SCF Done:  E(UM062X) =  -50.7543265732     A.U. after   11 cycles
 SCF Done:  E(UM062X) =  -50.7547768838     A.U. after    9 cycles
 SCF Done:  E(UM062X) =  -50.7547899320     A.U. after    9 cycles
 SCF Done:  E(UM062X) =  -50.7547892973     A.U. after    8 cycles
 SCF Done:  E(UM062X) =  -50.7547911577     A.U. after    8 cycles
 Optimization completed.
    -- Stationary point found.

                          Input orientation:
 ---------------------------------------------------------------------
 Center     Atomic      Atomic             Coordinates (Angstroms)
 Number     Number       Type             X           Y           Z
 ---------------------------------------------------------------------
      1          5           0       -0.575683   -0.486021   -0.000000
      2          5           0        0.575683    0.486021    0.000000
      3          1           0       -1.471574   -1.242483    0.000000
      4          1           0        1.471574    1.242483   -0.000000
 ---------------------------------------------------------------------

 Alpha  occ. eigenvalues --   -7.06143  -7.06002  -0.62227  -0.52164  -0.44724
 Alpha  occ. eigenvalues --   -0.28006  -0.28006
 Alpha virt. eigenvalues --    0.02414   0.02414   0.02517   0.02699   0.05314
 Alpha virt. eigenvalues --    0.05314   0.07081   0.09317   0.09317   0.12015
 Alpha virt. eigenvalues --    0.16039   0.22780   0.33239   0.34749   0.38576

  Beta  occ. eigenvalues --   -7.05884  -7.05725  -0.55765  -0.50360  -0.43874
  Beta virt. eigenvalues --   -0.08049  -0.08049   0.01076   0.03017   0.03922
  Beta virt. eigenvalues --    0.03922   0.05212   0.08312   0.08313   0.10405
  Beta virt. eigenvalues --    0.14107   0.14107   0.18517   0.24086   0.34357

 Mulliken charges and spin densities:
               1          2
     1  B   -0.040251   1.036984
     2  B   -0.040251   1.036984
     3  H    0.040251  -0.036984
     4  H    0.040251  -0.036984
 Sum of Mulliken charges =  -0.00000   2.00000

 Dipole moment (field-independent basis, Debye):
    X=             -0.0000    Y=             -0.0000    Z=              0.0000  Tot=              0.0000
 Quadrupole moment (field-independent basis, Debye-Ang):
   XX=            -13.1623   YY=            -13.4451   ZZ=            -14.1468
   XY=              0.8312   XZ=              0.0000   YZ=              0.0000

 1\1\GINC-NODE06\FOpt\UM062X\6-311+G(d,p)\B2H2(3)\SZHAO\16-Apr-2025\0\\
 #p opt UM062X/6-311+G** nosymm int=superfine\\Title Card Required\\0,3
 \B,-0.5756828992,-0.4860209868,0.\B,0.5756828988,0.486020987,0.\H,-1.4
 715742643,-1.242483129,0.\H,1.4715742647,1.2424831288,0.\\Version=ES64
 L-G16RevA.03\HF=-50.7547912\S2=2.005822\S2-1=0.\S2A=2.000013\RMSD=7.88
 2e-09\RMSF=3.910e-05\Dipole=0.,0.,0.\Quadrupole=0.3140776,0.1038305,-0
 .4179081,0.6179939,0.,0.\PG=C*V [C*(H1B1B1H1)]\\@

 Normal termination of Gaussian 16 at Wed Apr 16 00:03:44 2025.
