 Gaussian 16, Revision A.03,
 Gaussian 16:  ES64L-G16RevA.03 25-Dec-2016

 --------------------------------------------
 #p opt UM062X/6-311+G** nosymm int=superfine
 --------------------------------------------

 -------------------
 Title Card Required
 -------------------
 Symbolic Z-matrix:
 Charge =  0 Multiplicity = 1

 SCF Done:  E(UM062X) =  -151.369321852     A.U. after   15 cycles
 SCF Done:  E(UM062X) =  -151.372902931     A.U. after   19 cycles
 SCF Done:  E(UM062X) =  -151.376575332     A.U. after   19 cycles
 SCF Done:  E(UM062X) =  -151.376730058     A.U. after   21 cycles
 SCF Done:  E(UM062X) =  -151.376765717     A.U. after   20 cycles
 SCF Done:  E(UM062X) =  -151.376766136     A.U. after   11 cycles
 Optimization completed.
    -- Stationary point found.

                          Input orientation:
 ---------------------------------------------------------------------
 Center     Atomic      Atomic             Coordinates (Angstroms)
 Number     Number       Type             X           Y           Z
 ---------------------------------------------------------------------
      1          8           0       -1.286938    0.000000    0.000000
      2          8           0        1.286938    0.000000    0.000000
      3          1           0       -1.142276   -0.775857   -0.570211
      4          1           0        1.142266    0.774828    0.571607
 ---------------------------------------------------------------------

 Alpha  occ. eigenvalues --  -19.72723 -19.72720  -1.13611  -1.11928  -0.57291
 Alpha  occ. eigenvalues --   -0.56008  -0.44687  -0.43329  -0.40367
 Alpha virt. eigenvalues --   -0.22537   0.05519   0.09026   0.14701   0.15545
 Alpha virt. eigenvalues --    0.17624   0.19349   0.21214   0.22293   0.24951
 Alpha virt. eigenvalues --    0.32651   0.48952   0.53143   0.92445   0.98347

  Beta  occ. eigenvalues --  -19.72723 -19.72720  -1.13611  -1.11928  -0.57291
  Beta  occ. eigenvalues --   -0.56008  -0.44687  -0.43329  -0.40367
  Beta virt. eigenvalues --   -0.22537   0.05519   0.09026   0.14701   0.15545
  Beta virt. eigenvalues --    0.17624   0.19349   0.21214   0.22293   0.24951
  Beta virt. eigenvalues --    0.32651   0.48952   0.53143   0.92445   0.98347

 Mulliken charges and spin densities:
               1          2
     1  O   -0.271644  -0.000000
     2  O   -0.271642   0.000000
     3  H    0.271643   0.000000
     4  H    0.271643  -0.000000
 Sum of Mulliken charges =  -0.00000  -0.00000

 Dipole moment (field-independent basis, Debye):
    X=             -0.0000    Y=             -0.0020    Z=              0.0027  Tot=              0.0034
 Quadrupole moment (field-independent basis, Debye-Ang):
   XX=            -12.1850   YY=            -10.3586   ZZ=            -11.8849
   XY=              3.6739   XZ=              2.7052   YZ=              2.4547

 Normal termination of Gaussian 16 at Mon Apr 21 21:36:22 2025.
