 Gaussian 16, Revision A.03,
 Gaussian 16:  ES64L-G16RevA.03 25-Dec-2016

 --------------------------------------------
 #p opt UM062X/6-311+G** nosymm int=superfine
 --------------------------------------------

 -------------------
 Title Card Required
 -------------------
 Symbolic Z-matrix:
 Charge =  0 Multiplicity = 1

 SCF Done:  E(UM062X) =  -379.596800592     A.U. after   15 cycles
 SCF Done:  E(UM062X) =  -379.598081504     A.U. after   11 cycles
 SCF Done:  E(UM062X) =  -379.598086283     A.U. after    8 cycles
 Optimization completed.
    -- Stationary point found.

                          Input orientation:
 ---------------------------------------------------------------------
 Center     Atomic      Atomic             Coordinates (Angstroms)
 Number     Number       Type             X           Y           Z
 ---------------------------------------------------------------------
      1          6           0       -1.590377    0.000000    0.000000
      2         15           0        1.590377    0.000000    0.000000
      3          1           0       -2.710399   -0.000000   -0.000000
 ---------------------------------------------------------------------

 Alpha  occ. eigenvalues --  -78.08405 -10.71161  -6.90210  -5.02066  -5.01195
 Alpha  occ. eigenvalues --   -5.01195  -0.75990  -0.61260  -0.41952  -0.24769
 Alpha  occ. eigenvalues --   -0.24769
 Alpha virt. eigenvalues --   -0.14452  -0.14452  -0.11393   0.01257   0.04027
 Alpha virt. eigenvalues --    0.05947   0.05947   0.07562   0.08887   0.08887
 Alpha virt. eigenvalues --    0.13955   0.17836   0.32873   0.32873   0.33762

  Beta  occ. eigenvalues --  -78.08405 -10.71161  -6.90210  -5.02066  -5.01195
  Beta  occ. eigenvalues --   -5.01195  -0.75990  -0.61260  -0.41952  -0.24769
  Beta  occ. eigenvalues --   -0.24769
  Beta virt. eigenvalues --   -0.14452  -0.14452  -0.11393   0.01257   0.04027
  Beta virt. eigenvalues --    0.05947   0.05947   0.07562   0.08887   0.08887
  Beta virt. eigenvalues --    0.13955   0.17836   0.32873   0.32873   0.33762

 Mulliken charges and spin densities:
               1          2
     1  C   -0.175778   0.000000
     2  P   -0.002987  -0.000000
     3  H    0.178765  -0.000000
 Sum of Mulliken charges =  -0.00000   0.00000

 Dipole moment (field-independent basis, Debye):
    X=             -2.2030    Y=             -0.0000    Z=             -0.0000  Tot=              2.2030
 Quadrupole moment (field-independent basis, Debye-Ang):
   XX=            -10.7252   YY=            -24.0151   ZZ=            -24.0151
   XY=             -0.0000   XZ=              0.0000   YZ=             -0.0000

 Normal termination of Gaussian 16 at Mon Apr 21 19:29:33 2025.
