 Gaussian 16, Revision A.03,
 Gaussian 16:  ES64L-G16RevA.03 25-Dec-2016

 ---------------------------------------------------
 #p UM062X/6-311+G** force int=superfine pop=saveNBO
 ---------------------------------------------------

 -------------------
 Title Card Required
 -------------------
 Symbolic Z-matrix:
 Charge =  0 Multiplicity = 1

                         Standard orientation:
 ---------------------------------------------------------------------
 Center     Atomic      Atomic             Coordinates (Angstroms)
 Number     Number       Type             X           Y           Z
 ---------------------------------------------------------------------
      1          8           0        0.000000    0.000000    1.143562
      2          8           0        0.000000    0.000000   -1.143562
 ---------------------------------------------------------------------

 SCF Done:  E(UM062X) =  -149.911980913     A.U. after    9 cycles

 Unable to determine electronic state:  partially filled degenerate orbitals.
 Alpha  occ. eigenvalues --  -19.83903 -19.83897  -1.12560  -1.08853  -0.49966
 Alpha  occ. eigenvalues --   -0.47855  -0.46715  -0.42894
 Alpha virt. eigenvalues --   -0.28639  -0.24214   0.10253   0.12797   0.15020
 Alpha virt. eigenvalues --    0.15120   0.20359   0.20666   0.21544   0.31535
 Alpha virt. eigenvalues --    0.93231   0.96567   0.97595   1.05111   1.06454

  Beta  occ. eigenvalues --  -19.83903 -19.83897  -1.12560  -1.08853  -0.49966
  Beta  occ. eigenvalues --   -0.47855  -0.46715  -0.42894
  Beta virt. eigenvalues --   -0.28639  -0.24214   0.10253   0.12797   0.15020
  Beta virt. eigenvalues --    0.15120   0.20359   0.20666   0.21544   0.31535
  Beta virt. eigenvalues --    0.93231   0.96567   0.97595   1.05111   1.06454

 Mulliken charges and spin densities:
               1          2
     1  O    0.000000   0.000000
     2  O    0.000000   0.000000
 Sum of Mulliken charges =   0.00000   0.00000

 Dipole moment (field-independent basis, Debye):
    X=              0.0000    Y=             -0.0000    Z=             -0.0000  Tot=              0.0000
 Quadrupole moment (field-independent basis, Debye-Ang):
   XX=            -10.1698   YY=            -11.9267   ZZ=             -9.2027
   XY=              0.0000   XZ=             -0.0000   YZ=              0.0000

 Summary of Natural Population Analysis:

                                       Natural Population
                Natural  -----------------------------------------------
    Atom  No    Charge         Core      Valence    Rydberg      Total
 -----------------------------------------------------------------------
      O    1    0.00000      1.00000     2.99919    0.00081     4.00000
      O    2    0.00000      1.00000     2.99919    0.00081     4.00000
 =======================================================================
   * Total *    0.00000      2.00000     5.99838    0.00163     8.00000

 Normal termination of Gaussian 16 at Mon Apr 21 19:48:22 2025.
