 Gaussian 16, Revision A.03,
 Gaussian 16:  ES64L-G16RevA.03 25-Dec-2016

 ---------------------------------------
 #p UM062X/6-311+G** force int=superfine
 ---------------------------------------

 -------------------
 Title Card Required
 -------------------
 Symbolic Z-matrix:
 Charge =  0 Multiplicity = 1

                         Standard orientation:
 ---------------------------------------------------------------------
 Center     Atomic      Atomic             Coordinates (Angstroms)
 Number     Number       Type             X           Y           Z
 ---------------------------------------------------------------------
      1          6           0        0.511602    0.000020   -0.000001
      2          6           0       -0.511603   -0.000020   -0.000002
      3          1           0       -1.038197   -0.980660   -0.026363
      4          1           0        1.038219   -0.513178    0.836068
      5          1           0       -1.038222    0.513183   -0.836063
      6          1           0       -1.038226    0.467511    0.862430
      7          1           0        1.038197    0.980660    0.026371
      8          1           0        1.038230   -0.467513   -0.862426
 ---------------------------------------------------------------------

 SCF Done:  E(UM062X) =  -79.4568691484     A.U. after    9 cycles

 The electronic state is 1-A.
 Alpha  occ. eigenvalues --  -10.50093 -10.49011  -0.98246  -0.67063  -0.57416
 Alpha  occ. eigenvalues --   -0.57414  -0.53912  -0.32843  -0.32840
 Alpha virt. eigenvalues --    0.01946   0.04130   0.04251   0.04251   0.08562
 Alpha virt. eigenvalues --    0.09037   0.09037   0.14277   0.17571   0.17572
 Alpha virt. eigenvalues --    0.20606   0.20607   0.23841   0.27612   0.40802

  Beta  occ. eigenvalues --  -10.50093 -10.49011  -0.98246  -0.67063  -0.57416
  Beta  occ. eigenvalues --   -0.57414  -0.53912  -0.32843  -0.32840
  Beta virt. eigenvalues --    0.01946   0.04130   0.04251   0.04251   0.08562
  Beta virt. eigenvalues --    0.09037   0.09037   0.14277   0.17571   0.17572
  Beta virt. eigenvalues --    0.20606   0.20607   0.23841   0.27612   0.40802

 Mulliken charges and spin densities:
               1          2
     1  C   -0.410973  -0.000000
     2  C   -0.410973   0.000000
     3  H    0.136996   0.000000
     4  H    0.136989   0.000000
     5  H    0.136989   0.000000
     6  H    0.136988   0.000000
     7  H    0.136995   0.000000
     8  H    0.136988   0.000000
 Sum of Mulliken charges =   0.00000   0.00000

 Dipole moment (field-independent basis, Debye):
    X=             -0.0000    Y=              0.0000    Z=              0.0000  Tot=              0.0000
 Quadrupole moment (field-independent basis, Debye-Ang):
   XX=            -15.6859   YY=            -14.9473   ZZ=            -14.9478
   XY=              0.0001   XZ=             -0.0000   YZ=              0.0000

 Normal termination of Gaussian 16 at Tue Nov 19 12:35:43 2024.
