 Gaussian 16, Revision A.03,
 Gaussian 16:  ES64L-G16RevA.03 25-Dec-2016

 --------------------------------------------
 #p opt UM062X/6-311+G** nosymm int=superfine
 --------------------------------------------

 -------------------
 Title Card Required
 -------------------
 Symbolic Z-matrix:
 Charge =  0 Multiplicity = 1

 SCF Done:  E(UM062X) =  -114.121599865     A.U. after   16 cycles
 SCF Done:  E(UM062X) =  -114.122269741     A.U. after   10 cycles
 SCF Done:  E(UM062X) =  -114.122429241     A.U. after    9 cycles
 SCF Done:  E(UM062X) =  -114.122438056     A.U. after   13 cycles
 Optimization completed.
    -- Stationary point found.

                          Input orientation:
 ---------------------------------------------------------------------
 Center     Atomic      Atomic             Coordinates (Angstroms)
 Number     Number       Type             X           Y           Z
 ---------------------------------------------------------------------
      1          6           0       -1.298311    0.000000    0.000000
      2          8           0        1.298311    0.000000    0.000000
      3          1           0       -1.925729   -0.900697   -0.000066
      4          1           0       -1.925733    0.900694   -0.000066
 ---------------------------------------------------------------------

 Alpha  occ. eigenvalues --  -19.67763 -10.68011  -0.98436  -0.80650  -0.54352
 Alpha  occ. eigenvalues --   -0.37012  -0.37008  -0.36239
 Alpha virt. eigenvalues --   -0.12649  -0.11293   0.00753   0.05144   0.06924
 Alpha virt. eigenvalues --    0.07384   0.15577   0.16079   0.19589   0.22446
 Alpha virt. eigenvalues --    0.25401   0.31209   0.41713   0.43922   0.54880

  Beta  occ. eigenvalues --  -19.67763 -10.68011  -0.98436  -0.80650  -0.54352
  Beta  occ. eigenvalues --   -0.37012  -0.37008  -0.36239
  Beta virt. eigenvalues --   -0.12649  -0.11293   0.00753   0.05144   0.06924
  Beta virt. eigenvalues --    0.07384   0.15577   0.16079   0.19589   0.22446
  Beta virt. eigenvalues --    0.25401   0.31209   0.41713   0.43922   0.54880

 Mulliken charges and spin densities:
               1          2
     1  C   -0.189648   0.000000
     2  O   -0.164512  -0.000000
     3  H    0.177080  -0.000000
     4  H    0.177080  -0.000000
 Sum of Mulliken charges =  -0.00000   0.00000

 Dipole moment (field-independent basis, Debye):
    X=             -4.5691    Y=             -0.0000    Z=             -0.0002  Tot=              4.5691
 Quadrupole moment (field-independent basis, Debye-Ang):
   XX=             -7.5472   YY=            -12.6023   ZZ=            -12.5208
   XY=             -0.0000   XZ=             -0.0000   YZ=             -0.0000

 Normal termination of Gaussian 16 at Mon Apr 21 18:50:06 2025.
