 Gaussian 16, Revision A.03,
 Gaussian 16:  ES64L-G16RevA.03 25-Dec-2016

 ---------------------------------------------------------------------
 #p opt UM062X/6-311+G** nosymm int=superfine SCF=(Tight,MaxCycle=200)
 ---------------------------------------------------------------------

 -------------------
 Title Card Required
 -------------------
 Symbolic Z-matrix:
 Charge =  1 Multiplicity = 2

 SCF Done:  E(UM062X) =  -1615.12942530     A.U. after   22 cycles
 SCF Done:  E(UM062X) =  -1615.30705862     A.U. after   21 cycles
 SCF Done:  E(UM062X) =  -1615.51545088     A.U. after   21 cycles
 SCF Done:  E(UM062X) =  -1615.55212827     A.U. after   19 cycles
 SCF Done:  E(UM062X) =  -1615.55331597     A.U. after   22 cycles
 SCF Done:  E(UM062X) =  -1615.55642079     A.U. after   24 cycles
 SCF Done:  E(UM062X) =  -1615.55476904     A.U. after   24 cycles
 SCF Done:  E(UM062X) =  -1615.54817097     A.U. after   22 cycles
 SCF Done:  E(UM062X) =  -1615.54472753     A.U. after   21 cycles
 SCF Done:  E(UM062X) =  -1615.55702199     A.U. after   19 cycles
 SCF Done:  E(UM062X) =  -1615.55895773     A.U. after   22 cycles
 SCF Done:  E(UM062X) =  -1615.55815103     A.U. after   20 cycles
 SCF Done:  E(UM062X) =  -1615.55925177     A.U. after   19 cycles
 SCF Done:  E(UM062X) =  -1615.55777927     A.U. after   22 cycles
 SCF Done:  E(UM062X) =  -1615.55930949     A.U. after   21 cycles
 SCF Done:  E(UM062X) =  -1615.55931321     A.U. after   14 cycles
 SCF Done:  E(UM062X) =  -1615.55931513     A.U. after   14 cycles
 SCF Done:  E(UM062X) =  -1615.55931570     A.U. after   14 cycles
 SCF Done:  E(UM062X) =  -1615.55931580     A.U. after   13 cycles
 Optimization completed.
    -- Stationary point found.

                          Input orientation:
 ---------------------------------------------------------------------
 Center     Atomic      Atomic             Coordinates (Angstroms)
 Number     Number       Type             X           Y           Z
 ---------------------------------------------------------------------
      1          6           0       -1.027223    0.000000   -0.000000
      2          6           0        1.027223   -0.000000    0.000000
      3          6           0        0.000002   -2.184629    0.002682
      4          6           0       -0.000064   -3.550230    0.004129
      5          6           0       -1.119870   -4.327846    0.344881
      6          6           0       -1.163737   -1.475954    0.327464
      7          6           0        0.649462   -5.725777   -0.193474
      8          1           0        1.246964   -6.606945   -0.379055
      9          6           0       -1.411637    0.904528    1.110600
     10          6           0       -0.650389   -5.725301    0.204277
     11          1           0       -1.248203   -6.606028    0.390942
     12          6           0        1.119413   -4.328666   -0.335873
     13          6           0        1.163627   -1.476688   -0.324234
     14          6           0        1.618295    2.312352   -1.033969
     15          6           0       -1.420341    0.219379   -1.434050
     16          6           0       -1.858449    3.047703    2.218599
     17          1           0       -2.017924    4.116143    2.130966
     18          6           0       -2.264923   -3.640801    0.698047
     19          1           0       -3.175648   -4.158836    0.976892
     20          6           0       -1.544825    1.482157   -2.082958
     21          6           0        2.282085   -2.207732   -0.673645
     22          1           0        3.212536   -1.701815   -0.909118
     23          6           0        1.420592    0.222507    1.433517
     24          6           0        1.544423    1.486681    2.079828
     25          6           0        2.264302   -3.642453   -0.691150
     26          1           0        3.174715   -4.161141   -0.969801
     27          6           0       -1.619747    2.314159    1.029252
     28          6           0       -1.450014    0.334139    2.402671
     29          1           0       -1.271258   -0.724086    2.517157
     30          6           0        1.603260   -0.910242    2.262916
     31          1           0        1.559009   -1.904466    1.848630
     32          6           0       -1.894223    2.454140    3.455925
     33          1           0       -2.079469    3.044149    4.344981
     34          6           0       -2.282491   -2.206125    0.677745
     35          1           0       -3.213038   -1.699607    0.911536
     36          6           0       -1.768172    1.539334   -3.477269
     37          1           0       -1.837551    2.517241   -3.939337
     38          6           0        1.411394    0.902379   -1.112467
     39          6           0       -1.571231    3.122589   -0.154632
     40          1           0       -1.613633    4.190173    0.038707
     41          6           0       -1.925157    0.410523   -4.246598
     42          1           0       -2.110487    0.488079   -5.310697
     43          6           0       -1.500276    2.774909   -1.458011
     44          1           0       -1.493921    3.604753   -2.158150
     45          6           0        1.768366    1.546867    3.473920
     46          1           0        1.837237    2.525771    3.933944
     47          6           0       -1.682750    1.073415    3.543372
     48          1           0       -1.691490    0.577459    4.506534
     49          6           0       -1.601935   -0.915186   -2.261190
     50          1           0       -1.557224   -1.908526   -1.844829
     51          6           0        1.926483    0.419742    4.245469
     52          1           0        2.112282    0.499581    5.309317
     53          6           0        1.856729    3.043672   -2.224726
     54          1           0        2.015265    4.112425   -2.139225
     55          6           0        1.858488   -0.822842    3.618606
     56          1           0        2.002247   -1.733712    4.186982
     57          6           0        1.893416    2.447607   -3.460820
     58          1           0        2.078450    3.035947   -4.351026
     59          6           0        1.568622    3.123181    0.148219
     60          1           0        1.609630    4.190417   -0.047340
     61          6           0       -1.856672   -0.830727   -3.617168
     62          1           0       -1.999623   -1.742850   -4.183736
     63          6           0        1.498202    2.778114    1.452325
     64          1           0        1.490886    3.609380    2.150763
     65          6           0        1.450492    0.329411   -2.403371
     66          1           0        1.272462   -0.729145   -2.515801
     67          6           0        1.683036    1.066554   -3.545502
     68          1           0        1.692379    0.568655   -4.507656
 ---------------------------------------------------------------------

 Alpha  occ. eigenvalues --  -10.71971 -10.71964 -10.68853 -10.68853 -10.68619
 Alpha  occ. eigenvalues --  -10.68618 -10.68511 -10.68510 -10.67782 -10.67782
 Alpha  occ. eigenvalues --  -10.67152 -10.67152 -10.66951 -10.66950 -10.66535
 Alpha  occ. eigenvalues --  -10.66534 -10.66203 -10.66203 -10.66182 -10.66181
 Alpha  occ. eigenvalues --  -10.66012 -10.66011 -10.65879 -10.65879 -10.65595
 Alpha  occ. eigenvalues --  -10.65595 -10.65593 -10.65592 -10.65534 -10.65534
 Alpha  occ. eigenvalues --  -10.65322 -10.65321 -10.65245 -10.65245 -10.65198
 Alpha  occ. eigenvalues --  -10.65198 -10.64883 -10.64882 -10.64378 -10.64036
 Alpha  occ. eigenvalues --  -10.63940 -10.62650  -1.13009  -1.10412  -1.09839
 Alpha  occ. eigenvalues --   -1.08547  -1.07870  -1.06194  -1.04182  -1.02825
 Alpha  occ. eigenvalues --   -1.02372  -1.00680  -1.00042  -0.97946  -0.97793
 Alpha  occ. eigenvalues --   -0.96964  -0.96228  -0.94862  -0.93450  -0.93415
 Alpha  occ. eigenvalues --   -0.92643  -0.91879  -0.87916  -0.86962  -0.84989
 Alpha  occ. eigenvalues --   -0.84781  -0.82736  -0.81637  -0.81148  -0.79970
 Alpha  occ. eigenvalues --   -0.79740  -0.79519  -0.77798  -0.76386  -0.76162
 Alpha  occ. eigenvalues --   -0.75455  -0.75255  -0.73845  -0.70132  -0.69998
 Alpha  occ. eigenvalues --   -0.69002  -0.68213  -0.67788  -0.67585  -0.67098
 Alpha  occ. eigenvalues --   -0.66832  -0.65502  -0.65191  -0.64987  -0.64779
 Alpha  occ. eigenvalues --   -0.63607  -0.63067  -0.62268  -0.62142  -0.61487
 Alpha  occ. eigenvalues --   -0.61325  -0.60677  -0.60241  -0.60188  -0.59923
 Alpha  occ. eigenvalues --   -0.59606  -0.58837  -0.58516  -0.58036  -0.57753
 Alpha  occ. eigenvalues --   -0.57331  -0.56102  -0.55877  -0.55796  -0.55685
 Alpha  occ. eigenvalues --   -0.54857  -0.54637  -0.53903  -0.52905  -0.52777
 Alpha  occ. eigenvalues --   -0.52558  -0.52148  -0.52004  -0.51677  -0.51094
 Alpha  occ. eigenvalues --   -0.50902  -0.50841  -0.50587  -0.49224  -0.48759
 Alpha  occ. eigenvalues --   -0.48574  -0.48490  -0.48129  -0.44264  -0.43762
 Alpha  occ. eigenvalues --   -0.43386  -0.43125  -0.40919  -0.40039  -0.39653
 Alpha  occ. eigenvalues --   -0.38050  -0.37839  -0.37153  -0.35223
 Alpha virt. eigenvalues --   -0.15789  -0.15563  -0.15142  -0.14787  -0.10105
 Alpha virt. eigenvalues --   -0.10059  -0.08762  -0.08708  -0.08330  -0.07705
 Alpha virt. eigenvalues --   -0.07701  -0.07510  -0.06977  -0.06552  -0.06331

  Beta  occ. eigenvalues --  -10.71899 -10.71894 -10.68822 -10.68822 -10.68581
  Beta  occ. eigenvalues --  -10.68580 -10.68502 -10.68502 -10.67759 -10.67759
  Beta  occ. eigenvalues --  -10.67123 -10.67123 -10.66916 -10.66915 -10.66534
  Beta  occ. eigenvalues --  -10.66533 -10.66187 -10.66186 -10.66158 -10.66158
  Beta  occ. eigenvalues --  -10.66003 -10.66002 -10.65880 -10.65880 -10.65598
  Beta  occ. eigenvalues --  -10.65598 -10.65583 -10.65582 -10.65550 -10.65549
  Beta  occ. eigenvalues --  -10.65316 -10.65315 -10.65242 -10.65242 -10.65196
  Beta  occ. eigenvalues --  -10.65196 -10.64879 -10.64879 -10.64372 -10.64036
  Beta  occ. eigenvalues --  -10.63940 -10.62652  -1.12870  -1.10299  -1.09651
  Beta  occ. eigenvalues --   -1.08408  -1.07735  -1.06064  -1.04095  -1.02619
  Beta  occ. eigenvalues --   -1.02185  -1.00554  -0.99911  -0.97805  -0.97669
  Beta  occ. eigenvalues --   -0.96849  -0.96129  -0.94822  -0.93306  -0.93295
  Beta  occ. eigenvalues --   -0.92490  -0.91751  -0.87654  -0.86746  -0.84872
  Beta  occ. eigenvalues --   -0.84670  -0.82672  -0.81520  -0.81071  -0.79851
  Beta  occ. eigenvalues --   -0.79665  -0.79446  -0.77648  -0.76199  -0.75997
  Beta  occ. eigenvalues --   -0.75298  -0.75227  -0.73726  -0.70023  -0.69847
  Beta  occ. eigenvalues --   -0.68910  -0.68129  -0.67671  -0.67481  -0.66964
  Beta  occ. eigenvalues --   -0.66721  -0.65400  -0.65094  -0.64865  -0.64656
  Beta  occ. eigenvalues --   -0.63278  -0.63022  -0.62194  -0.62032  -0.61255
  Beta  occ. eigenvalues --   -0.61147  -0.60536  -0.60173  -0.60076  -0.59841
  Beta  occ. eigenvalues --   -0.59457  -0.58636  -0.58441  -0.57912  -0.57356
  Beta  occ. eigenvalues --   -0.57208  -0.55997  -0.55760  -0.55687  -0.55099
  Beta  occ. eigenvalues --   -0.54818  -0.54154  -0.53560  -0.52793  -0.52680
  Beta  occ. eigenvalues --   -0.52495  -0.52067  -0.51859  -0.51228  -0.50996
  Beta  occ. eigenvalues --   -0.50734  -0.50670  -0.49728  -0.49079  -0.48650
  Beta  occ. eigenvalues --   -0.48525  -0.48285  -0.47652  -0.43674  -0.42949
  Beta  occ. eigenvalues --   -0.42921  -0.42772  -0.40542  -0.39989  -0.39016
  Beta  occ. eigenvalues --   -0.37566  -0.37212  -0.36655
  Beta virt. eigenvalues --   -0.25605  -0.15478  -0.15371  -0.14986  -0.14184
  Beta virt. eigenvalues --   -0.09974  -0.09660  -0.08660  -0.08363  -0.08181
  Beta virt. eigenvalues --   -0.07576  -0.07561  -0.07431  -0.06545  -0.06401

 Mulliken charges and spin densities:
               1          2
     1  C   -0.000516   0.040437
     2  C    0.000837   0.040592
     3  C    0.134772   0.002562
     4  C    0.123310  -0.004035
     5  C    0.129724   0.007189
     6  C    0.149806   0.004996
     7  C   -0.300861   0.001155
     8  H    0.175752  -0.000063
     9  C    0.172276   0.070616
    10  C   -0.301184   0.001156
    11  H    0.175754  -0.000063
    12  C    0.130378   0.007183
    13  C    0.151020   0.005012
    14  C    0.002489   0.046145
    15  C    0.188705   0.043079
    16  C   -0.094209   0.016072
    17  H    0.165477  -0.000642
    18  C   -0.493030   0.000765
    19  H    0.174466   0.000437
    20  C    0.204301   0.051176
    21  C   -0.181752   0.012417
    22  H    0.174352  -0.000489
    23  C    0.189569   0.043082
    24  C    0.203395   0.051188
    25  C   -0.493101   0.000757
    26  H    0.174474   0.000438
    27  C    0.002198   0.046296
    28  C   -0.101679  -0.030767
    29  H    0.198230   0.000756
    30  C   -0.306883  -0.002013
    31  H    0.217449   0.000319
    32  C   -0.286350   0.023918
    33  H    0.180356  -0.001228
    34  C   -0.181714   0.012412
    35  H    0.174304  -0.000489
    36  C   -0.156086  -0.010600
    37  H    0.163041   0.000168
    38  C    0.171982   0.070668
    39  C   -0.184168   0.094001
    40  H    0.168969  -0.006752
    41  C   -0.254493   0.015399
    42  H    0.177914  -0.000556
    43  C   -0.157957   0.058138
    44  H    0.162064  -0.003392
    45  C   -0.155963  -0.010634
    46  H    0.163042   0.000169
    47  C   -0.166647   0.068470
    48  H    0.174671  -0.004711
    49  C   -0.306826  -0.001980
    50  H    0.217439   0.000319
    51  C   -0.254663   0.015408
    52  H    0.177914  -0.000556
    53  C   -0.095445   0.016072
    54  H    0.165453  -0.000643
    55  C   -0.099791   0.006767
    56  H    0.175083  -0.000705
    57  C   -0.286721   0.023853
    58  H    0.180354  -0.001226
    59  C   -0.183175   0.094239
    60  H    0.168906  -0.006767
    61  C   -0.100571   0.006730
    62  H    0.175078  -0.000704
    63  C   -0.157630   0.058115
    64  H    0.162059  -0.003389
    65  C   -0.102409  -0.030759
    66  H    0.198132   0.000753
    67  C   -0.166334   0.068451
    68  H    0.174661  -0.004713
 Sum of Mulliken charges =   1.00000   1.00000

 Dipole moment (field-independent basis, Debye):
    X=             -0.0015    Y=              3.0872    Z=             -0.0040  Tot=              3.0872
 Quadrupole moment (field-independent basis, Debye-Ang):
   XX=           -222.4211   YY=           -174.1493   ZZ=           -177.2240
   XY=             -0.0167   XZ=             -1.7958   YZ=              0.0065

 Normal termination of Gaussian 16 at Fri Mar 21 14:08:02 2025.
