 Gaussian 16, Revision A.03,
 Gaussian 16:  ES64L-G16RevA.03 25-Dec-2016

 --------------------------------
 #p UM062X/6-311+G** Pop=NBO Read
 --------------------------------

 ------------
 NBO Analysis
 ------------
 Symbolic Z-matrix:
 Charge =  0 Multiplicity = 1

                         Standard orientation:
 ---------------------------------------------------------------------
 Center     Atomic      Atomic             Coordinates (Angstroms)
 Number     Number       Type             X           Y           Z
 ---------------------------------------------------------------------
      1          6           0       -1.189795   -0.000000    0.024566
      2         15           0        0.666827   -0.000000   -0.123639
      3          1           0        0.922273   -1.031655    0.813292
      4          1           0       -1.581851    0.879761   -0.486595
      5          1           0        0.922273    1.031658    0.813291
      6          1           0       -1.581860   -0.879717   -0.486666
      7          1           0       -1.544464   -0.000040    1.053867
 ---------------------------------------------------------------------

 SCF Done:  E(UM062X) =  -382.386928834     A.U. after   10 cycles

 The electronic state is 1-A.
 Alpha  occ. eigenvalues --  -78.04340 -10.54962  -6.85057  -4.96533  -4.96529
 Alpha  occ. eigenvalues --   -4.96243  -0.82177  -0.67460  -0.49464  -0.48761
 Alpha  occ. eigenvalues --   -0.41657  -0.40859  -0.30348
 Alpha virt. eigenvalues --    0.00680   0.03085   0.04770   0.05631   0.06911
 Alpha virt. eigenvalues --    0.07782   0.09108   0.09676   0.12257   0.14929
 Alpha virt. eigenvalues --    0.21225   0.21544   0.25946   0.36300   0.43968

  Beta  occ. eigenvalues --  -78.04340 -10.54962  -6.85057  -4.96533  -4.96529
  Beta  occ. eigenvalues --   -4.96243  -0.82177  -0.67460  -0.49464  -0.48761
  Beta  occ. eigenvalues --   -0.41657  -0.40859  -0.30348
  Beta virt. eigenvalues --    0.00680   0.03085   0.04770   0.05631   0.06911
  Beta virt. eigenvalues --    0.07782   0.09108   0.09676   0.12257   0.14929
  Beta virt. eigenvalues --    0.21225   0.21544   0.25946   0.36300   0.43968

 Mulliken charges and spin densities:
               1          2
     1  C   -0.568168  -0.000000
     2  P    0.173608   0.000000
     3  H   -0.041286  -0.000000
     4  H    0.158119  -0.000000
     5  H   -0.041286  -0.000000
     6  H    0.158120   0.000000
     7  H    0.160893  -0.000000
 Sum of Mulliken charges =  -0.00000   0.00000

 Dipole moment (field-independent basis, Debye):
    X=             -0.9618    Y=              0.0000    Z=              0.7824  Tot=              1.2398
 Quadrupole moment (field-independent basis, Debye-Ang):
   XX=            -22.5789   YY=            -21.1927   ZZ=            -23.1942
   XY=             -0.0000   XZ=              1.5156   YZ=             -0.0000

 Summary of Natural Population Analysis:

                                       Natural Population
                Natural  -----------------------------------------------
    Atom  No    Charge         Core      Valence    Rydberg      Total
 -----------------------------------------------------------------------
      C    1   -0.51516      0.99984     2.51104    0.00428     3.51516
      P    2    0.13938      4.99954     2.33921    0.02187     7.36062
      H    3   -0.00965      0.00000     0.50800    0.00165     0.50965
      H    4    0.13238      0.00000     0.36714    0.00048     0.36762
      H    5   -0.00965      0.00000     0.50800    0.00165     0.50965
      H    6    0.13238      0.00000     0.36714    0.00048     0.36762
      H    7    0.13033      0.00000     0.36913    0.00055     0.36967
 =======================================================================
   * Total *    0.00000      5.99938     6.96965    0.03097    13.00000

 Normal termination of Gaussian 16 at Wed Apr 16 03:40:35 2025.
