 Gaussian 16, Revision A.03,
 Gaussian 16:  ES64L-G16RevA.03 25-Dec-2016

 ---------------------------------------
 #p UM062X/6-311+G** force int=superfine
 ---------------------------------------

 -------------------
 Title Card Required
 -------------------
 Symbolic Z-matrix:
 Charge =  1 Multiplicity = 2

                         Standard orientation:
 ---------------------------------------------------------------------
 Center     Atomic      Atomic             Coordinates (Angstroms)
 Number     Number       Type             X           Y           Z
 ---------------------------------------------------------------------
      1          6           0        0.000000    1.010856    0.000000
      2          6           0       -0.000000   -1.010856    0.000000
      3          1           0       -0.981527    1.472921    0.000000
      4          1           0        0.981562    1.472911    0.000000
      5          1           0        0.981527   -1.472921    0.000000
      6          1           0       -0.981562   -1.472911    0.000000
 ---------------------------------------------------------------------

 SCF Done:  E(UM062X) =  -78.0629725781     A.U. after    9 cycles

 The electronic state is 2-AU.
 Alpha  occ. eigenvalues --  -10.92186 -10.92170  -1.06900  -1.00043  -0.80752
 Alpha  occ. eigenvalues --   -0.77444  -0.67410  -0.56445
 Alpha virt. eigenvalues --   -0.36411  -0.23994  -0.14140  -0.11039  -0.10060
 Alpha virt. eigenvalues --   -0.08410  -0.07462  -0.07192  -0.04754  -0.04159
 Alpha virt. eigenvalues --   -0.02701  -0.00587   0.02141   0.09376   0.17981

  Beta  occ. eigenvalues --  -10.91951 -10.91941  -1.03803  -0.97818  -0.80208
  Beta  occ. eigenvalues --   -0.77090  -0.65875
  Beta virt. eigenvalues --   -0.35536  -0.27724  -0.21598  -0.15477  -0.11375
  Beta virt. eigenvalues --   -0.10091  -0.07893  -0.07617  -0.07378  -0.04217
  Beta virt. eigenvalues --   -0.03920  -0.02239  -0.00007   0.01342   0.10099

 Mulliken charges and spin densities:
               1          2
     1  C   -0.067142   0.541192
     2  C   -0.067142   0.541192
     3  H    0.283569  -0.020596
     4  H    0.283572  -0.020596
     5  H    0.283569  -0.020596
     6  H    0.283572  -0.020596
 Sum of Mulliken charges =   1.00000   1.00000

 Dipole moment (field-independent basis, Debye):
    X=             -0.0000    Y=             -0.0000    Z=              0.0000  Tot=              0.0000
 Quadrupole moment (field-independent basis, Debye-Ang):
   XX=             -8.1457   YY=             -2.0753   ZZ=            -12.5002
   XY=              0.0001   XZ=              0.0000   YZ=              0.0000

 Normal termination of Gaussian 16 at Tue Nov 19 11:56:31 2024.
