 Gaussian 16, Revision A.03,
 Gaussian 16:  ES64L-G16RevA.03 25-Dec-2016

 --------------------------------------------
 #p opt UM062X/6-311+G** nosymm int=superfine
 --------------------------------------------

 -------------------
 Title Card Required
 -------------------
 Symbolic Z-matrix:
 Charge =  0 Multiplicity = 1

 SCF Done:  E(UM062X) =  -76.6977168852     A.U. after   11 cycles
 SCF Done:  E(UM062X) =  -76.7886848506     A.U. after    9 cycles
 SCF Done:  E(UM062X) =  -76.8976013805     A.U. after    9 cycles
 SCF Done:  E(UM062X) =  -76.9325621977     A.U. after   10 cycles
 SCF Done:  E(UM062X) =  -76.9338005213     A.U. after    8 cycles
 SCF Done:  E(UM062X) =  -76.9339856530     A.U. after    7 cycles
 Optimization completed.
    -- Stationary point found.

                          Input orientation:
 ---------------------------------------------------------------------
 Center     Atomic      Atomic             Coordinates (Angstroms)
 Number     Number       Type             X           Y           Z
 ---------------------------------------------------------------------
      1          6           0       -0.357951    0.000000    0.000000
      2          6           0        0.357951    0.000000    0.000000
      3          1           0       -1.120091   -0.825854    0.000000
      4          1           0       -1.120129    0.825686   -0.000000
      5          1           0        1.120091    0.825854    0.000000
      6          1           0        1.120129   -0.825686   -0.000000
 ---------------------------------------------------------------------

 Alpha  occ. eigenvalues --  -10.63106 -10.47017  -0.91376  -0.65478  -0.60185
 Alpha  occ. eigenvalues --   -0.55368  -0.51522  -0.26983
 Alpha virt. eigenvalues --    0.02516   0.02790   0.04134   0.05535   0.08152
 Alpha virt. eigenvalues --    0.09507   0.09829   0.14062   0.15903   0.18791
 Alpha virt. eigenvalues --    0.25201   0.26346   0.37276   0.41704   0.44168

  Beta  occ. eigenvalues --  -10.63106 -10.47017  -0.91376  -0.65478  -0.60185
  Beta  occ. eigenvalues --   -0.55368  -0.51522  -0.26983
  Beta virt. eigenvalues --    0.02516   0.02790   0.04134   0.05535   0.08152
  Beta virt. eigenvalues --    0.09507   0.09829   0.14062   0.15903   0.18791
  Beta virt. eigenvalues --    0.25201   0.26346   0.37276   0.41704   0.44168

 Mulliken charges and spin densities:
               1          2
     1  C   -0.243885   0.000000
     2  C   -0.243885  -0.000000
     3  H    0.121923  -0.000000
     4  H    0.121962  -0.000000
     5  H    0.121923   0.000000
     6  H    0.121962  -0.000000
 Sum of Mulliken charges =  -0.00000  -0.00000

 Dipole moment (field-independent basis, Debye):
    X=             -0.0000    Y=             -0.0000    Z=             -0.0000  Tot=              0.0000
 Quadrupole moment (field-independent basis, Debye-Ang):
   XX=            -12.7912   YY=            -12.7326   ZZ=            -12.9387
   XY=             -0.0006   XZ=             -0.0000   YZ=             -0.0000

 Normal termination of Gaussian 16 at Tue Nov 19 10:11:57 2024.
