 Gaussian 16, Revision A.03,
 Gaussian 16:  ES64L-G16RevA.03 25-Dec-2016

 --------------------------------------------
 #p opt UM062X/6-311+G** nosymm int=superfine
 --------------------------------------------

 -------------------
 Title Card Required
 -------------------
 Symbolic Z-matrix:
 Charge =  1 Multiplicity = 2

 SCF Done:  E(UM062X) =  -580.910745600     A.U. after   11 cycles
 SCF Done:  E(UM062X) =  -580.911111304     A.U. after    9 cycles
 SCF Done:  E(UM062X) =  -580.911238476     A.U. after   10 cycles
 SCF Done:  E(UM062X) =  -580.911200569     A.U. after   15 cycles
 SCF Done:  E(UM062X) =  -580.911239320     A.U. after   12 cycles
 Optimization completed.
    -- Stationary point found.

                          Input orientation:
 ---------------------------------------------------------------------
 Center     Atomic      Atomic             Coordinates (Angstroms)
 Number     Number       Type             X           Y           Z
 ---------------------------------------------------------------------
      1         14           0       -1.516295    0.000000    0.000000
      2         14           0        1.516295    0.000000    0.000000
      3          1           0       -2.204064   -1.297477    0.000240
      4          1           0        2.204065    1.297476    0.000013
      5          1           0       -2.204066    1.297475    0.001444
      6          1           0        2.204067   -1.297474   -0.001296
 ---------------------------------------------------------------------

 Alpha  occ. eigenvalues --  -67.26829 -67.26829  -5.81129  -5.81127  -4.12768
 Alpha  occ. eigenvalues --   -4.12767  -4.12100  -4.12096  -4.11933  -4.11933
 Alpha  occ. eigenvalues --   -0.81918  -0.79267  -0.64087  -0.63401  -0.53100
 Alpha  occ. eigenvalues --   -0.42655
 Alpha virt. eigenvalues --   -0.30124  -0.27567  -0.13805  -0.13327  -0.11672
 Alpha virt. eigenvalues --   -0.10674  -0.09047  -0.08983  -0.07686  -0.07019
 Alpha virt. eigenvalues --   -0.06768  -0.05620  -0.01758   0.01019   0.12060

  Beta  occ. eigenvalues --  -67.26538 -67.26538  -5.81043  -5.81043  -4.12053
  Beta  occ. eigenvalues --   -4.12052  -4.12032  -4.12027  -4.11828  -4.11828
  Beta  occ. eigenvalues --   -0.80022  -0.77805  -0.64069  -0.63477  -0.52197
  Beta virt. eigenvalues --   -0.28763  -0.25496  -0.24629  -0.14258  -0.13771
  Beta virt. eigenvalues --   -0.11837  -0.11280  -0.09508  -0.08700  -0.07203
  Beta virt. eigenvalues --   -0.06727  -0.06690  -0.03871  -0.03484   0.00740

 Mulliken charges and spin densities:
               1          2
     1  Si   0.437589   0.554125
     2  Si   0.437590   0.554111
     3  H    0.031205  -0.027059
     4  H    0.031205  -0.027059
     5  H    0.031205  -0.027059
     6  H    0.031205  -0.027059
 Sum of Mulliken charges =   1.00000   1.00000

 Dipole moment (field-independent basis, Debye):
    X=              0.0000    Y=              0.0000    Z=             -0.0000  Tot=              0.0000
 Quadrupole moment (field-independent basis, Debye-Ang):
   XX=             -7.9331   YY=            -23.6919   ZZ=            -24.8222
   XY=             -0.0000   XZ=             -0.0000   YZ=              0.0005

 Normal termination of Gaussian 16 at Mon Apr 21 20:22:44 2025.
