 Gaussian 16, Revision A.03,
 Gaussian 16:  ES64L-G16RevA.03 25-Dec-2016

 ---------------------------------------------------
 #p UM062X/6-311+G** force int=superfine pop=saveNBO
 ---------------------------------------------------

 -------------------
 Title Card Required
 -------------------
 Symbolic Z-matrix:
 Charge =  0 Multiplicity = 1

                         Standard orientation:
 ---------------------------------------------------------------------
 Center     Atomic      Atomic             Coordinates (Angstroms)
 Number     Number       Type             X           Y           Z
 ---------------------------------------------------------------------
      1          6           0        0.000000    0.000000   -1.766249
      2         16           0        0.000000    0.000000    0.662343
 ---------------------------------------------------------------------

 SCF Done:  E(UM062X) =  -435.961863340     A.U. after   14 cycles

 The electronic state is 1-SG.
 Alpha  occ. eigenvalues --  -89.95244 -10.80114  -8.30920  -6.22975  -6.22561
 Alpha  occ. eigenvalues --   -6.22561  -0.77213  -0.67581  -0.36551  -0.32378
 Alpha  occ. eigenvalues --   -0.32378
 Alpha virt. eigenvalues --   -0.15513  -0.15513  -0.08883   0.03624   0.05372
 Alpha virt. eigenvalues --    0.06032   0.06032   0.08679   0.09185   0.09185
 Alpha virt. eigenvalues --    0.15503   0.34584   0.35785   0.35785   0.53139

  Beta  occ. eigenvalues --  -89.95244 -10.80114  -8.30920  -6.22975  -6.22561
  Beta  occ. eigenvalues --   -6.22561  -0.77213  -0.67581  -0.36551  -0.32378
  Beta  occ. eigenvalues --   -0.32378
  Beta virt. eigenvalues --   -0.15513  -0.15513  -0.08883   0.03624   0.05372
  Beta virt. eigenvalues --    0.06032   0.06032   0.08679   0.09185   0.09185
  Beta virt. eigenvalues --    0.15503   0.34584   0.35785   0.35785   0.53139

 Mulliken charges and spin densities:
               1          2
     1  C    0.147797   0.000000
     2  S   -0.147797  -0.000000
 Sum of Mulliken charges =  -0.00000  -0.00000

 Dipole moment (field-independent basis, Debye):
    X=              0.0000    Y=              0.0000    Z=             -1.5324  Tot=              1.5324
 Quadrupole moment (field-independent basis, Debye-Ang):
   XX=            -20.4970   YY=            -20.4970   ZZ=            -16.8115
   XY=              0.0000   XZ=              0.0000   YZ=              0.0000

 Summary of Natural Population Analysis:

                                       Natural Population
                Natural  -----------------------------------------------
    Atom  No    Charge         Core      Valence    Rydberg      Total
 -----------------------------------------------------------------------
      C    1    0.12435      1.00000     1.87359    0.00206     2.87565
      S    2   -0.12435      4.99998     3.12234    0.00203     8.12435
 =======================================================================
   * Total *   -0.00000      5.99998     4.99593    0.00409    11.00000

 Normal termination of Gaussian 16 at Mon Apr 21 19:40:48 2025.
