 Gaussian 16, Revision A.03,
 Gaussian 16:  ES64L-G16RevA.03 25-Dec-2016

 --------------------------------------------
 #p opt UM062X/6-311+G** nosymm int=superfine
 --------------------------------------------

 -------------------
 Title Card Required
 -------------------
 Symbolic Z-matrix:
 Charge =  0 Multiplicity = 2

 SCF Done:  E(UM062X) =  -25.9176623269     A.U. after   11 cycles
 SCF Done:  E(UM062X) =  -25.9194024613     A.U. after    9 cycles
 SCF Done:  E(UM062X) =  -25.9196899521     A.U. after    9 cycles
 Optimization completed.
    -- Stationary point found.

                          Input orientation:
 ---------------------------------------------------------------------
 Center     Atomic      Atomic             Coordinates (Angstroms)
 Number     Number       Type             X           Y           Z
 ---------------------------------------------------------------------
      1          5           0        0.943316    0.000001   -0.000000
      2          1           0        1.462229    1.066267   -0.005492
      3          1           0        1.462233   -1.066264    0.005488
 ---------------------------------------------------------------------

 Alpha  occ. eigenvalues --   -7.08717  -0.58178  -0.44023  -0.25862
 Alpha virt. eigenvalues --   -0.05066   0.03030   0.04228   0.05696   0.05846
 Alpha virt. eigenvalues --    0.16310   0.18669   0.35257   0.36492   0.42354
 Alpha virt. eigenvalues --    0.42452   0.56961   0.58407   0.78927   0.82761

  Beta  occ. eigenvalues --   -7.07940  -0.55359  -0.43026
  Beta virt. eigenvalues --   -0.06943  -0.04146   0.02567   0.05048   0.08861
  Beta virt. eigenvalues --    0.10754   0.16113   0.17020   0.33891   0.35656
  Beta virt. eigenvalues --    0.39728   0.40877   0.57635   0.59748   0.81109

 Mulliken charges and spin densities:
               1          2
     1  B   -0.042846   0.973133
     2  H    0.021423   0.013434
     3  H    0.021423   0.013434
 Sum of Mulliken charges =   0.00000   1.00000

 Dipole moment (field-independent basis, Debye):
    X=              0.5179    Y=              0.0000    Z=             -0.0000  Tot=              0.5179
 Quadrupole moment (field-independent basis, Debye-Ang):
   XX=             -8.3827   YY=             -8.3849   ZZ=             -6.7802
   XY=             -0.0000   XZ=              0.0000   YZ=              0.0083

 1\1\GINC-NODE02\FOpt\UM062X\6-311+G(d,p)\B1H2(2)\SZHAO\16-Apr-2025\0\\
 #p opt UM062X/6-311+G** nosymm int=superfine\\Title Card Required\\0,2
 \B,0.9433156811,0.0000006006,-0.0000002916\H,1.4622294965,1.0662667141
 ,-0.0054924708\H,1.4622328325,-1.0662640146,0.0054877624\\Version=ES64
 L-G16RevA.03\HF=-25.91969\S2=0.751416\S2-1=0.\S2A=0.750001\RMSD=4.322e
 -09\RMSF=9.356e-06\Dipole=0.2037729,0.0000003,-0.0000008\Quadrupole=-0
 .396595,-0.3982321,0.7948271,-0.0000002,0.0000061,0.006143\PG=CS [SG(B
 1H2)]\\@

 Normal termination of Gaussian 16 at Wed Apr 16 06:51:44 2025.
