 Gaussian 16, Revision A.03,
 Gaussian 16:  ES64L-G16RevA.03 25-Dec-2016

 --------------------------------------------
 #p opt UM062X/6-311+G** nosymm int=superfine
 --------------------------------------------

 -------------------
 Title Card Required
 -------------------
 Symbolic Z-matrix:
 Charge =  0 Multiplicity = 1

 SCF Done:  E(UM062X) =  -83.1368909745     A.U. after   10 cycles
 SCF Done:  E(UM062X) =  -83.1497576970     A.U. after    9 cycles
 SCF Done:  E(UM062X) =  -83.1515915325     A.U. after    8 cycles
 SCF Done:  E(UM062X) =  -83.1515970995     A.U. after    7 cycles
 Optimization completed.
    -- Stationary point found.

                          Input orientation:
 ---------------------------------------------------------------------
 Center     Atomic      Atomic             Coordinates (Angstroms)
 Number     Number       Type             X           Y           Z
 ---------------------------------------------------------------------
      1          5           0       -1.402429    0.000000    0.000000
      2          7           0        1.402429    0.000000    0.000000
      3          1           0        1.759887   -0.947777    0.000001
      4          1           0       -1.448756   -0.594197    1.029147
      5          1           0        1.759765    0.473948   -0.820822
      6          1           0        1.759753    0.473945    0.820829
      7          1           0       -1.448770    1.188363    0.000014
      8          1           0       -1.448768   -0.594176   -1.029159
 ---------------------------------------------------------------------

 Alpha  occ. eigenvalues --  -14.74625  -7.02827  -0.97549  -0.56143  -0.55443
 Alpha  occ. eigenvalues --   -0.55443  -0.38508  -0.38508  -0.35971
 Alpha virt. eigenvalues --   -0.00392   0.02135   0.04826   0.04826   0.06638
 Alpha virt. eigenvalues --    0.08637   0.11025   0.11025   0.17142   0.17142
 Alpha virt. eigenvalues --    0.18162   0.20176   0.20176   0.23146   0.29482

  Beta  occ. eigenvalues --  -14.74625  -7.02827  -0.97549  -0.56143  -0.55443
  Beta  occ. eigenvalues --   -0.55443  -0.38508  -0.38508  -0.35971
  Beta virt. eigenvalues --   -0.00392   0.02135   0.04826   0.04826   0.06638
  Beta virt. eigenvalues --    0.08637   0.11025   0.11025   0.17142   0.17142
  Beta virt. eigenvalues --    0.18162   0.20176   0.20176   0.23146   0.29482

 Mulliken charges and spin densities:
               1          2
     1  B    0.017367   0.000000
     2  N   -0.752089  -0.000000
     3  H    0.259403   0.000000
     4  H   -0.014496  -0.000000
     5  H    0.259404  -0.000000
     6  H    0.259405  -0.000000
     7  H   -0.014499  -0.000000
     8  H   -0.014496  -0.000000
 Sum of Mulliken charges =  -0.00000  -0.00000

 Dipole moment (field-independent basis, Debye):
    X=              2.5823    Y=              0.0002    Z=              0.0000  Tot=              2.5823
 Quadrupole moment (field-independent basis, Debye-Ang):
   XX=            -12.3454   YY=            -15.7824   ZZ=            -15.7825
   XY=              0.0000   XZ=             -0.0000   YZ=              0.0000

 Normal termination of Gaussian 16 at Mon Apr 21 17:37:45 2025.
