 Gaussian 16, Revision A.03,
 Gaussian 16:  ES64L-G16RevA.03 25-Dec-2016

 --------------------------------------------
 #p opt UM062X/6-311+G** nosymm int=superfine
 --------------------------------------------

 -------------------
 Title Card Required
 -------------------
 Symbolic Z-matrix:
 Charge =  0 Multiplicity = 1

 SCF Done:  E(UM062X) =  -581.133168826     A.U. after    9 cycles
 SCF Done:  E(UM062X) =  -581.153880919     A.U. after    8 cycles
 SCF Done:  E(UM062X) =  -581.167508718     A.U. after    9 cycles
 SCF Done:  E(UM062X) =  -581.167528512     A.U. after    8 cycles
 SCF Done:  E(UM062X) =  -581.167528984     A.U. after    8 cycles
 Optimization completed.
    -- Stationary point found.

                          Input orientation:
 ---------------------------------------------------------------------
 Center     Atomic      Atomic             Coordinates (Angstroms)
 Number     Number       Type             X           Y           Z
 ---------------------------------------------------------------------
      1         14           0       -1.837518    0.000000    0.000000
      2         14           0        1.837518    0.000000    0.000000
      3          1           0       -2.912609   -1.078981    0.002958
      4          1           0        2.912609    1.078982    0.002376
      5          1           0       -2.912616    1.078973    0.003286
      6          1           0        2.912616   -1.078971    0.003863
 ---------------------------------------------------------------------

 Alpha  occ. eigenvalues --  -67.00870 -67.00870  -5.55627  -5.55625  -3.86847
 Alpha  occ. eigenvalues --   -3.86847  -3.86314  -3.86314  -3.86193  -3.86193
 Alpha  occ. eigenvalues --   -0.57117  -0.56669  -0.37401  -0.37236  -0.31196
 Alpha  occ. eigenvalues --   -0.25012
 Alpha virt. eigenvalues --   -0.08788  -0.06868   0.01962   0.02084   0.03294
 Alpha virt. eigenvalues --    0.04513   0.05970   0.06013   0.06203   0.06249
 Alpha virt. eigenvalues --    0.09671   0.10224   0.12114   0.14340   0.27713

  Beta  occ. eigenvalues --  -67.00870 -67.00870  -5.55627  -5.55625  -3.86847
  Beta  occ. eigenvalues --   -3.86847  -3.86314  -3.86314  -3.86193  -3.86193
  Beta  occ. eigenvalues --   -0.57117  -0.56669  -0.37401  -0.37236  -0.31196
  Beta  occ. eigenvalues --   -0.25012
  Beta virt. eigenvalues --   -0.08788  -0.06868   0.01962   0.02084   0.03294
  Beta virt. eigenvalues --    0.04513   0.05970   0.06013   0.06203   0.06249
  Beta virt. eigenvalues --    0.09671   0.10224   0.12114   0.14340   0.27713

 Mulliken charges and spin densities:
               1          2
     1  Si   0.317010  -0.000000
     2  Si   0.317010   0.000000
     3  H   -0.158505   0.000000
     4  H   -0.158505  -0.000000
     5  H   -0.158505  -0.000000
     6  H   -0.158505  -0.000000
 Sum of Mulliken charges =  -0.00000   0.00000

 Dipole moment (field-independent basis, Debye):
    X=              0.0000    Y=              0.0000    Z=              0.0006  Tot=              0.0006
 Quadrupole moment (field-independent basis, Debye-Ang):
   XX=            -38.0757   YY=            -32.8940   ZZ=            -24.3953
   XY=             -0.0000   XZ=              0.0000   YZ=              0.0023

 Normal termination of Gaussian 16 at Mon Apr 21 20:32:54 2025.
