 Gaussian 16, Revision A.03,
 Gaussian 16:  ES64L-G16RevA.03 25-Dec-2016

 --------------------------------------------
 #p opt UM062X/6-311+G** nosymm int=superfine
 --------------------------------------------

 -------------------
 Title Card Required
 -------------------
 Symbolic Z-matrix:
 Charge =  0 Multiplicity = 1

 SCF Done:  E(UM062X) =  -78.2662242333     A.U. after    8 cycles
 SCF Done:  E(UM062X) =  -78.2665298286     A.U. after    8 cycles
 SCF Done:  E(UM062X) =  -78.2666667025     A.U. after    8 cycles
 Optimization completed.
    -- Stationary point found.

                          Input orientation:
 ---------------------------------------------------------------------
 Center     Atomic      Atomic             Coordinates (Angstroms)
 Number     Number       Type             X           Y           Z
 ---------------------------------------------------------------------
      1          6           0       -1.210595    0.000000    0.000000
      2          6           0        1.210595    0.000000    0.000000
      3          1           0       -1.630085   -0.992495   -0.000000
      4          1           0       -1.630083    0.992494    0.000000
      5          1           0        1.630085    0.992495   -0.000000
      6          1           0        1.630083   -0.992494   -0.000000
 ---------------------------------------------------------------------

 Alpha  occ. eigenvalues --  -10.62559 -10.62552  -0.76205  -0.73206  -0.53408
 Alpha  occ. eigenvalues --   -0.52033  -0.33095  -0.24239
 Alpha virt. eigenvalues --   -0.09623  -0.04139   0.03374   0.05323   0.05777
 Alpha virt. eigenvalues --    0.07059   0.09383   0.10141   0.11187   0.14594
 Alpha virt. eigenvalues --    0.16294   0.19211   0.21485   0.27363   0.39247

  Beta  occ. eigenvalues --  -10.62559 -10.62552  -0.76205  -0.73206  -0.53408
  Beta  occ. eigenvalues --   -0.52033  -0.33095  -0.24239
  Beta virt. eigenvalues --   -0.09623  -0.04139   0.03374   0.05323   0.05777
  Beta virt. eigenvalues --    0.07059   0.09383   0.10141   0.11187   0.14594
  Beta virt. eigenvalues --    0.16294   0.19211   0.21485   0.27363   0.39247

 Mulliken charges and spin densities:
               1          2
     1  C   -0.378569   0.000000
     2  C   -0.378569  -0.000000
     3  H    0.189285  -0.000000
     4  H    0.189285  -0.000000
     5  H    0.189285   0.000000
     6  H    0.189285   0.000000
 Sum of Mulliken charges =  -0.00000  -0.00000

 Dipole moment (field-independent basis, Debye):
    X=              0.0000    Y=              0.0000    Z=             -0.0000  Tot=              0.0000
 Quadrupole moment (field-independent basis, Debye-Ang):
   XX=            -10.4482   YY=            -11.9311   ZZ=            -18.8188
   XY=              0.0000   XZ=             -0.0000   YZ=             -0.0000

 Normal termination of Gaussian 16 at Tue Dec  3 11:05:47 2024.
