 Gaussian 16, Revision A.03,
 Gaussian 16:  ES64L-G16RevA.03 25-Dec-2016

 ---------------------------------------------------
 #p UM062X/6-311+G** force int=superfine pop=saveNBO
 ---------------------------------------------------

 -------------------
 Title Card Required
 -------------------
 Symbolic Z-matrix:
 Charge =  0 Multiplicity = 1

                         Standard orientation:
 ---------------------------------------------------------------------
 Center     Atomic      Atomic             Coordinates (Angstroms)
 Number     Number       Type             X           Y           Z
 ---------------------------------------------------------------------
      1          6           0        0.000000    0.000000   -1.366249
      2         16           0        0.000000    0.000000    0.512343
 ---------------------------------------------------------------------

 SCF Done:  E(UM062X) =  -436.124266361     A.U. after   11 cycles

 The electronic state is 1-SG.
 Alpha  occ. eigenvalues --  -89.95740 -10.73141  -8.31712  -6.23589  -6.23482
 Alpha  occ. eigenvalues --   -6.23482  -0.84652  -0.62486  -0.39107  -0.36677
 Alpha  occ. eigenvalues --   -0.36677
 Alpha virt. eigenvalues --   -0.10022  -0.10022   0.01880   0.03604   0.05462
 Alpha virt. eigenvalues --    0.05462   0.08802   0.09145   0.10231   0.10231
 Alpha virt. eigenvalues --    0.16643   0.34053   0.34912   0.34912   0.55795

  Beta  occ. eigenvalues --  -89.95740 -10.73141  -8.31712  -6.23589  -6.23482
  Beta  occ. eigenvalues --   -6.23482  -0.84652  -0.62486  -0.39107  -0.36677
  Beta  occ. eigenvalues --   -0.36677
  Beta virt. eigenvalues --   -0.10022  -0.10022   0.01880   0.03604   0.05462
  Beta virt. eigenvalues --    0.05462   0.08802   0.09145   0.10231   0.10231
  Beta virt. eigenvalues --    0.16643   0.34053   0.34912   0.34912   0.55795

 Mulliken charges and spin densities:
               1          2
     1  C    0.012786  -0.000000
     2  S   -0.012786   0.000000
 Sum of Mulliken charges =  -0.00000  -0.00000

 Dipole moment (field-independent basis, Debye):
    X=              0.0000    Y=              0.0000    Z=              0.2953  Tot=              0.2953
 Quadrupole moment (field-independent basis, Debye-Ang):
   XX=            -19.4243   YY=            -19.4243   ZZ=            -19.6321
   XY=              0.0000   XZ=              0.0000   YZ=              0.0000

 Summary of Natural Population Analysis:

                                       Natural Population
                Natural  -----------------------------------------------
    Atom  No    Charge         Core      Valence    Rydberg      Total
 -----------------------------------------------------------------------
      C    1    0.03640      0.99996     1.95757    0.00607     2.96360
      S    2   -0.03640      4.99983     3.02103    0.01554     8.03640
 =======================================================================
   * Total *   -0.00000      5.99979     4.97860    0.02160    11.00000

 Normal termination of Gaussian 16 at Mon Apr 21 19:46:12 2025.
