 Gaussian 16, Revision A.03,
 Gaussian 16:  ES64L-G16RevA.03 25-Dec-2016

 --------------------------------------------
 #p opt UM062X/6-311+G** nosymm int=superfine
 --------------------------------------------

 -------------------
 Title Card Required
 -------------------
 Symbolic Z-matrix:
 Charge =  0 Multiplicity = 1

 SCF Done:  E(UM062X) =  -78.4824368415     A.U. after    9 cycles
 SCF Done:  E(UM062X) =  -78.4960889289     A.U. after    8 cycles
 SCF Done:  E(UM062X) =  -78.4971788890     A.U. after    7 cycles
 SCF Done:  E(UM062X) =  -78.4971809043     A.U. after    6 cycles
 Optimization completed.
    -- Stationary point found.

                          Input orientation:
 ---------------------------------------------------------------------
 Center     Atomic      Atomic             Coordinates (Angstroms)
 Number     Number       Type             X           Y           Z
 ---------------------------------------------------------------------
      1          6           0       -0.563441    0.000000    0.000000
      2          6           0        0.563441    0.000000    0.000000
      3          1           0       -1.171821   -0.904306   -0.000000
      4          1           0       -1.171821    0.904298   -0.000000
      5          1           0        1.171821    0.904306    0.000000
      6          1           0        1.171821   -0.904298    0.000000
 ---------------------------------------------------------------------

 Alpha  occ. eigenvalues --  -10.50656 -10.50188  -0.91170  -0.64281  -0.56185
 Alpha  occ. eigenvalues --   -0.51436  -0.37932  -0.37842
 Alpha virt. eigenvalues --    0.03378   0.04221   0.04751   0.05673   0.07139
 Alpha virt. eigenvalues --    0.08563   0.09782   0.16115   0.16141   0.17847
 Alpha virt. eigenvalues --    0.18994   0.24269   0.33073   0.39979   0.43846

  Beta  occ. eigenvalues --  -10.50656 -10.50188  -0.91170  -0.64281  -0.56185
  Beta  occ. eigenvalues --   -0.51436  -0.37932  -0.37842
  Beta virt. eigenvalues --    0.03378   0.04221   0.04751   0.05673   0.07139
  Beta virt. eigenvalues --    0.08563   0.09782   0.16115   0.16141   0.17847
  Beta virt. eigenvalues --    0.18994   0.24269   0.33073   0.39979   0.43846

 Mulliken charges and spin densities:
               1          2
     1  C   -0.271950  -0.000000
     2  C   -0.271950   0.000000
     3  H    0.135974   0.000000
     4  H    0.135975   0.000000
     5  H    0.135974  -0.000000
     6  H    0.135975  -0.000000
 Sum of Mulliken charges =  -0.00000  -0.00000

 Dipole moment (field-independent basis, Debye):
    X=              0.0000    Y=              0.0000    Z=             -0.0000  Tot=              0.0000
 Quadrupole moment (field-independent basis, Debye-Ang):
   XX=            -12.4321   YY=            -12.3458   ZZ=            -14.9771
   XY=             -0.0000   XZ=              0.0000   YZ=             -0.0000

 Normal termination of Gaussian 16 at Tue Nov 19 10:30:44 2024.
