 Gaussian 16, Revision A.03,
 Gaussian 16:  ES64L-G16RevA.03 25-Dec-2016

 --------------------------------------------
 #p opt UM062X/6-311+G** nosymm int=superfine
 --------------------------------------------

 -------------------
 Title Card Required
 -------------------
 Symbolic Z-matrix:
 Charge =  0 Multiplicity = 3

 SCF Done:  E(UM062X) =  -50.4782601097     A.U. after   13 cycles
 SCF Done:  E(UM062X) =  -50.4791749896     A.U. after   10 cycles
 SCF Done:  E(UM062X) =  -50.4791821119     A.U. after   11 cycles
 Optimization completed.
    -- Stationary point found.

                          Input orientation:
 ---------------------------------------------------------------------
 Center     Atomic      Atomic             Coordinates (Angstroms)
 Number     Number       Type             X           Y           Z
 ---------------------------------------------------------------------
      1          5           0       -1.953410    0.000000    0.000000
      2          5           0        1.953410    0.000000    0.000000
      3          1           0       -3.158869   -0.000082   -0.000000
      4          1           0        3.158869    0.000082   -0.000000
 ---------------------------------------------------------------------

 Alpha  occ. eigenvalues --   -7.14424  -7.14424  -0.56904  -0.56721  -0.33498
 Alpha  occ. eigenvalues --   -0.30761  -0.17814
 Alpha virt. eigenvalues --   -0.10112  -0.06428  -0.05456   0.02689   0.02867
 Alpha virt. eigenvalues --    0.05719   0.07006   0.07112   0.08001   0.08114
 Alpha virt. eigenvalues --    0.11494   0.16683   0.22091   0.33248   0.39458

  Beta  occ. eigenvalues --   -7.13518  -7.13518  -0.53602  -0.53459  -0.23844
  Beta virt. eigenvalues --   -0.11467  -0.04552  -0.04040  -0.03152  -0.02619
  Beta virt. eigenvalues --    0.01866   0.02431   0.07037   0.07311   0.07892
  Beta virt. eigenvalues --    0.08056   0.08899   0.09588   0.17104   0.23445

 Mulliken charges and spin densities:
               1          2
     1  B   -0.062412   0.926858
     2  B   -0.062412   0.926858
     3  H    0.062412   0.073142
     4  H    0.062412   0.073142
 Sum of Mulliken charges =  -0.00000   2.00000

 Dipole moment (field-independent basis, Debye):
    X=             -0.0000    Y=              0.0000    Z=             -0.0000  Tot=              0.0000
 Quadrupole moment (field-independent basis, Debye-Ang):
   XX=             -7.7496   YY=            -13.6790   ZZ=            -17.6869
   XY=              0.0000   XZ=              0.0000   YZ=              0.0051

 1\1\GINC-NODE06\FOpt\UM062X\6-311+G(d,p)\B2H2(3)\SZHAO\21-Apr-2025\0\\
 #p opt UM062X/6-311+G** nosymm int=superfine\\Title Card Required\\0,3
 \B,-1.95341047,0.,0.\B,1.95341047,0.,0.\H,-3.1588686476,-0.0000822435,
 -0.0000002362\H,3.1588686433,0.0000822439,-0.0000000273\\Version=ES64L
 -G16RevA.03\HF=-50.4791821\S2=2.021225\S2-1=0.\S2A=2.000018\RMSD=7.943
 e-09\RMSF=4.361e-07\Dipole=-0.0000005,0.,0.\Quadrupole=3.9321936,-0.47
 62074,-3.4559862,0.0000137,0.,0.003788\PG=C*V [C*(H1B1B1H1)]\\@

 Normal termination of Gaussian 16 at Mon Apr 21 17:29:34 2025.
