 Gaussian 16, Revision A.03,
 Gaussian 16:  ES64L-G16RevA.03 25-Dec-2016

 --------------------------------------------
 #p opt UM062X/6-311+G** nosymm int=superfine
 --------------------------------------------

 -------------------
 Title Card Required
 -------------------
 Symbolic Z-matrix:
 Charge =  0 Multiplicity = 1

 SCF Done:  E(UM062X) =  -78.5314636045     A.U. after    8 cycles
 SCF Done:  E(UM062X) =  -78.5373006889     A.U. after    8 cycles
 SCF Done:  E(UM062X) =  -78.5376888220     A.U. after    7 cycles
 SCF Done:  E(UM062X) =  -78.5376899243     A.U. after    6 cycles
 Optimization completed.
    -- Stationary point found.

                          Input orientation:
 ---------------------------------------------------------------------
 Center     Atomic      Atomic             Coordinates (Angstroms)
 Number     Number       Type             X           Y           Z
 ---------------------------------------------------------------------
      1          6           0       -0.596585    0.000000    0.000000
      2          6           0        0.596585    0.000000    0.000000
      3          1           0       -1.190378   -0.911257   -0.000000
      4          1           0       -1.190394    0.911224   -0.000000
      5          1           0        1.190378    0.911257    0.000000
      6          1           0        1.190394   -0.911224    0.000000
 ---------------------------------------------------------------------

 Alpha  occ. eigenvalues --  -10.51692 -10.51410  -0.89456  -0.64969  -0.55455
 Alpha  occ. eigenvalues --   -0.50582  -0.39256  -0.36303
 Alpha virt. eigenvalues --    0.03393   0.04184   0.04807   0.04897   0.07336
 Alpha virt. eigenvalues --    0.08439   0.09759   0.15038   0.16101   0.17675
 Alpha virt. eigenvalues --    0.19397   0.23924   0.32476   0.38941   0.44114

  Beta  occ. eigenvalues --  -10.51692 -10.51410  -0.89456  -0.64969  -0.55455
  Beta  occ. eigenvalues --   -0.50582  -0.39256  -0.36303
  Beta virt. eigenvalues --    0.03393   0.04184   0.04807   0.04897   0.07336
  Beta virt. eigenvalues --    0.08439   0.09759   0.15038   0.16101   0.17675
  Beta virt. eigenvalues --    0.19397   0.23924   0.32476   0.38941   0.44114

 Mulliken charges and spin densities:
               1          2
     1  C   -0.279934   0.000000
     2  C   -0.279934  -0.000000
     3  H    0.139965  -0.000000
     4  H    0.139969  -0.000000
     5  H    0.139965   0.000000
     6  H    0.139969   0.000000
 Sum of Mulliken charges =  -0.00000   0.00000

 Dipole moment (field-independent basis, Debye):
    X=              0.0000    Y=              0.0000    Z=              0.0000  Tot=              0.0000
 Quadrupole moment (field-independent basis, Debye-Ang):
   XX=            -12.3818   YY=            -12.3329   ZZ=            -15.2925
   XY=             -0.0001   XZ=              0.0000   YZ=             -0.0000

 Normal termination of Gaussian 16 at Tue Nov 19 10:33:04 2024.
