 Gaussian 16, Revision A.03,
 Gaussian 16:  ES64L-G16RevA.03 25-Dec-2016

 --------------------------------------------
 #p opt UM062X/6-311+G** nosymm int=superfine
 --------------------------------------------

 -------------------
 Title Card Required
 -------------------
 Symbolic Z-matrix:
 Charge =  0 Multiplicity = 1

 SCF Done:  E(UM062X) =  -684.940207893     A.U. after   11 cycles
 SCF Done:  E(UM062X) =  -684.941513212     A.U. after   11 cycles
 SCF Done:  E(UM062X) =  -684.942548920     A.U. after   11 cycles
 SCF Done:  E(UM062X) =  -684.942825583     A.U. after   10 cycles
 SCF Done:  E(UM062X) =  -684.942899033     A.U. after   13 cycles
 SCF Done:  E(UM062X) =  -684.942928390     A.U. after   10 cycles
 SCF Done:  E(UM062X) =  -684.942952881     A.U. after   10 cycles
 SCF Done:  E(UM062X) =  -684.942984864     A.U. after   12 cycles
 SCF Done:  E(UM062X) =  -684.943007447     A.U. after   10 cycles
 SCF Done:  E(UM062X) =  -684.943027790     A.U. after   10 cycles
 SCF Done:  E(UM062X) =  -684.943157567     A.U. after   12 cycles
 SCF Done:  E(UM062X) =  -684.943158518     A.U. after    9 cycles
 SCF Done:  E(UM062X) =  -684.943158439     A.U. after   12 cycles
 SCF Done:  E(UM062X) =  -684.943157462     A.U. after   10 cycles
 SCF Done:  E(UM062X) =  -684.943158348     A.U. after   12 cycles
 SCF Done:  E(UM062X) =  -684.943137799     A.U. after   11 cycles
 SCF Done:  E(UM062X) =  -684.943157916     A.U. after   12 cycles
 SCF Done:  E(UM062X) =  -684.943158488     A.U. after    9 cycles
 SCF Done:  E(UM062X) =  -684.943159166     A.U. after   12 cycles
 SCF Done:  E(UM062X) =  -684.943159185     A.U. after    8 cycles
 Optimization completed.
    -- Stationary point found.

                          Input orientation:
 ---------------------------------------------------------------------
 Center     Atomic      Atomic             Coordinates (Angstroms)
 Number     Number       Type             X           Y           Z
 ---------------------------------------------------------------------
      1         15           0       -1.942217    0.000000    0.000000
      2         15           0        1.942217    0.000000    0.000000
      3          1           0        1.870743   -1.036808    0.965684
      4          1           0       -1.865249    1.082945    0.913161
      5          1           0        1.869116   -0.927472   -1.071233
      6          1           0       -1.866796    0.873358   -1.115623
 ---------------------------------------------------------------------

 Alpha  occ. eigenvalues --  -78.05043 -78.05041  -6.87404  -6.87402  -4.98957
 Alpha  occ. eigenvalues --   -4.98955  -4.98830  -4.98829  -4.98647  -4.98646
 Alpha  occ. eigenvalues --   -0.71289  -0.70581  -0.45096  -0.44770  -0.36261
 Alpha  occ. eigenvalues --   -0.35948  -0.25794
 Alpha virt. eigenvalues --   -0.13441   0.01658   0.02910   0.03245   0.04059
 Alpha virt. eigenvalues --    0.04832   0.05895   0.06082   0.06085   0.06405
 Alpha virt. eigenvalues --    0.08182   0.14816   0.18652   0.28274   0.28778

  Beta  occ. eigenvalues --  -78.05043 -78.05041  -6.87404  -6.87402  -4.98957
  Beta  occ. eigenvalues --   -4.98955  -4.98830  -4.98829  -4.98647  -4.98646
  Beta  occ. eigenvalues --   -0.71289  -0.70581  -0.45096  -0.44770  -0.36261
  Beta  occ. eigenvalues --   -0.35948  -0.25794
  Beta virt. eigenvalues --   -0.13441   0.01658   0.02910   0.03245   0.04059
  Beta virt. eigenvalues --    0.04832   0.05895   0.06082   0.06085   0.06405
  Beta virt. eigenvalues --    0.08182   0.14816   0.18652   0.28274   0.28778

 Mulliken charges and spin densities:
               1          2
     1  P   -0.018077   0.000000
     2  P   -0.018612  -0.000000
     3  H    0.009747   0.000000
     4  H    0.009807  -0.000000
     5  H    0.008569   0.000000
     6  H    0.008565  -0.000000
 Sum of Mulliken charges =  -0.00000  -0.00000

 Dipole moment (field-independent basis, Debye):
    X=              0.0012    Y=             -0.0023    Z=             -0.1363  Tot=              0.1363
 Quadrupole moment (field-independent basis, Debye-Ang):
   XX=            -28.6566   YY=            -31.2276   ZZ=            -28.5237
   XY=             -4.0732   XZ=              0.1027   YZ=              0.0669

 Normal termination of Gaussian 16 at Mon Apr 21 20:56:01 2025.
