 Gaussian 16, Revision A.03,
 Gaussian 16:  ES64L-G16RevA.03 25-Dec-2016

 ---------------------------------------------------------
 #p opt UM062X/6-311+G** nosymm int=superfine SCF=NoVarAcc
 ---------------------------------------------------------

 -------------------
 Title Card Required
 -------------------
 Symbolic Z-matrix:
 Charge =  1 Multiplicity = 2

 SCF Done:  E(UM062X) =  -76.5847374626     A.U. after   28 cycles
 SCF Done:  E(UM062X) =  -76.5850931462     A.U. after   19 cycles
 Optimization completed.
    -- Stationary point found.

                          Input orientation:
 ---------------------------------------------------------------------
 Center     Atomic      Atomic             Coordinates (Angstroms)
 Number     Number       Type             X           Y           Z
 ---------------------------------------------------------------------
      1          6           0       -7.882160    0.000000    0.000000
      2          6           0        7.882160    0.000000    0.000000
      3          1           0       -9.000211   -0.000000    0.000000
      4          1           0        9.000210   -0.000000   -0.000000
 ---------------------------------------------------------------------

 Alpha  occ. eigenvalues --  -10.90750 -10.90750  -0.94550  -0.94549  -0.59558
 Alpha  occ. eigenvalues --   -0.59558  -0.41587
 Alpha virt. eigenvalues --   -0.39784  -0.29483  -0.29483  -0.08533  -0.08532
 Alpha virt. eigenvalues --   -0.03192  -0.03192  -0.03024  -0.03024  -0.02914
 Alpha virt. eigenvalues --   -0.02913   0.02896   0.02896   0.31152   0.31153

  Beta  occ. eigenvalues --  -10.90336 -10.90336  -0.92189  -0.92189  -0.58165
  Beta  occ. eigenvalues --   -0.58165
  Beta virt. eigenvalues --   -0.27601  -0.27601  -0.25969  -0.25969  -0.08730
  Beta virt. eigenvalues --   -0.08730  -0.02929  -0.02929  -0.02395  -0.02395
  Beta virt. eigenvalues --   -0.01469  -0.01469   0.04700   0.04700   0.30494

 Mulliken charges and spin densities:
               1          2
     1  C    0.299495   0.515431
     2  C    0.299495   0.515431
     3  H    0.200505  -0.015431
     4  H    0.200505  -0.015431
 Sum of Mulliken charges =   1.00000   1.00000

 Dipole moment (field-independent basis, Debye):
    X=              0.0000    Y=              0.0000    Z=              0.0000  Tot=              0.0000
 Quadrupole moment (field-independent basis, Debye-Ang):
   XX=            348.7637   YY=            -11.0295   ZZ=             -9.8829
   XY=              0.0000   XZ=             -0.0000   YZ=              0.8079

 Normal termination of Gaussian 16 at Tue Dec  3 17:45:16 2024.
