 Gaussian 16, Revision A.03,
 Gaussian 16:  ES64L-G16RevA.03 25-Dec-2016

 --------------------------------------------
 #p opt UM062X/6-311+G** nosymm int=superfine
 --------------------------------------------

 -------------------
 Title Card Required
 -------------------
 Symbolic Z-matrix:
 Charge =  0 Multiplicity = 1

 SCF Done:  E(UM062X) =  -78.4802173199     A.U. after    8 cycles
 SCF Done:  E(UM062X) =  -78.4993164013     A.U. after    8 cycles
 SCF Done:  E(UM062X) =  -78.5036272900     A.U. after    8 cycles
 SCF Done:  E(UM062X) =  -78.5039154328     A.U. after    7 cycles
 SCF Done:  E(UM062X) =  -78.5039170888     A.U. after    6 cycles
 Optimization completed.
    -- Stationary point found.

                          Input orientation:
 ---------------------------------------------------------------------
 Center     Atomic      Atomic             Coordinates (Angstroms)
 Number     Number       Type             X           Y           Z
 ---------------------------------------------------------------------
      1          6           0       -0.808704    0.000000    0.000000
      2          6           0        0.808704    0.000000    0.000000
      3          1           0       -1.328531   -0.946789   -0.000000
      4          1           0       -1.328548    0.946755   -0.000000
      5          1           0        1.328531    0.946789   -0.000000
      6          1           0        1.328548   -0.946755   -0.000000
 ---------------------------------------------------------------------

 Alpha  occ. eigenvalues --  -10.57855 -10.57821  -0.80898  -0.68843  -0.53171
 Alpha  occ. eigenvalues --   -0.46093  -0.43999  -0.29430
 Alpha virt. eigenvalues --   -0.01863   0.03378   0.03689   0.05343   0.07759
 Alpha virt. eigenvalues --    0.08424   0.09730   0.12003   0.15820   0.16857
 Alpha virt. eigenvalues --    0.20602   0.20767   0.25823   0.29600   0.41634

  Beta  occ. eigenvalues --  -10.57855 -10.57821  -0.80898  -0.68843  -0.53171
  Beta  occ. eigenvalues --   -0.46093  -0.43999  -0.29430
  Beta virt. eigenvalues --   -0.01863   0.03378   0.03689   0.05343   0.07759
  Beta virt. eigenvalues --    0.08424   0.09730   0.12003   0.15820   0.16857
  Beta virt. eigenvalues --    0.20602   0.20767   0.25823   0.29600   0.41634

 Mulliken charges and spin densities:
               1          2
     1  C   -0.328333  -0.000000
     2  C   -0.328332   0.000000
     3  H    0.164166   0.000000
     4  H    0.164167   0.000000
     5  H    0.164166   0.000000
     6  H    0.164167   0.000000
 Sum of Mulliken charges =  -0.00000   0.00000

 Dipole moment (field-independent basis, Debye):
    X=              0.0000    Y=             -0.0000    Z=             -0.0000  Tot=              0.0000
 Quadrupole moment (field-independent basis, Debye-Ang):
   XX=            -11.9035   YY=            -12.2386   ZZ=            -17.0458
   XY=             -0.0000   XZ=              0.0000   YZ=              0.0000

 Normal termination of Gaussian 16 at Tue Nov 19 10:45:44 2024.
