 Gaussian 16, Revision A.03,
 Gaussian 16:  ES64L-G16RevA.03 25-Dec-2016

 --------------------------------------------
 #p opt UM062X/6-311+G** nosymm int=superfine
 --------------------------------------------

 -------------------
 Title Card Required
 -------------------
 Symbolic Z-matrix:
 Charge =  0 Multiplicity = 1

 SCF Done:  E(UM062X) =  -95.6223716174     A.U. after   13 cycles
 SCF Done:  E(UM062X) =  -95.6394960734     A.U. after   12 cycles
 SCF Done:  E(UM062X) =  -95.6505086674     A.U. after   12 cycles
 SCF Done:  E(UM062X) =  -95.6507488874     A.U. after   11 cycles
 SCF Done:  E(UM062X) =  -95.6508293686     A.U. after    9 cycles
 SCF Done:  E(UM062X) =  -95.6508528765     A.U. after   11 cycles
 SCF Done:  E(UM062X) =  -95.6508572018     A.U. after    9 cycles
 SCF Done:  E(UM062X) =  -95.6508601230     A.U. after    9 cycles
 SCF Done:  E(UM062X) =  -95.6508608986     A.U. after   11 cycles
 Optimization completed.
    -- Stationary point found.

                          Input orientation:
 ---------------------------------------------------------------------
 Center     Atomic      Atomic             Coordinates (Angstroms)
 Number     Number       Type             X           Y           Z
 ---------------------------------------------------------------------
      1          6           0       -1.505542    0.000000    0.000000
      2          7           0        1.505542    0.000000    0.000000
      3          1           0        1.488142   -1.016036    0.138863
      4          1           0       -1.550673    1.079286    0.005638
      5          1           0        1.488104    0.367067    0.957534
      6          1           0       -1.550503   -0.521968   -0.944698
      7          1           0       -1.662657   -0.545786    0.919592
 ---------------------------------------------------------------------

 Alpha  occ. eigenvalues --  -14.75115 -10.61459  -0.90263  -0.80106  -0.52254
 Alpha  occ. eigenvalues --   -0.52072  -0.50641  -0.35999  -0.27258
 Alpha virt. eigenvalues --   -0.11107   0.01706   0.04827   0.05304   0.06858
 Alpha virt. eigenvalues --    0.10149   0.13284   0.15956   0.16726   0.17386
 Alpha virt. eigenvalues --    0.19407   0.21217   0.22231   0.30211   0.41297

  Beta  occ. eigenvalues --  -14.75115 -10.61459  -0.90263  -0.80106  -0.52254
  Beta  occ. eigenvalues --   -0.52072  -0.50641  -0.35999  -0.27258
  Beta virt. eigenvalues --   -0.11107   0.01706   0.04827   0.05304   0.06858
  Beta virt. eigenvalues --    0.10149   0.13284   0.15956   0.16726   0.17386
  Beta virt. eigenvalues --    0.19407   0.21217   0.22231   0.30211   0.41297

 Mulliken charges and spin densities:
               1          2
     1  C   -0.428922  -0.000000
     2  N   -0.594174   0.000000
     3  H    0.219449  -0.000000
     4  H    0.199843   0.000000
     5  H    0.219447  -0.000000
     6  H    0.199879   0.000000
     7  H    0.184479  -0.000000
 Sum of Mulliken charges =  -0.00000  -0.00000

 Dipole moment (field-independent basis, Debye):
    X=             -2.7639    Y=             -0.9723    Z=              1.6427  Tot=              3.3590
 Quadrupole moment (field-independent basis, Debye-Ang):
   XX=            -15.2495   YY=            -13.3646   ZZ=            -14.1684
   XY=             -1.6020   XZ=              2.7064   YZ=              0.7325

 Normal termination of Gaussian 16 at Mon Apr 21 18:13:46 2025.
