 Gaussian 16, Revision A.03,
 Gaussian 16:  ES64L-G16RevA.03 25-Dec-2016

 --------------------------------------------
 #p opt UM062X/6-311+G** nosymm int=superfine
 --------------------------------------------

 -------------------
 Title Card Required
 -------------------
 Symbolic Z-matrix:
 Charge =  0 Multiplicity = 1

 SCF Done:  E(UM062X) =  -81.7538304431     A.U. after   16 cycles
 SCF Done:  E(UM062X) =  -81.7608190560     A.U. after   13 cycles
 SCF Done:  E(UM062X) =  -81.7651649310     A.U. after   13 cycles
 SCF Done:  E(UM062X) =  -81.7736120527     A.U. after   15 cycles
 SCF Done:  E(UM062X) =  -81.7856617367     A.U. after   14 cycles
 SCF Done:  E(UM062X) =  -81.7876587460     A.U. after   13 cycles
 SCF Done:  E(UM062X) =  -81.7898068460     A.U. after   12 cycles
 SCF Done:  E(UM062X) =  -81.7907435897     A.U. after   14 cycles
 SCF Done:  E(UM062X) =  -81.7908008014     A.U. after   11 cycles
 SCF Done:  E(UM062X) =  -81.7908037988     A.U. after   10 cycles
 SCF Done:  E(UM062X) =  -81.7908038425     A.U. after    8 cycles
 Optimization completed.
    -- Stationary point found.

                          Input orientation:
 ---------------------------------------------------------------------
 Center     Atomic      Atomic             Coordinates (Angstroms)
 Number     Number       Type             X           Y           Z
 ---------------------------------------------------------------------
      1          5           0       -1.445399    0.000000    0.000000
      2          7           0        1.445399    0.000000    0.000000
      3          1           0       -1.828127   -1.108186   -0.029638
      4          1           0        1.499186    0.803810    0.632613
      5          1           0       -1.828119    1.108307   -0.024808
      6          1           0        1.499196   -0.806632    0.629011
 ---------------------------------------------------------------------

 Alpha  occ. eigenvalues --  -14.72138  -7.17057  -0.87790  -0.61769  -0.50046
 Alpha  occ. eigenvalues --   -0.48480  -0.33808  -0.26509
 Alpha virt. eigenvalues --   -0.07770  -0.06341   0.01112   0.03045   0.04213
 Alpha virt. eigenvalues --    0.05287   0.10502   0.12692   0.13747   0.17289
 Alpha virt. eigenvalues --    0.20520   0.20970   0.21398   0.29921   0.32804

  Beta  occ. eigenvalues --  -14.72138  -7.17057  -0.87790  -0.61769  -0.50046
  Beta  occ. eigenvalues --   -0.48480  -0.33808  -0.26509
  Beta virt. eigenvalues --   -0.07770  -0.06341   0.01112   0.03045   0.04213
  Beta virt. eigenvalues --    0.05287   0.10502   0.12692   0.13747   0.17289
  Beta virt. eigenvalues --    0.20520   0.20970   0.21398   0.29921   0.32804

 Mulliken charges and spin densities:
               1          2
     1  B    0.183905   0.000009
     2  N   -0.726600  -0.000009
     3  H    0.054766  -0.000000
     4  H    0.216582   0.000000
     5  H    0.054765  -0.000000
     6  H    0.216582   0.000000
 Sum of Mulliken charges =  -0.00000   0.00000

 Dipole moment (field-independent basis, Debye):
    X=             -3.9984    Y=             -0.0040    Z=              1.7697  Tot=              4.3726
 Quadrupole moment (field-independent basis, Debye-Ang):
   XX=            -14.5028   YY=            -13.4079   ZZ=            -14.4660
   XY=             -0.0068   XZ=              3.0318   YZ=              0.0024

 Normal termination of Gaussian 16 at Mon Apr 21 17:49:52 2025.
