 Gaussian 16, Revision A.03,
 Gaussian 16:  ES64L-G16RevA.03 25-Dec-2016

 --------------------------------------------
 #p opt UM062X/6-311+G** nosymm int=superfine
 --------------------------------------------

 -------------------
 Title Card Required
 -------------------
 Symbolic Z-matrix:
 Charge = -1 Multiplicity = 2

 SCF Done:  E(UM062X) =  -50.5485299445     A.U. after   15 cycles
 SCF Done:  E(UM062X) =  -50.5542524621     A.U. after   14 cycles
 SCF Done:  E(UM062X) =  -50.5547700994     A.U. after   14 cycles
 Optimization completed.
    -- Stationary point found.

                          Input orientation:
 ---------------------------------------------------------------------
 Center     Atomic      Atomic             Coordinates (Angstroms)
 Number     Number       Type             X           Y           Z
 ---------------------------------------------------------------------
      1          5           0       -1.591404    0.000000    0.000000
      2          5           0        1.591404    0.000000    0.000000
      3          1           0       -2.877322   -0.000971   -0.000000
      4          1           0        2.877322    0.000971    0.000000
 ---------------------------------------------------------------------

 Alpha  occ. eigenvalues --   -6.90246  -6.90245  -0.33556  -0.33095  -0.10699
 Alpha  occ. eigenvalues --   -0.03500   0.02277
 Alpha virt. eigenvalues --    0.12323   0.12472   0.14869   0.15840   0.16454
 Alpha virt. eigenvalues --    0.22061   0.22254   0.22529   0.22723   0.23903
 Alpha virt. eigenvalues --    0.25990   0.34691   0.38113   0.53219   0.58098

  Beta  occ. eigenvalues --   -6.90169  -6.90168  -0.32486  -0.32199  -0.09485
  Beta  occ. eigenvalues --   -0.02522
  Beta virt. eigenvalues --    0.10259   0.11361   0.13043   0.13543   0.13682
  Beta virt. eigenvalues --    0.14203   0.19019   0.20380   0.20558   0.21497
  Beta virt. eigenvalues --    0.22024   0.22756   0.34360   0.38175   0.52788

 Mulliken charges and spin densities:
               1          2
     1  B   -0.398370   0.508304
     2  B   -0.398370   0.508304
     3  H   -0.101630  -0.008304
     4  H   -0.101630  -0.008304
 Sum of Mulliken charges =  -1.00000   1.00000

 Dipole moment (field-independent basis, Debye):
    X=              0.0000    Y=             -0.0000    Z=             -0.0000  Tot=              0.0000
 Quadrupole moment (field-independent basis, Debye-Ang):
   XX=            -38.0947   YY=            -19.2180   ZZ=            -26.8066
   XY=             -0.0017   XZ=             -0.0000   YZ=              0.0000

 Normal termination of Gaussian 16 at Mon Apr 21 17:32:09 2025.
