 Gaussian 16, Revision A.03,
 Gaussian 16:  ES64L-G16RevA.03 25-Dec-2016

 --------------------------------------------
 #p opt UM062X/6-311+G** nosymm int=superfine
 --------------------------------------------

 -------------------
 Title Card Required
 -------------------
 Symbolic Z-matrix:
 Charge =  0 Multiplicity = 1

 SCF Done:  E(UM062X) =  -81.6915774583     A.U. after   26 cycles
 SCF Done:  E(UM062X) =  -81.7057238293     A.U. after   16 cycles
 SCF Done:  E(UM062X) =  -81.7118037130     A.U. after   16 cycles
 SCF Done:  E(UM062X) =  -81.7135861352     A.U. after   16 cycles
 SCF Done:  E(UM062X) =  -81.7166759463     A.U. after   15 cycles
 SCF Done:  E(UM062X) =  -81.7183616089     A.U. after   17 cycles
 SCF Done:  E(UM062X) =  -81.7185905089     A.U. after   12 cycles
 SCF Done:  E(UM062X) =  -81.7188645925     A.U. after   14 cycles
 SCF Done:  E(UM062X) =  -81.7190689299     A.U. after   14 cycles
 SCF Done:  E(UM062X) =  -81.7191461117     A.U. after   13 cycles
 SCF Done:  E(UM062X) =  -81.7191688275     A.U. after   13 cycles
 SCF Done:  E(UM062X) =  -81.7191699071     A.U. after   13 cycles
 Optimization completed.
    -- Stationary point found.

                          Input orientation:
 ---------------------------------------------------------------------
 Center     Atomic      Atomic             Coordinates (Angstroms)
 Number     Number       Type             X           Y           Z
 ---------------------------------------------------------------------
      1          5           0       -2.045399    0.000000    0.000000
      2          7           0        2.045399    0.000000    0.000000
      3          1           0       -2.362988   -1.127557   -0.027315
      4          1           0        2.019351    0.802494    0.637751
      5          1           0       -2.362989    1.127544   -0.027868
      6          1           0        2.019353   -0.802189    0.638136
 ---------------------------------------------------------------------

 Alpha  occ. eigenvalues --  -14.71496  -7.18660  -0.87277  -0.63466  -0.52238
 Alpha  occ. eigenvalues --   -0.47941  -0.33190  -0.22463
 Alpha virt. eigenvalues --   -0.12265  -0.09345   0.00491   0.02520   0.04151
 Alpha virt. eigenvalues --    0.04986   0.08926   0.11187   0.13531   0.17385
 Alpha virt. eigenvalues --    0.19729   0.20046   0.21767   0.26299   0.32039

  Beta  occ. eigenvalues --  -14.71496  -7.18660  -0.87277  -0.63466  -0.52238
  Beta  occ. eigenvalues --   -0.47941  -0.33190  -0.22463
  Beta virt. eigenvalues --   -0.12265  -0.09345   0.00491   0.02520   0.04151
  Beta virt. eigenvalues --    0.04986   0.08926   0.11187   0.13531   0.17385
  Beta virt. eigenvalues --    0.19729   0.20046   0.21767   0.26299   0.32039

 Mulliken charges and spin densities:
               1          2
     1  B    0.137417  -0.000000
     2  N   -0.681190   0.000000
     3  H    0.071703  -0.000000
     4  H    0.200183  -0.000000
     5  H    0.071703  -0.000000
     6  H    0.200183  -0.000000
 Sum of Mulliken charges =  -0.00000   0.00000

 Dipole moment (field-independent basis, Debye):
    X=             -5.8994    Y=              0.0005    Z=              1.8944  Tot=              6.1961
 Quadrupole moment (field-independent basis, Debye-Ang):
   XX=            -13.8150   YY=            -13.4665   ZZ=            -14.6421
   XY=              0.0010   XZ=              4.0900   YZ=             -0.0003

 Normal termination of Gaussian 16 at Mon Apr 21 17:55:44 2025.
