 Gaussian 16, Revision A.03,
 Gaussian 16:  ES64L-G16RevA.03 25-Dec-2016

 --------------------------------------------
 #p opt UM062X/6-311+G** nosymm int=superfine
 --------------------------------------------

 -------------------
 Title Card Required
 -------------------
 Symbolic Z-matrix:
 Charge =  0 Multiplicity = 1

 SCF Done:  E(UM062X) =  -110.160574052     A.U. after   12 cycles
 SCF Done:  E(UM062X) =  -110.161663428     A.U. after   14 cycles
 SCF Done:  E(UM062X) =  -110.164328900     A.U. after   16 cycles
 SCF Done:  E(UM062X) =  -110.165848155     A.U. after   19 cycles
 SCF Done:  E(UM062X) =  -110.165913983     A.U. after   17 cycles
 SCF Done:  E(UM062X) =  -110.165926515     A.U. after   15 cycles
 SCF Done:  E(UM062X) =  -110.165926571     A.U. after    9 cycles
 Optimization completed.
    -- Stationary point found.

                          Input orientation:
 ---------------------------------------------------------------------
 Center     Atomic      Atomic             Coordinates (Angstroms)
 Number     Number       Type             X           Y           Z
 ---------------------------------------------------------------------
      1          7           0       -1.865428    0.000000    0.000000
      2          7           0        1.865428    0.000000    0.000000
      3          1           0       -1.625069   -1.011223   -0.000000
      4          1           0        1.625069    1.011223   -0.000000
 ---------------------------------------------------------------------

 Alpha  occ. eigenvalues --  -14.88341 -14.88340  -0.92753  -0.92353  -0.49037
 Alpha  occ. eigenvalues --   -0.48842  -0.30586  -0.29737
 Alpha virt. eigenvalues --   -0.21900  -0.20893   0.04849   0.06887   0.10816
 Alpha virt. eigenvalues --    0.11338   0.12989   0.14373   0.15193   0.17315
 Alpha virt. eigenvalues --    0.18694   0.22661   0.53307   0.54519   0.74819

  Beta  occ. eigenvalues --  -14.88341 -14.88340  -0.92753  -0.92353  -0.49037
  Beta  occ. eigenvalues --   -0.48842  -0.30586  -0.29737
  Beta virt. eigenvalues --   -0.21900  -0.20893   0.04849   0.06887   0.10816
  Beta virt. eigenvalues --    0.11338   0.12989   0.14373   0.15193   0.17315
  Beta virt. eigenvalues --    0.18694   0.22661   0.53307   0.54519   0.74819

 Mulliken charges and spin densities:
               1          2
     1  N   -0.233844  -0.000009
     2  N   -0.233846   0.000009
     3  H    0.233845  -0.000000
     4  H    0.233845   0.000000
 Sum of Mulliken charges =  -0.00000   0.00000

 Dipole moment (field-independent basis, Debye):
    X=             -0.0000    Y=             -0.0000    Z=             -0.0000  Tot=              0.0000
 Quadrupole moment (field-independent basis, Debye-Ang):
   XX=            -15.3410   YY=            -11.3254   ZZ=            -14.1866
   XY=              6.1221   XZ=              0.0000   YZ=              0.0000

 Normal termination of Gaussian 16 at Thu May 15 15:44:45 2025.
