 Gaussian 16, Revision A.03,
 Gaussian 16:  ES64L-G16RevA.03 25-Dec-2016

 ---------------------------------------------------------
 #p opt UM062X/6-311+G** nosymm int=superfine SCF=NoVarAcc
 ---------------------------------------------------------

 -------------------
 Title Card Required
 -------------------
 Symbolic Z-matrix:
 Charge =  1 Multiplicity = 2

 SCF Done:  E(UM062X) =  -77.9103556601     A.U. after   10 cycles
 SCF Done:  E(UM062X) =  -77.9143992574     A.U. after    9 cycles
 SCF Done:  E(UM062X) =  -77.9169375977     A.U. after    9 cycles
 SCF Done:  E(UM062X) =  -77.9169410022     A.U. after    7 cycles
 Optimization completed.
    -- Stationary point found.

                          Input orientation:
 ---------------------------------------------------------------------
 Center     Atomic      Atomic             Coordinates (Angstroms)
 Number     Number       Type             X           Y           Z
 ---------------------------------------------------------------------
      1          6           0       -1.756027    0.000000    0.000000
      2          6           0        1.756027    0.000000    0.000000
      3          1           0       -2.314180   -0.942297    0.000000
      4          1           0       -2.314127    0.942328   -0.000000
      5          1           0        2.314180    0.942297   -0.000000
      6          1           0        2.314127   -0.942328   -0.000000
 ---------------------------------------------------------------------

 Alpha  occ. eigenvalues --  -10.88977 -10.88977  -1.00273  -1.00098  -0.74921
 Alpha  occ. eigenvalues --   -0.74830  -0.59227  -0.56433
 Alpha virt. eigenvalues --   -0.32324  -0.31668  -0.12961  -0.10927  -0.09426
 Alpha virt. eigenvalues --   -0.07420  -0.06658  -0.05365  -0.04411  -0.01758
 Alpha virt. eigenvalues --   -0.00738  -0.00004   0.02049   0.06393   0.26224

  Beta  occ. eigenvalues --  -10.88147 -10.88145  -0.98074  -0.97758  -0.73891
  Beta  occ. eigenvalues --   -0.73782  -0.48634
  Beta virt. eigenvalues --   -0.35076  -0.30466  -0.29639  -0.12769  -0.11017
  Beta virt. eigenvalues --   -0.09265  -0.07205  -0.06675  -0.04600  -0.03845
  Beta virt. eigenvalues --   -0.01480  -0.00125   0.00392   0.02124   0.07146

 Mulliken charges and spin densities:
               1          2
     1  C    0.019177   0.486057
     2  C    0.019177   0.486057
     3  H    0.240412   0.006972
     4  H    0.240411   0.006971
     5  H    0.240412   0.006972
     6  H    0.240411   0.006971
 Sum of Mulliken charges =   1.00000   1.00000

 Dipole moment (field-independent basis, Debye):
    X=             -0.0000    Y=             -0.0000    Z=             -0.0000  Tot=              0.0000
 Quadrupole moment (field-independent basis, Debye-Ang):
   XX=             14.0976   YY=             -9.4258   ZZ=            -10.7394
   XY=             -0.0000   XZ=             -0.0000   YZ=             -0.0000

 Normal termination of Gaussian 16 at Tue Dec  3 13:29:56 2024.
