 Gaussian 16, Revision A.03,
 Gaussian 16:  ES64L-G16RevA.03 25-Dec-2016

 --------------------------------------------
 #p opt UM062X/6-311+G** nosymm int=superfine
 --------------------------------------------

 -------------------
 Title Card Required
 -------------------
 Symbolic Z-matrix:
 Charge =  1 Multiplicity = 2

 SCF Done:  E(UM062X) =  -79.3348066873     A.U. after   10 cycles
 SCF Done:  E(UM062X) =  -79.3349662856     A.U. after    9 cycles
 Optimization completed.
    -- Stationary point found.

                          Input orientation:
 ---------------------------------------------------------------------
 Center     Atomic      Atomic             Coordinates (Angstroms)
 Number     Number       Type             X           Y           Z
 ---------------------------------------------------------------------
      1          6           0       -1.583606    0.000000    0.000000
      2          6           0        1.583606    0.000000    0.000000
      3          1           0        1.629785   -0.937480    0.542590
      4          1           0       -1.628411   -0.938591   -0.540782
      5          1           0        1.629205    0.938681    0.540560
      6          1           0        1.628413   -0.001161   -1.083233
      7          1           0       -1.629818    0.937576   -0.542423
      8          1           0       -1.629150    0.000936    1.083202
 ---------------------------------------------------------------------

 Alpha  occ. eigenvalues --  -10.84874 -10.84871  -1.03742  -1.02522  -0.74482
 Alpha  occ. eigenvalues --   -0.74481  -0.73912  -0.73912  -0.51781
 Alpha virt. eigenvalues --   -0.35889  -0.13855  -0.10203  -0.10202  -0.10182
 Alpha virt. eigenvalues --   -0.06239  -0.06239  -0.05104  -0.03274  -0.01837
 Alpha virt. eigenvalues --   -0.01835   0.01305   0.01307   0.04667   0.07738

  Beta  occ. eigenvalues --  -10.84673 -10.84673  -1.00923  -1.00106  -0.73954
  Beta  occ. eigenvalues --   -0.73953  -0.73404  -0.73404
  Beta virt. eigenvalues --   -0.32618  -0.25827  -0.15452  -0.11136  -0.11136
  Beta virt. eigenvalues --   -0.10004  -0.06399  -0.06399  -0.05341  -0.02386
  Beta virt. eigenvalues --   -0.02135  -0.02132   0.01609   0.01611   0.05601

 Mulliken charges and spin densities:
               1          2
     1  C   -0.270795   0.565689
     2  C   -0.270797   0.565691
     3  H    0.256954  -0.021897
     4  H    0.256906  -0.021899
     5  H    0.256933  -0.021898
     6  H    0.256908  -0.021895
     7  H    0.256956  -0.021897
     8  H    0.256934  -0.021894
 Sum of Mulliken charges =   1.00000   1.00000

 Dipole moment (field-independent basis, Debye):
    X=             -0.0000    Y=             -0.0000    Z=             -0.0001  Tot=              0.0001
 Quadrupole moment (field-independent basis, Debye-Ang):
   XX=              0.9441   YY=            -11.0471   ZZ=            -11.0472
   XY=             -0.0015   XZ=              0.0009   YZ=              0.0000

 Normal termination of Gaussian 16 at Wed Nov 13 12:36:55 2024.
