 Gaussian 16, Revision A.03,
 Gaussian 16:  ES64L-G16RevA.03 25-Dec-2016

 --------------------------------------------
 #p opt UM062X/6-311+G** nosymm int=superfine
 --------------------------------------------

 -------------------
 Title Card Required
 -------------------
 Symbolic Z-matrix:
 Charge =  0 Multiplicity = 1

 SCF Done:  E(UM062X) =  -438.502821684     A.U. after   12 cycles
 SCF Done:  E(UM062X) =  -438.515997576     A.U. after   11 cycles
 SCF Done:  E(UM062X) =  -438.521992617     A.U. after   11 cycles
 SCF Done:  E(UM062X) =  -438.522055593     A.U. after   11 cycles
 SCF Done:  E(UM062X) =  -438.522076395     A.U. after   10 cycles
 SCF Done:  E(UM062X) =  -438.522093444     A.U. after   11 cycles
 SCF Done:  E(UM062X) =  -438.522096047     A.U. after    9 cycles
 SCF Done:  E(UM062X) =  -438.522096724     A.U. after   10 cycles
 SCF Done:  E(UM062X) =  -438.522097170     A.U. after    8 cycles
 SCF Done:  E(UM062X) =  -438.522097439     A.U. after   12 cycles
 Optimization completed.
    -- Stationary point found.

                          Input orientation:
 ---------------------------------------------------------------------
 Center     Atomic      Atomic             Coordinates (Angstroms)
 Number     Number       Type             X           Y           Z
 ---------------------------------------------------------------------
      1          6           0       -1.760220    0.000000    0.000000
      2         16           0        1.760220    0.000000    0.000000
      3          1           0        1.717984   -1.343835   -0.001630
      4          1           0       -1.776292    1.080704    0.002508
      5          1           0       -1.816258   -0.535072   -0.937561
      6          1           0       -1.816422   -0.539420    0.935056
 ---------------------------------------------------------------------

 Alpha  occ. eigenvalues --  -89.88058 -10.64657  -8.24328  -6.16379  -6.16306
 Alpha  occ. eigenvalues --   -6.15760  -0.82892  -0.75766  -0.54893  -0.54809
 Alpha  occ. eigenvalues --   -0.42301  -0.28236  -0.27964
 Alpha virt. eigenvalues --   -0.14768   0.01237   0.03894   0.04421   0.05605
 Alpha virt. eigenvalues --    0.07548   0.08349   0.08472   0.10882   0.13570
 Alpha virt. eigenvalues --    0.15955   0.16330   0.21412   0.33737   0.35989

  Beta  occ. eigenvalues --  -89.88058 -10.64657  -8.24328  -6.16379  -6.16306
  Beta  occ. eigenvalues --   -6.15760  -0.82892  -0.75766  -0.54893  -0.54809
  Beta  occ. eigenvalues --   -0.42301  -0.28236  -0.27964
  Beta virt. eigenvalues --   -0.14768   0.01237   0.03894   0.04421   0.05605
  Beta virt. eigenvalues --    0.07548   0.08349   0.08472   0.10882   0.13570
  Beta virt. eigenvalues --    0.15955   0.16330   0.21412   0.33737   0.35989

 Mulliken charges and spin densities:
               1          2
     1  C   -0.404961  -0.000000
     2  S   -0.275877   0.000000
     3  H    0.052441   0.000000
     4  H    0.211175   0.000000
     5  H    0.208620   0.000000
     6  H    0.208602  -0.000000
 Sum of Mulliken charges =  -0.00000   0.00000

 Dipole moment (field-independent basis, Debye):
    X=             -4.4741    Y=             -0.9493    Z=             -0.0012  Tot=              4.5737
 Quadrupole moment (field-independent basis, Debye-Ang):
   XX=            -20.6970   YY=            -19.5730   ZZ=            -23.6267
   XY=             -1.7733   XZ=             -0.0022   YZ=              0.0049

 Normal termination of Gaussian 16 at Mon Apr 21 19:36:52 2025.
