 Gaussian 16, Revision A.03,
 Gaussian 16:  ES64L-G16RevA.03 25-Dec-2016

 --------------------------------------------
 #p opt UM062X/6-311+G** nosymm int=superfine
 --------------------------------------------

 -------------------
 Title Card Required
 -------------------
 Symbolic Z-matrix:
 Charge =  0 Multiplicity = 1

 SCF Done:  E(UM062X) =  -79.5607639722     A.U. after   10 cycles
 SCF Done:  E(UM062X) =  -79.5650094717     A.U. after    9 cycles
 SCF Done:  E(UM062X) =  -79.5669300577     A.U. after   10 cycles
 SCF Done:  E(UM062X) =  -79.5669477877     A.U. after   10 cycles
 Optimization completed.
    -- Stationary point found.

                          Input orientation:
 ---------------------------------------------------------------------
 Center     Atomic      Atomic             Coordinates (Angstroms)
 Number     Number       Type             X           Y           Z
 ---------------------------------------------------------------------
      1          6           0       -2.096675    0.000000    0.000000
      2          6           0        2.096800    0.000000    0.000000
      3          1           0        2.141144   -0.933857    0.540374
      4          1           0       -2.141001   -0.934911   -0.538550
      5          1           0        2.141130    0.934911    0.538550
      6          1           0        2.141159   -0.001052   -1.078931
      7          1           0       -2.141019    0.933857   -0.540373
      8          1           0       -2.141039    0.001052    1.078930
 ---------------------------------------------------------------------

 Alpha  occ. eigenvalues --  -10.57264 -10.57263  -0.77173  -0.76943  -0.49375
 Alpha  occ. eigenvalues --   -0.49375  -0.49293  -0.49293  -0.21174
 Alpha virt. eigenvalues --   -0.12034   0.03082   0.04860   0.05269   0.05269
 Alpha virt. eigenvalues --    0.07289   0.07289   0.11129   0.12757   0.18731
 Alpha virt. eigenvalues --    0.18731   0.19950   0.19950   0.21256   0.25195

  Beta  occ. eigenvalues --  -10.57264 -10.57263  -0.77173  -0.76943  -0.49375
  Beta  occ. eigenvalues --   -0.49375  -0.49293  -0.49293  -0.21174
  Beta virt. eigenvalues --   -0.12034   0.03082   0.04860   0.05269   0.05269
  Beta virt. eigenvalues --    0.07289   0.07289   0.11129   0.12757   0.18731
  Beta virt. eigenvalues --    0.18731   0.19950   0.19950   0.21256   0.25195

 Mulliken charges and spin densities:
               1          2
     1  C   -0.522266  -0.000000
     2  C   -0.522266   0.000000
     3  H    0.174089  -0.000000
     4  H    0.174089   0.000000
     5  H    0.174089  -0.000000
     6  H    0.174088  -0.000000
     7  H    0.174089   0.000000
     8  H    0.174088   0.000000
 Sum of Mulliken charges =  -0.00000  -0.00000

 Dipole moment (field-independent basis, Debye):
    X=             -0.0000    Y=             -0.0000    Z=             -0.0000  Tot=              0.0000
 Quadrupole moment (field-independent basis, Debye-Ang):
   XX=            -16.0474   YY=            -14.8819   ZZ=            -14.8820
   XY=             -0.0000   XZ=             -0.0001   YZ=             -0.0000

 Normal termination of Gaussian 16 at Tue Dec  3 10:09:55 2024.
