 Gaussian 16, Revision A.03,
 Gaussian 16:  ES64L-G16RevA.03 25-Dec-2016

 --------------------------------------------
 #p opt UM062X/6-311+G** nosymm int=superfine
 --------------------------------------------

 -------------------
 Title Card Required
 -------------------
 Symbolic Z-matrix:
 Charge =  0 Multiplicity = 1

 SCF Done:  E(UM062X) =  -379.342156861     A.U. after   11 cycles
 SCF Done:  E(UM062X) =  -379.730346304     A.U. after   11 cycles
 SCF Done:  E(UM062X) =  -379.965160620     A.U. after   11 cycles
 SCF Done:  E(UM062X) =  -379.971673794     A.U. after   10 cycles
 SCF Done:  E(UM062X) =  -379.974361070     A.U. after    9 cycles
 SCF Done:  E(UM062X) =  -379.974778330     A.U. after    8 cycles
 SCF Done:  E(UM062X) =  -379.975402213     A.U. after    9 cycles
 SCF Done:  E(UM062X) =  -379.975425314     A.U. after    8 cycles
 Optimization completed.
    -- Stationary point found.

                          Input orientation:
 ---------------------------------------------------------------------
 Center     Atomic      Atomic             Coordinates (Angstroms)
 Number     Number       Type             X           Y           Z
 ---------------------------------------------------------------------
      1          6           0       -0.557792   -0.000000   -0.000000
      2         15           0        0.972962    0.000000    0.000000
      3          1           0       -1.631231    0.000000    0.000000
 ---------------------------------------------------------------------

 Alpha  occ. eigenvalues --  -78.02660 -10.57577  -6.85560  -4.96978  -4.96978
 Alpha  occ. eigenvalues --   -4.96927  -0.81042  -0.61526  -0.41934  -0.34090
 Alpha  occ. eigenvalues --   -0.34090
 Alpha virt. eigenvalues --   -0.02030  -0.02030   0.01326   0.03412   0.04813
 Alpha virt. eigenvalues --    0.04813   0.07075   0.11473   0.11473   0.15154
 Alpha virt. eigenvalues --    0.16640   0.23239   0.32776   0.32776   0.39861

  Beta  occ. eigenvalues --  -78.02660 -10.57577  -6.85560  -4.96978  -4.96978
  Beta  occ. eigenvalues --   -4.96927  -0.81042  -0.61526  -0.41934  -0.34090
  Beta  occ. eigenvalues --   -0.34090
  Beta virt. eigenvalues --   -0.02030  -0.02030   0.01326   0.03412   0.04813
  Beta virt. eigenvalues --    0.04813   0.07075   0.11473   0.11473   0.15154
  Beta virt. eigenvalues --    0.16640   0.23239   0.32776   0.32776   0.39861

 Mulliken charges and spin densities:
               1          2
     1  C   -0.249143  -0.000000
     2  P    0.073286   0.000000
     3  H    0.175857   0.000000
 Sum of Mulliken charges =  -0.00000   0.00000

 Dipole moment (field-independent basis, Debye):
    X=             -0.2782    Y=              0.0000    Z=              0.0000  Tot=              0.2782
 Quadrupole moment (field-independent basis, Debye-Ang):
   XX=            -16.0453   YY=            -19.9589   ZZ=            -19.9589
   XY=             -0.0000   XZ=             -0.0000   YZ=             -0.0000

 Normal termination of Gaussian 16 at Wed Apr 16 03:11:07 2025.
