 Gaussian 16, Revision A.03,
 Gaussian 16:  ES64L-G16RevA.03 25-Dec-2016

 --------------------------------------------
 #p opt UM062X/6-311+G** nosymm int=superfine
 --------------------------------------------

 -------------------
 Title Card Required
 -------------------
 Symbolic Z-matrix:
 Charge = -1 Multiplicity = 2

 SCF Done:  E(UM062X) =  -50.5589680779     A.U. after   16 cycles
 SCF Done:  E(UM062X) =  -50.5629804445     A.U. after   19 cycles
 SCF Done:  E(UM062X) =  -50.5632335685     A.U. after   15 cycles
 Optimization completed.
    -- Stationary point found.

                          Input orientation:
 ---------------------------------------------------------------------
 Center     Atomic      Atomic             Coordinates (Angstroms)
 Number     Number       Type             X           Y           Z
 ---------------------------------------------------------------------
      1          5           0       -1.991404    0.000000    0.000000
      2          5           0        1.991404    0.000000    0.000000
      3          1           0       -3.256118   -0.000958    0.000000
      4          1           0        3.256118    0.000958   -0.000000
 ---------------------------------------------------------------------

 Alpha  occ. eigenvalues --   -6.91338  -6.91338  -0.34920  -0.34775  -0.09741
 Alpha  occ. eigenvalues --   -0.06902   0.02653
 Alpha virt. eigenvalues --    0.10199   0.12326   0.13538   0.15433   0.16119
 Alpha virt. eigenvalues --    0.21544   0.21758   0.21924   0.22562   0.23199
 Alpha virt. eigenvalues --    0.25479   0.32664   0.37095   0.50308   0.57033

  Beta  occ. eigenvalues --   -6.91252  -6.91252  -0.33857  -0.33793  -0.08632
  Beta  occ. eigenvalues --   -0.05880
  Beta virt. eigenvalues --    0.10587   0.11432   0.12230   0.12666   0.13426
  Beta virt. eigenvalues --    0.13698   0.19185   0.20127   0.20397   0.21314
  Beta virt. eigenvalues --    0.21435   0.21882   0.32517   0.37168   0.50008

 Mulliken charges and spin densities:
               1          2
     1  B   -0.409419   0.511799
     2  B   -0.409419   0.511799
     3  H   -0.090581  -0.011799
     4  H   -0.090581  -0.011799
 Sum of Mulliken charges =  -1.00000   1.00000

 Dipole moment (field-independent basis, Debye):
    X=              0.0000    Y=             -0.0000    Z=              0.0000  Tot=              0.0000
 Quadrupole moment (field-independent basis, Debye-Ang):
   XX=            -39.1576   YY=            -19.1172   ZZ=            -26.5005
   XY=             -0.0011   XZ=              0.0000   YZ=             -0.0000

 Normal termination of Gaussian 16 at Mon Apr 21 17:29:07 2025.
