 Gaussian 16, Revision A.03,
 Gaussian 16:  ES64L-G16RevA.03 25-Dec-2016

 --------------------------------------------
 #p opt UM062X/6-311+G** nosymm int=superfine
 --------------------------------------------

 -------------------
 Title Card Required
 -------------------
 Symbolic Z-matrix:
 Charge =  0 Multiplicity = 1

 SCF Done:  E(UM062X) =  -151.337535599     A.U. after   21 cycles
 SCF Done:  E(UM062X) =  -151.339355364     A.U. after   20 cycles
 SCF Done:  E(UM062X) =  -151.342566959     A.U. after   25 cycles
 SCF Done:  E(UM062X) =  -151.343167978     A.U. after   21 cycles
 SCF Done:  E(UM062X) =  -151.343283064     A.U. after   23 cycles
 SCF Done:  E(UM062X) =  -151.343292903     A.U. after   26 cycles
 SCF Done:  E(UM062X) =  -151.343292969     A.U. after   15 cycles
 Optimization completed.
    -- Stationary point found.

                          Input orientation:
 ---------------------------------------------------------------------
 Center     Atomic      Atomic             Coordinates (Angstroms)
 Number     Number       Type             X           Y           Z
 ---------------------------------------------------------------------
      1          8           0       -1.486938    0.000000    0.000000
      2          8           0        1.486938    0.000000    0.000000
      3          1           0       -1.296837   -0.770678   -0.564648
      4          1           0        1.296813    0.770027    0.565527
 ---------------------------------------------------------------------

 Alpha  occ. eigenvalues --  -19.72723 -19.72721  -1.13279  -1.12570  -0.57072
 Alpha  occ. eigenvalues --   -0.56494  -0.44502  -0.43886  -0.38322
 Alpha virt. eigenvalues --   -0.25015   0.05312   0.08388   0.14742   0.15119
 Alpha virt. eigenvalues --    0.17684   0.19019   0.20749   0.21501   0.23272
 Alpha virt. eigenvalues --    0.31581   0.48612   0.52655   0.98163   0.99351

  Beta  occ. eigenvalues --  -19.72723 -19.72721  -1.13279  -1.12570  -0.57072
  Beta  occ. eigenvalues --   -0.56494  -0.44502  -0.43886  -0.38322
  Beta virt. eigenvalues --   -0.25015   0.05312   0.08388   0.14742   0.15119
  Beta virt. eigenvalues --    0.17684   0.19019   0.20749   0.21501   0.23272
  Beta virt. eigenvalues --    0.31581   0.48612   0.52655   0.98163   0.99351

 Mulliken charges and spin densities:
               1          2
     1  O   -0.269451  -0.000000
     2  O   -0.269448   0.000000
     3  H    0.269449  -0.000000
     4  H    0.269450  -0.000000
 Sum of Mulliken charges =   0.00000   0.00000

 Dipole moment (field-independent basis, Debye):
    X=             -0.0000    Y=             -0.0013    Z=              0.0017  Tot=              0.0022
 Quadrupole moment (field-independent basis, Debye-Ang):
   XX=            -12.7603   YY=            -10.4434   ZZ=            -11.9674
   XY=              4.1336   XZ=              3.0322   YZ=              2.4202

 Normal termination of Gaussian 16 at Mon Apr 21 21:37:26 2025.
