 Gaussian 16, Revision A.03,
 Gaussian 16:  ES64L-G16RevA.03 25-Dec-2016

 --------------------------------------------
 #p opt UM062X/6-311+G** nosymm int=superfine
 --------------------------------------------

 -------------------
 Title Card Required
 -------------------
 Symbolic Z-matrix:
 Charge =  0 Multiplicity = 1

 SCF Done:  E(UM062X) =  -77.1119150635     A.U. after    9 cycles
 SCF Done:  E(UM062X) =  -77.1523576195     A.U. after    9 cycles
 SCF Done:  E(UM062X) =  -77.1854101200     A.U. after   10 cycles
 SCF Done:  E(UM062X) =  -77.1856267633     A.U. after    8 cycles
 Optimization completed.
    -- Stationary point found.

                          Input orientation:
 ---------------------------------------------------------------------
 Center     Atomic      Atomic             Coordinates (Angstroms)
 Number     Number       Type             X           Y           Z
 ---------------------------------------------------------------------
      1          6           0       -0.766100    0.000000    0.000000
      2          6           0        0.766100    0.000000    0.000000
      3          1           0       -1.838294   -0.000000    0.000000
      4          1           0        1.838300   -0.000000    0.000000
 ---------------------------------------------------------------------

 Alpha  occ. eigenvalues --  -10.63114 -10.63066  -0.79442  -0.68392  -0.54849
 Alpha  occ. eigenvalues --   -0.31594  -0.31594
 Alpha virt. eigenvalues --   -0.01720  -0.01720   0.01648   0.02381   0.08202
 Alpha virt. eigenvalues --    0.08202   0.09412   0.09843   0.11617   0.11617
 Alpha virt. eigenvalues --    0.18058   0.23179   0.30735   0.46254   0.58723

  Beta  occ. eigenvalues --  -10.63114 -10.63066  -0.79442  -0.68392  -0.54849
  Beta  occ. eigenvalues --   -0.31594  -0.31594
  Beta virt. eigenvalues --   -0.01720  -0.01720   0.01648   0.02381   0.08202
  Beta virt. eigenvalues --    0.08202   0.09412   0.09843   0.11617   0.11617
  Beta virt. eigenvalues --    0.18058   0.23179   0.30735   0.46254   0.58723

 Mulliken charges and spin densities:
               1          2
     1  C   -0.228344  -0.000000
     2  C   -0.228343   0.000000
     3  H    0.228343  -0.000000
     4  H    0.228344  -0.000000
 Sum of Mulliken charges =  -0.00000   0.00000

 Dipole moment (field-independent basis, Debye):
    X=              0.0000    Y=             -0.0000    Z=              0.0000  Tot=              0.0000
 Quadrupole moment (field-independent basis, Debye-Ang):
   XX=             -5.6411   YY=            -15.2258   ZZ=            -15.2258
   XY=              0.0000   XZ=             -0.0000   YZ=             -0.0000

 Normal termination of Gaussian 16 at Tue Dec  3 20:10:03 2024.
