 Gaussian 16, Revision A.03,
 Gaussian 16:  ES64L-G16RevA.03 25-Dec-2016

 --------------------------------------------
 #p opt UM062X/6-311+G** nosymm int=superfine
 --------------------------------------------

 -------------------
 Title Card Required
 -------------------
 Symbolic Z-matrix:
 Charge =  0 Multiplicity = 1

 SCF Done:  E(UM062X) =  -92.8219878886     A.U. after   15 cycles
 SCF Done:  E(UM062X) =  -92.8239495413     A.U. after   12 cycles
 SCF Done:  E(UM062X) =  -92.8239600841     A.U. after   14 cycles
 Optimization completed.
    -- Stationary point found.

                          Input orientation:
 ---------------------------------------------------------------------
 Center     Atomic      Atomic             Coordinates (Angstroms)
 Number     Number       Type             X           Y           Z
 ---------------------------------------------------------------------
      1          6           0       -1.872395    0.000000    0.000000
      2          7           0        1.872395    0.000000    0.000000
      3          1           0       -2.997788    0.000000    0.000000
 ---------------------------------------------------------------------

 Alpha  occ. eigenvalues --  -14.81465 -10.76347  -0.80322  -0.76264  -0.45485
 Alpha  occ. eigenvalues --   -0.26134  -0.26134
 Alpha virt. eigenvalues --   -0.18286  -0.18286  -0.07859  -0.00094   0.06227
 Alpha virt. eigenvalues --    0.06227   0.07909   0.12624   0.15867   0.17353
 Alpha virt. eigenvalues --    0.17353   0.23425   0.41843   0.51964   0.51964

  Beta  occ. eigenvalues --  -14.81465 -10.76347  -0.80322  -0.76264  -0.45485
  Beta  occ. eigenvalues --   -0.26134  -0.26134
  Beta virt. eigenvalues --   -0.18286  -0.18286  -0.07859  -0.00094   0.06227
  Beta virt. eigenvalues --    0.06227   0.07909   0.12624   0.15867   0.17353
  Beta virt. eigenvalues --    0.17353   0.23425   0.41843   0.51964   0.51964

 Mulliken charges and spin densities:
               1          2
     1  C    0.079740   0.000000
     2  N   -0.251237  -0.000000
     3  H    0.171497  -0.000000
 Sum of Mulliken charges =  -0.00000   0.00000

 Dipole moment (field-independent basis, Debye):
    X=             -6.3812    Y=             -0.0000    Z=             -0.0000  Tot=              6.3812
 Quadrupole moment (field-independent basis, Debye-Ang):
   XX=             -4.3724   YY=            -14.2259   ZZ=            -14.2259
   XY=              0.0000   XZ=              0.0000   YZ=              0.0000

 Normal termination of Gaussian 16 at Mon Apr 21 18:39:21 2025.
