 Gaussian 16, Revision A.03,
 Gaussian 16:  ES64L-G16RevA.03 25-Dec-2016

 ---------------------------------------
 #p UM062X/6-311+G** force int=superfine
 ---------------------------------------

 -------------------
 Title Card Required
 -------------------
 Symbolic Z-matrix:
 Charge =  0 Multiplicity = 1

                         Standard orientation:
 ---------------------------------------------------------------------
 Center     Atomic      Atomic             Coordinates (Angstroms)
 Number     Number       Type             X           Y           Z
 ---------------------------------------------------------------------
      1          6           0       -0.557417   -0.000010    0.000006
      2          6           0        0.557418    0.000009   -0.000007
      3          1           0        1.054830    0.961589   -0.231311
      4          1           0       -1.054848    0.681122    0.717087
      5          1           0        1.054848   -0.681123   -0.717085
      6          1           0        1.054877   -0.280472    0.948390
      7          1           0       -1.054830   -0.961588    0.231313
      8          1           0       -1.054878    0.280473   -0.948389
 ---------------------------------------------------------------------

 SCF Done:  E(UM062X) =  -79.6113265303     A.U. after    9 cycles

 The electronic state is 1-A.
 Alpha  occ. eigenvalues --  -10.49900 -10.49393  -0.95619  -0.67581  -0.55428
 Alpha  occ. eigenvalues --   -0.55427  -0.52030  -0.34506  -0.34505
 Alpha virt. eigenvalues --    0.02030   0.04177   0.04633   0.04633   0.08608
 Alpha virt. eigenvalues --    0.08993   0.08993   0.14267   0.18576   0.18576
 Alpha virt. eigenvalues --    0.20097   0.20098   0.23974   0.27823   0.39544

  Beta  occ. eigenvalues --  -10.49900 -10.49393  -0.95619  -0.67581  -0.55428
  Beta  occ. eigenvalues --   -0.55427  -0.52030  -0.34506  -0.34505
  Beta virt. eigenvalues --    0.02030   0.04177   0.04633   0.04633   0.08608
  Beta virt. eigenvalues --    0.08993   0.08993   0.14267   0.18576   0.18576
  Beta virt. eigenvalues --    0.20097   0.20098   0.23974   0.27823   0.39544

 Mulliken charges and spin densities:
               1          2
     1  C   -0.422466   0.000000
     2  C   -0.422466  -0.000000
     3  H    0.140822   0.000000
     4  H    0.140821  -0.000000
     5  H    0.140821   0.000000
     6  H    0.140823   0.000000
     7  H    0.140822  -0.000000
     8  H    0.140823  -0.000000
 Sum of Mulliken charges =  -0.00000   0.00000

 Dipole moment (field-independent basis, Debye):
    X=              0.0000    Y=             -0.0000    Z=              0.0000  Tot=              0.0000
 Quadrupole moment (field-independent basis, Debye-Ang):
   XX=            -15.6594   YY=            -14.9434   ZZ=            -14.9438
   XY=             -0.0000   XZ=              0.0001   YZ=             -0.0000

 Normal termination of Gaussian 16 at Tue Nov 19 12:37:14 2024.
