 Gaussian 16, Revision A.03,
 Gaussian 16:  ES64L-G16RevA.03 25-Dec-2016

 --------------------------------------------
 #p opt UM062X/6-311+G** nosymm int=superfine
 --------------------------------------------

 -------------------
 Title Card Required
 -------------------
 Symbolic Z-matrix:
 Charge =  0 Multiplicity = 1

 SCF Done:  E(UM062X) =  -81.9996069444     A.U. after   10 cycles
 SCF Done:  E(UM062X) =  -81.9999922076     A.U. after    8 cycles
 SCF Done:  E(UM062X) =  -81.9994295725     A.U. after   10 cycles
 SCF Done:  E(UM062X) =  -81.9998097037     A.U. after    9 cycles
 SCF Done:  E(UM062X) =  -82.0000718010     A.U. after    6 cycles
 SCF Done:  E(UM062X) =  -82.0000808944     A.U. after    8 cycles
 SCF Done:  E(UM062X) =  -82.0000777513     A.U. after    8 cycles
 SCF Done:  E(UM062X) =  -82.0000787297     A.U. after    8 cycles
 SCF Done:  E(UM062X) =  -82.0000809203     A.U. after    7 cycles
 SCF Done:  E(UM062X) =  -82.0000812076     A.U. after    6 cycles
 Optimization completed.
    -- Stationary point found.

                          Input orientation:
 ---------------------------------------------------------------------
 Center     Atomic      Atomic             Coordinates (Angstroms)
 Number     Number       Type             X           Y           Z
 ---------------------------------------------------------------------
      1          5           0       -0.795399    0.000000    0.000000
      2          7           0        0.795399    0.000000    0.000000
      3          1           0       -1.328754   -1.057233    0.000111
      4          1           0        1.331311    0.851260    0.000042
      5          1           0       -1.328752    1.057234   -0.000151
      6          1           0        1.331311   -0.851259    0.000263
 ---------------------------------------------------------------------

 Alpha  occ. eigenvalues --  -14.74257  -7.06372  -0.94123  -0.58527  -0.56776
 Alpha  occ. eigenvalues --   -0.44754  -0.40740  -0.33589
 Alpha virt. eigenvalues --    0.00536   0.01087   0.03536   0.03678   0.06780
 Alpha virt. eigenvalues --    0.10731   0.12253   0.16359   0.17168   0.18827
 Alpha virt. eigenvalues --    0.20335   0.22800   0.24668   0.28505   0.40407

  Beta  occ. eigenvalues --  -14.74257  -7.06372  -0.94123  -0.58527  -0.56776
  Beta  occ. eigenvalues --   -0.44754  -0.40740  -0.33589
  Beta virt. eigenvalues --    0.00536   0.01087   0.03536   0.03678   0.06780
  Beta virt. eigenvalues --    0.10731   0.12253   0.16359   0.17168   0.18827
  Beta virt. eigenvalues --    0.20335   0.22800   0.24668   0.28505   0.40407

 Mulliken charges and spin densities:
               1          2
     1  B    0.138602  -0.000000
     2  N   -0.652865  -0.000000
     3  H   -0.007088   0.000000
     4  H    0.264220   0.000000
     5  H   -0.007088   0.000000
     6  H    0.264220   0.000000
 Sum of Mulliken charges =  -0.00000  -0.00000

 Dipole moment (field-independent basis, Debye):
    X=              0.9533    Y=             -0.0000    Z=              0.0005  Tot=              0.9533
 Quadrupole moment (field-independent basis, Debye-Ang):
   XX=            -12.6738   YY=            -13.0550   ZZ=            -15.5725
   XY=              0.0000   XZ=              0.0007   YZ=             -0.0003

 Normal termination of Gaussian 16 at Mon Apr 21 17:38:29 2025.
