 Gaussian 16, Revision A.03,
 Gaussian 16:  ES64L-G16RevA.03 25-Dec-2016

 --------------------------------------------
 #p opt UM062X/6-311+G** nosymm int=superfine
 --------------------------------------------

 -------------------
 Title Card Required
 -------------------
 Symbolic Z-matrix:
 Charge =  0 Multiplicity = 1

 SCF Done:  E(UM062X) =  -78.2012031608     A.U. after    9 cycles
 SCF Done:  E(UM062X) =  -78.2180702777     A.U. after    9 cycles
 SCF Done:  E(UM062X) =  -78.2333210757     A.U. after    8 cycles
 SCF Done:  E(UM062X) =  -78.2336585892     A.U. after    8 cycles
 SCF Done:  E(UM062X) =  -78.2336599618     A.U. after    7 cycles
 Optimization completed.
    -- Stationary point found.

                          Input orientation:
 ---------------------------------------------------------------------
 Center     Atomic      Atomic             Coordinates (Angstroms)
 Number     Number       Type             X           Y           Z
 ---------------------------------------------------------------------
      1          6           0       -2.060595    0.000000    0.000000
      2          6           0        2.060595    0.000000    0.000000
      3          1           0       -2.765969   -0.858663    0.000000
      4          1           0       -2.765938    0.858690   -0.000000
      5          1           0        2.765969    0.858663   -0.000000
      6          1           0        2.765938   -0.858690   -0.000000
 ---------------------------------------------------------------------

 Alpha  occ. eigenvalues --  -10.59549 -10.59549  -0.74537  -0.74506  -0.46262
 Alpha  occ. eigenvalues --   -0.46232  -0.30704  -0.29305
 Alpha virt. eigenvalues --   -0.07268  -0.06882   0.02514   0.03121   0.06564
 Alpha virt. eigenvalues --    0.08612   0.08633   0.10379   0.12170   0.15480
 Alpha virt. eigenvalues --    0.17517   0.19944   0.20710   0.21537   0.45472

  Beta  occ. eigenvalues --  -10.59549 -10.59549  -0.74537  -0.74506  -0.46262
  Beta  occ. eigenvalues --   -0.46232  -0.30704  -0.29305
  Beta virt. eigenvalues --   -0.07268  -0.06882   0.02514   0.03121   0.06564
  Beta virt. eigenvalues --    0.08612   0.08633   0.10379   0.12170   0.15480
  Beta virt. eigenvalues --    0.17517   0.19944   0.20710   0.21537   0.45472

 Mulliken charges and spin densities:
               1          2
     1  C   -0.239199  -0.000000
     2  C   -0.239199  -0.000000
     3  H    0.119600  -0.000000
     4  H    0.119600   0.000000
     5  H    0.119600   0.000000
     6  H    0.119600   0.000000
 Sum of Mulliken charges =  -0.00000  -0.00000

 Dipole moment (field-independent basis, Debye):
    X=             -0.0000    Y=              0.0000    Z=             -0.0000  Tot=              0.0000
 Quadrupole moment (field-independent basis, Debye-Ang):
   XX=             -2.5659   YY=            -14.6324   ZZ=            -12.9202
   XY=             -0.0001   XZ=             -0.0000   YZ=              0.0000

 Normal termination of Gaussian 16 at Tue Dec  3 11:19:34 2024.
