 Gaussian 16, Revision A.03,
 Gaussian 16:  ES64L-G16RevA.03 25-Dec-2016

 ---------------------------------------
 #p UM062X/6-311+G** force int=superfine
 ---------------------------------------

 -------------------
 Title Card Required
 -------------------
 Symbolic Z-matrix:
 Charge =  1 Multiplicity = 2

                         Standard orientation:
 ---------------------------------------------------------------------
 Center     Atomic      Atomic             Coordinates (Angstroms)
 Number     Number       Type             X           Y           Z
 ---------------------------------------------------------------------
      1          6           0        0.000000    0.000000    0.459793
      2          6           0        0.000000    0.000000   -0.459793
      3          1           0        0.000000    0.000000    1.530669
      4          1           0        0.000000    0.000000   -1.530669
 ---------------------------------------------------------------------

 SCF Done:  E(UM062X) =  -76.5536273507     A.U. after    9 cycles

 Unable to determine electronic state:  an orbital has unidentified symmetry.
 Alpha  occ. eigenvalues --  -10.90916 -10.88160  -1.33515  -0.94588  -0.91695
 Alpha  occ. eigenvalues --   -0.85388  -0.81663
 Alpha virt. eigenvalues --   -0.17540  -0.15946  -0.14799  -0.13597  -0.11978
 Alpha virt. eigenvalues --   -0.11711  -0.11367  -0.02864  -0.02028  -0.01537
 Alpha virt. eigenvalues --    0.02520   0.04053   0.16937   0.21870   0.24656

  Beta  occ. eigenvalues --  -10.90499 -10.87853  -1.27161  -0.93080  -0.90747
  Beta  occ. eigenvalues --   -0.78996
  Beta virt. eigenvalues --   -0.53916  -0.15505  -0.15018  -0.14128  -0.13240
  Beta virt. eigenvalues --   -0.11887  -0.11866  -0.11429  -0.01482  -0.01130
  Beta virt. eigenvalues --   -0.00385   0.02849   0.04534   0.17431   0.22251

 Mulliken charges and spin densities:
               1          2
     1  C    0.247984   0.522058
     2  C    0.247984   0.522058
     3  H    0.252016  -0.022058
     4  H    0.252016  -0.022058
 Sum of Mulliken charges =   1.00000   1.00000

 Dipole moment (field-independent basis, Debye):
    X=              0.0000    Y=             -0.0000    Z=             -0.0000  Tot=              0.0000
 Quadrupole moment (field-independent basis, Debye-Ang):
   XX=             -8.6217   YY=            -10.0920   ZZ=             -2.4480
   XY=             -0.0000   XZ=             -0.0000   YZ=              0.0000

 Normal termination of Gaussian 16 at Tue Nov 19 13:25:58 2024.
