 Gaussian 16, Revision A.03,
 Gaussian 16:  ES64L-G16RevA.03 25-Dec-2016

 --------------------------------------------
 #p opt UM062X/6-311+G** nosymm int=superfine
 --------------------------------------------

 -------------------
 Title Card Required
 -------------------
 Symbolic Z-matrix:
 Charge =  0 Multiplicity = 1

 SCF Done:  E(UM062X) =  -92.8397002023     A.U. after   13 cycles
 SCF Done:  E(UM062X) =  -92.8416782250     A.U. after   11 cycles
 SCF Done:  E(UM062X) =  -92.8416892691     A.U. after    8 cycles
 Optimization completed.
    -- Stationary point found.

                          Input orientation:
 ---------------------------------------------------------------------
 Center     Atomic      Atomic             Coordinates (Angstroms)
 Number     Number       Type             X           Y           Z
 ---------------------------------------------------------------------
      1          6           0       -1.597395    0.000000    0.000000
      2          7           0        1.597395    0.000000    0.000000
      3          1           0       -2.723090   -0.000000   -0.000000
 ---------------------------------------------------------------------

 Alpha  occ. eigenvalues --  -14.82750 -10.76027  -0.79932  -0.77122  -0.45029
 Alpha  occ. eigenvalues --   -0.27234  -0.27234
 Alpha virt. eigenvalues --   -0.17504  -0.17504  -0.08571   0.00163   0.06666
 Alpha virt. eigenvalues --    0.06666   0.07694   0.12900   0.16668   0.17227
 Alpha virt. eigenvalues --    0.17227   0.24377   0.42445   0.52272   0.52272

  Beta  occ. eigenvalues --  -14.82750 -10.76027  -0.79932  -0.77122  -0.45029
  Beta  occ. eigenvalues --   -0.27234  -0.27234
  Beta virt. eigenvalues --   -0.17504  -0.17504  -0.08571   0.00163   0.06666
  Beta virt. eigenvalues --    0.06666   0.07694   0.12900   0.16668   0.17227
  Beta virt. eigenvalues --    0.17227   0.24377   0.42445   0.52272   0.52272

 Mulliken charges and spin densities:
               1          2
     1  C    0.046478   0.000001
     2  N   -0.226112  -0.000001
     3  H    0.179634  -0.000000
 Sum of Mulliken charges =  -0.00000  -0.00000

 Dipole moment (field-independent basis, Debye):
    X=             -5.4567    Y=              0.0000    Z=              0.0000  Tot=              5.4567
 Quadrupole moment (field-independent basis, Debye-Ang):
   XX=             -5.0441   YY=            -14.3035   ZZ=            -14.3035
   XY=             -0.0000   XZ=             -0.0000   YZ=             -0.0000

 Normal termination of Gaussian 16 at Mon Apr 21 18:39:04 2025.
