 Gaussian 16, Revision A.03,
 Gaussian 16:  ES64L-G16RevA.03 25-Dec-2016

 ---------------------------------------
 #p UM062X/6-311+G** force int=superfine
 ---------------------------------------

 -------------------
 Title Card Required
 -------------------
 Symbolic Z-matrix:
 Charge =  1 Multiplicity = 2

                         Standard orientation:
 ---------------------------------------------------------------------
 Center     Atomic      Atomic             Coordinates (Angstroms)
 Number     Number       Type             X           Y           Z
 ---------------------------------------------------------------------
      1          6           0       -0.841229    0.000030    0.029081
      2          6           0        0.841238    0.000013   -0.029084
      3          1           0        1.271117   -0.922399    0.345814
      4          1           0       -1.271117   -0.922849   -0.344629
      5          1           0        1.270474    0.923523    0.343788
      6          1           0        0.643215   -0.001624   -1.134176
      7          1           0       -1.270480    0.923070   -0.344968
      8          1           0       -0.643264    0.000023    1.134185
 ---------------------------------------------------------------------

 SCF Done:  E(UM062X) =  -79.3711598805     A.U. after   12 cycles

 The electronic state is 2-A.
 Alpha  occ. eigenvalues --  -10.85863 -10.85841  -1.16003  -0.99680  -0.82321
 Alpha  occ. eigenvalues --   -0.80031  -0.74969  -0.72120  -0.64286
 Alpha virt. eigenvalues --   -0.17213  -0.14647  -0.11870  -0.11528  -0.09904
 Alpha virt. eigenvalues --   -0.08090  -0.07586  -0.06461  -0.05726  -0.01683
 Alpha virt. eigenvalues --   -0.01552  -0.00605   0.02242   0.03618   0.03694

  Beta  occ. eigenvalues --  -10.85615 -10.85600  -1.13010  -0.96574  -0.79177
  Beta  occ. eigenvalues --   -0.78278  -0.73495  -0.71522
  Beta virt. eigenvalues --   -0.41856  -0.16827  -0.13797  -0.11404  -0.11385
  Beta virt. eigenvalues --   -0.09606  -0.07703  -0.06545  -0.05532  -0.05059
  Beta virt. eigenvalues --   -0.01259  -0.01090  -0.00041   0.02794   0.04262

 Mulliken charges and spin densities:
               1          2
     1  C   -0.340619   0.445233
     2  C   -0.340593   0.445260
     3  H    0.275541  -0.021197
     4  H    0.275533  -0.021196
     5  H    0.275545  -0.021200
     6  H    0.289520   0.097148
     7  H    0.275553  -0.021199
     8  H    0.289519   0.097150
 Sum of Mulliken charges =   1.00000   1.00000

 Dipole moment (field-independent basis, Debye):
    X=              0.0000    Y=             -0.0006    Z=             -0.0000  Tot=              0.0006
 Quadrupole moment (field-independent basis, Debye-Ang):
   XX=             -7.8174   YY=            -10.8297   ZZ=            -10.2787
   XY=             -0.0000   XZ=             -0.0407   YZ=              0.0008

 Normal termination of Gaussian 16 at Tue Nov 19 08:43:49 2024.
