 Gaussian 16, Revision A.03,
 Gaussian 16:  ES64L-G16RevA.03 25-Dec-2016

 ---------------------------------------------------
 #p UM062X/6-311+G** force int=superfine pop=saveNBO
 ---------------------------------------------------

 -------------------
 Title Card Required
 -------------------
 Symbolic Z-matrix:
 Charge =  0 Multiplicity = 1

                         Standard orientation:
 ---------------------------------------------------------------------
 Center     Atomic      Atomic             Coordinates (Angstroms)
 Number     Number       Type             X           Y           Z
 ---------------------------------------------------------------------
      1          8           0        0.000000    0.000000   -1.326757
      2         16           0        0.000000    0.000000    0.663379
 ---------------------------------------------------------------------

 SCF Done:  E(UM062X) =  -473.182605214     A.U. after   13 cycles

 Unable to determine electronic state:  an orbital has unidentified symmetry.
 Alpha  occ. eigenvalues --  -90.02762 -19.74352  -8.38281  -6.30398  -6.30277
 Alpha  occ. eigenvalues --   -6.29424  -1.07224  -0.79900  -0.46499  -0.44706
 Alpha  occ. eigenvalues --   -0.40872  -0.35015
 Alpha virt. eigenvalues --   -0.20042  -0.08768   0.02476   0.04627   0.05256
 Alpha virt. eigenvalues --    0.06022   0.18657   0.20578   0.20923   0.27429
 Alpha virt. eigenvalues --    0.33099   0.33314   0.34034   0.59646   0.73705

  Beta  occ. eigenvalues --  -90.02762 -19.74352  -8.38281  -6.30398  -6.30277
  Beta  occ. eigenvalues --   -6.29424  -1.07224  -0.79900  -0.46499  -0.44706
  Beta  occ. eigenvalues --   -0.40872  -0.35015
  Beta virt. eigenvalues --   -0.20042  -0.08768   0.02476   0.04627   0.05256
  Beta virt. eigenvalues --    0.06022   0.18657   0.20578   0.20923   0.27429
  Beta virt. eigenvalues --    0.33099   0.33314   0.34034   0.59646   0.73705

 Mulliken charges and spin densities:
               1          2
     1  O   -0.245249  -0.000000
     2  S    0.245249   0.000000
 Sum of Mulliken charges =   0.00000  -0.00000

 Dipole moment (field-independent basis, Debye):
    X=              0.0000    Y=              0.0000    Z=              2.4671  Tot=              2.4671
 Quadrupole moment (field-independent basis, Debye-Ang):
   XX=            -16.7562   YY=            -20.3698   ZZ=            -18.6017
   XY=              0.0000   XZ=              0.0000   YZ=              0.0000

 Summary of Natural Population Analysis:

                                       Natural Population
                Natural  -----------------------------------------------
    Atom  No    Charge         Core      Valence    Rydberg      Total
 -----------------------------------------------------------------------
      O    1   -0.20950      1.00000     3.20651    0.00300     4.20950
      S    2    0.20950      4.99996     2.78317    0.00737     7.79050
 =======================================================================
   * Total *    0.00000      5.99995     5.98967    0.01037    12.00000

 Normal termination of Gaussian 16 at Mon Apr 21 20:00:39 2025.
