 Gaussian 16, Revision A.03,
 Gaussian 16:  ES64L-G16RevA.03 25-Dec-2016

 --------------------------------------------
 #p opt UM062X/6-311+G** nosymm int=superfine
 --------------------------------------------

 -------------------
 Title Card Required
 -------------------
 Symbolic Z-matrix:
 Charge =  0 Multiplicity = 1

 SCF Done:  E(UM062X) =  -94.2536323860     A.U. after   12 cycles
 SCF Done:  E(UM062X) =  -94.2570922351     A.U. after   11 cycles
 SCF Done:  E(UM062X) =  -94.2588190228     A.U. after   17 cycles
 SCF Done:  E(UM062X) =  -94.2592176367     A.U. after   13 cycles
 SCF Done:  E(UM062X) =  -94.2604102880     A.U. after   18 cycles
 SCF Done:  E(UM062X) =  -94.2614515319     A.U. after   17 cycles
 SCF Done:  E(UM062X) =  -94.2615098493     A.U. after   24 cycles
 SCF Done:  E(UM062X) =  -94.2615021695     A.U. after   16 cycles
 SCF Done:  E(UM062X) =  -94.2615281200     A.U. after   22 cycles
 SCF Done:  E(UM062X) =  -94.2615291837     A.U. after   18 cycles
 SCF Done:  E(UM062X) =  -94.2615294020     A.U. after   11 cycles
 SCF Done:  E(UM062X) =  -94.2615297091     A.U. after   10 cycles
 SCF Done:  E(UM062X) =  -94.2615305686     A.U. after   20 cycles
 SCF Done:  E(UM062X) =  -94.2615316102     A.U. after   16 cycles
 SCF Done:  E(UM062X) =  -94.2615316476     A.U. after   11 cycles
 Optimization completed.
    -- Stationary point found.

                          Input orientation:
 ---------------------------------------------------------------------
 Center     Atomic      Atomic             Coordinates (Angstroms)
 Number     Number       Type             X           Y           Z
 ---------------------------------------------------------------------
      1          6           0       -1.706637    0.000000    0.000000
      2          7           0        1.706637    0.000000    0.000000
      3          1           0       -2.561826   -0.701866    0.002460
      4          1           0        1.131520   -0.862170   -0.000539
      5          1           0       -2.189898    0.994402   -0.002052
 ---------------------------------------------------------------------

 Alpha  occ. eigenvalues --  -14.81054 -10.62970  -0.87407  -0.77459  -0.49709
 Alpha  occ. eigenvalues --   -0.44338  -0.33522  -0.31817
 Alpha virt. eigenvalues --   -0.10521  -0.09964   0.01449   0.05270   0.07119
 Alpha virt. eigenvalues --    0.07694   0.12941   0.14109   0.15949   0.17009
 Alpha virt. eigenvalues --    0.18096   0.19518   0.24651   0.43280   0.46602

  Beta  occ. eigenvalues --  -14.81054 -10.62970  -0.87407  -0.77459  -0.49709
  Beta  occ. eigenvalues --   -0.44338  -0.33522  -0.31817
  Beta virt. eigenvalues --   -0.10521  -0.09964   0.01449   0.05270   0.07119
  Beta virt. eigenvalues --    0.07694   0.12941   0.14109   0.15949   0.17009
  Beta virt. eigenvalues --    0.18096   0.19518   0.24651   0.43280   0.46602

 Mulliken charges and spin densities:
               1          2
     1  C   -0.305308  -0.000000
     2  N   -0.210021   0.000000
     3  H    0.148865  -0.000000
     4  H    0.218429  -0.000000
     5  H    0.148034  -0.000000
 Sum of Mulliken charges =  -0.00000  -0.00000

 Dipole moment (field-independent basis, Debye):
    X=             -3.4420    Y=             -1.0197    Z=             -0.0003  Tot=              3.5899
 Quadrupole moment (field-independent basis, Debye-Ang):
   XX=            -10.5047   YY=            -12.6829   ZZ=            -14.9238
   XY=             -3.1556   XZ=             -0.0010   YZ=              0.0027

 Normal termination of Gaussian 16 at Mon Apr 21 18:29:21 2025.
