 Gaussian 16, Revision A.03,
 Gaussian 16:  ES64L-G16RevA.03 25-Dec-2016

 --------------------------------------------
 #p opt UM062X/6-311+G** nosymm int=superfine
 --------------------------------------------

 -------------------
 Title Card Required
 -------------------
 Symbolic Z-matrix:
 Charge =  0 Multiplicity = 1

 SCF Done:  E(UM062X) =  -438.663722184     A.U. after   11 cycles
 SCF Done:  E(UM062X) =  -438.664851514     A.U. after    9 cycles
 SCF Done:  E(UM062X) =  -438.664927033     A.U. after    9 cycles
 SCF Done:  E(UM062X) =  -438.664927456     A.U. after    7 cycles
 Optimization completed.
    -- Stationary point found.

                          Input orientation:
 ---------------------------------------------------------------------
 Center     Atomic      Atomic             Coordinates (Angstroms)
 Number     Number       Type             X           Y           Z
 ---------------------------------------------------------------------
      1          6           0       -1.010220    0.000000    0.000000
      2         16           0        1.010220    0.000000    0.000000
      3          1           0        1.109740   -1.337811   -0.001754
      4          1           0       -1.277235    1.051855    0.002350
      5          1           0       -1.339724   -0.497014   -0.905953
      6          1           0       -1.339690   -0.500996    0.903772
 ---------------------------------------------------------------------

 Alpha  occ. eigenvalues --  -89.89360 -10.58064  -8.25765  -6.17886  -6.17703
 Alpha  occ. eigenvalues --   -6.17239  -0.84614  -0.74332  -0.50975  -0.50155
 Alpha  occ. eigenvalues --   -0.44367  -0.38245  -0.29771
 Alpha virt. eigenvalues --    0.00437   0.02733   0.04682   0.05384   0.06894
 Alpha virt. eigenvalues --    0.07560   0.08085   0.08754   0.12020   0.13803
 Alpha virt. eigenvalues --    0.17896   0.18249   0.25431   0.32871   0.34619

  Beta  occ. eigenvalues --  -89.89360 -10.58064  -8.25765  -6.17886  -6.17703
  Beta  occ. eigenvalues --   -6.17239  -0.84614  -0.74332  -0.50975  -0.50155
  Beta  occ. eigenvalues --   -0.44367  -0.38245  -0.29771
  Beta virt. eigenvalues --    0.00437   0.02733   0.04682   0.05384   0.06894
  Beta virt. eigenvalues --    0.07560   0.08085   0.08754   0.12020   0.13803
  Beta virt. eigenvalues --    0.17896   0.18249   0.25431   0.32871   0.34619

 Mulliken charges and spin densities:
               1          2
     1  C   -0.592468   0.000000
     2  S   -0.057358  -0.000000
     3  H    0.065687   0.000000
     4  H    0.193177  -0.000000
     5  H    0.195497  -0.000000
     6  H    0.195466  -0.000000
 Sum of Mulliken charges =  -0.00000  -0.00000

 Dipole moment (field-independent basis, Debye):
    X=             -1.6701    Y=             -0.9274    Z=             -0.0012  Tot=              1.9103
 Quadrupole moment (field-independent basis, Debye-Ang):
   XX=            -21.2339   YY=            -19.2493   ZZ=            -23.0445
   XY=             -1.5403   XZ=             -0.0021   YZ=              0.0050

 Normal termination of Gaussian 16 at Mon Apr 21 19:34:39 2025.
