 Gaussian 16, Revision A.03,
 Gaussian 16:  ES64L-G16RevA.03 25-Dec-2016

 --------------------------------------------
 #p opt UM062X/6-311+G** nosymm int=superfine
 --------------------------------------------

 -------------------
 Title Card Required
 -------------------
 Symbolic Z-matrix:
 Charge =  0 Multiplicity = 1

 SCF Done:  E(UM062X) =  -78.5494344198     A.U. after    8 cycles
 SCF Done:  E(UM062X) =  -78.5526191805     A.U. after    8 cycles
 SCF Done:  E(UM062X) =  -78.5528771343     A.U. after    7 cycles
 SCF Done:  E(UM062X) =  -78.5528844000     A.U. after    6 cycles
 Optimization completed.
    -- Stationary point found.

                          Input orientation:
 ---------------------------------------------------------------------
 Center     Atomic      Atomic             Coordinates (Angstroms)
 Number     Number       Type             X           Y           Z
 ---------------------------------------------------------------------
      1          6           0       -0.715902    0.000000    0.000000
      2          6           0        0.715902    0.000000    0.000000
      3          1           0       -1.265318   -0.932414   -0.000000
      4          1           0       -1.265382    0.932371   -0.000000
      5          1           0        1.265318    0.932414    0.000000
      6          1           0        1.265382   -0.932371    0.000000
 ---------------------------------------------------------------------

 Alpha  occ. eigenvalues --  -10.55472 -10.55405  -0.83917  -0.67274  -0.53766
 Alpha  occ. eigenvalues --   -0.47033  -0.43542  -0.31834
 Alpha virt. eigenvalues --    0.01027   0.03394   0.03972   0.05226   0.07986
 Alpha virt. eigenvalues --    0.08029   0.09716   0.12745   0.15983   0.17159
 Alpha virt. eigenvalues --    0.20351   0.22471   0.30661   0.32884   0.43070

  Beta  occ. eigenvalues --  -10.55472 -10.55405  -0.83917  -0.67274  -0.53766
  Beta  occ. eigenvalues --   -0.47033  -0.43542  -0.31834
  Beta virt. eigenvalues --    0.01027   0.03394   0.03972   0.05226   0.07986
  Beta virt. eigenvalues --    0.08029   0.09716   0.12745   0.15983   0.17159
  Beta virt. eigenvalues --    0.20351   0.22471   0.30661   0.32884   0.43070

 Mulliken charges and spin densities:
               1          2
     1  C   -0.308357  -0.000000
     2  C   -0.308357   0.000000
     3  H    0.154176   0.000000
     4  H    0.154181   0.000000
     5  H    0.154176   0.000000
     6  H    0.154181   0.000000
 Sum of Mulliken charges =  -0.00000  -0.00000

 Dipole moment (field-independent basis, Debye):
    X=              0.0000    Y=              0.0000    Z=              0.0000  Tot=              0.0000
 Quadrupole moment (field-independent basis, Debye-Ang):
   XX=            -12.1474   YY=            -12.2889   ZZ=            -16.3416
   XY=             -0.0002   XZ=              0.0000   YZ=             -0.0000

 Normal termination of Gaussian 16 at Tue Nov 19 10:39:28 2024.
