 Gaussian 16, Revision A.03,
 Gaussian 16:  ES64L-G16RevA.03 25-Dec-2016

 ---------------------------------------
 #p UM062X/6-311+G** force int=superfine
 ---------------------------------------

 -------------------
 Title Card Required
 -------------------
 Symbolic Z-matrix:
 Charge =  1 Multiplicity = 2

                         Standard orientation:
 ---------------------------------------------------------------------
 Center     Atomic      Atomic             Coordinates (Angstroms)
 Number     Number       Type             X           Y           Z
 ---------------------------------------------------------------------
      1          6           0        0.000000    0.530169    0.000000
      2          6           0       -0.000000   -0.530169    0.000000
      3          1           0       -0.836758    1.294001    0.000000
      4          1           0        0.848578    1.283913    0.000000
      5          1           0        0.836758   -1.294001    0.000000
      6          1           0       -0.848578   -1.283913    0.000000
 ---------------------------------------------------------------------

 SCF Done:  E(UM062X) =  -78.0143827329     A.U. after   10 cycles

 The electronic state is 2-AG.
 Alpha  occ. eigenvalues --  -10.82123 -10.81323  -1.23030  -0.97290  -0.86722
 Alpha  occ. eigenvalues --   -0.86014  -0.69458  -0.66852
 Alpha virt. eigenvalues --   -0.17879  -0.16292  -0.15133  -0.13781  -0.10381
 Alpha virt. eigenvalues --   -0.08744  -0.07422  -0.06810  -0.02886  -0.02846
 Alpha virt. eigenvalues --   -0.00202   0.02380   0.12676   0.16957   0.20109

  Beta  occ. eigenvalues --  -10.82125 -10.81309  -1.21871  -0.92505  -0.83715
  Beta  occ. eigenvalues --   -0.80649  -0.69116
  Beta virt. eigenvalues --   -0.46070  -0.17579  -0.15261  -0.15034  -0.13557
  Beta virt. eigenvalues --   -0.10214  -0.08639  -0.05246  -0.05102  -0.02592
  Beta virt. eigenvalues --   -0.02185   0.00192   0.03128   0.12934   0.16894

 Mulliken charges and spin densities:
               1          2
     1  C   -0.156980   0.116315
     2  C   -0.156980   0.116315
     3  H    0.328356   0.189423
     4  H    0.328624   0.194262
     5  H    0.328356   0.189423
     6  H    0.328624   0.194262
 Sum of Mulliken charges =   1.00000   1.00000

 Dipole moment (field-independent basis, Debye):
    X=             -0.0000    Y=              0.0000    Z=              0.0000  Tot=              0.0000
 Quadrupole moment (field-independent basis, Debye-Ang):
   XX=             -7.4388   YY=             -2.3521   ZZ=            -12.7174
   XY=              0.0292   XZ=              0.0000   YZ=              0.0000

 Normal termination of Gaussian 16 at Tue Nov 19 11:52:41 2024.
