 Gaussian 16, Revision A.03,
 Gaussian 16:  ES64L-G16RevA.03 25-Dec-2016

 ---------------------------------------
 #p UM062X/6-311+G** force int=superfine
 ---------------------------------------

 -------------------
 Title Card Required
 -------------------
 Symbolic Z-matrix:
 Charge =  0 Multiplicity = 1

                         Standard orientation:
 ---------------------------------------------------------------------
 Center     Atomic      Atomic             Coordinates (Angstroms)
 Number     Number       Type             X           Y           Z
 ---------------------------------------------------------------------
      1          6           0        0.519238    0.000019   -0.000001
      2          6           0       -0.519238   -0.000019   -0.000002
      3          1           0       -1.040487   -0.982338   -0.017177
      4          1           0        1.040507   -0.506064    0.842113
      5          1           0       -1.040510    0.506069   -0.842109
      6          1           0       -1.040510    0.476305    0.859293
      7          1           0        1.040487    0.982338    0.017186
      8          1           0        1.040513   -0.476308   -0.859290
 ---------------------------------------------------------------------

 SCF Done:  E(UM062X) =  -79.4881122349     A.U. after    9 cycles

 The electronic state is 1-A.
 Alpha  occ. eigenvalues --  -10.50008 -10.49057  -0.97839  -0.67144  -0.57061
 Alpha  occ. eigenvalues --   -0.57059  -0.53606  -0.33130  -0.33128
 Alpha virt. eigenvalues --    0.01963   0.04141   0.04322   0.04322   0.08569
 Alpha virt. eigenvalues --    0.09029   0.09030   0.14277   0.17757   0.17758
 Alpha virt. eigenvalues --    0.20512   0.20513   0.23870   0.27658   0.40609

  Beta  occ. eigenvalues --  -10.50008 -10.49057  -0.97839  -0.67144  -0.57061
  Beta  occ. eigenvalues --   -0.57059  -0.53606  -0.33130  -0.33128
  Beta virt. eigenvalues --    0.01963   0.04141   0.04322   0.04322   0.08569
  Beta virt. eigenvalues --    0.09029   0.09030   0.14277   0.17757   0.17758
  Beta virt. eigenvalues --    0.20512   0.20513   0.23870   0.27658   0.40609

 Mulliken charges and spin densities:
               1          2
     1  C   -0.412782   0.000000
     2  C   -0.412782  -0.000000
     3  H    0.137598   0.000000
     4  H    0.137592  -0.000000
     5  H    0.137592   0.000000
     6  H    0.137591   0.000000
     7  H    0.137598  -0.000000
     8  H    0.137592  -0.000000
 Sum of Mulliken charges =  -0.00000   0.00000

 Dipole moment (field-independent basis, Debye):
    X=             -0.0000    Y=             -0.0000    Z=              0.0000  Tot=              0.0000
 Quadrupole moment (field-independent basis, Debye-Ang):
   XX=            -15.6820   YY=            -14.9446   ZZ=            -14.9451
   XY=              0.0001   XZ=              0.0000   YZ=              0.0000

 Normal termination of Gaussian 16 at Tue Nov 19 12:35:59 2024.
