 Gaussian 16, Revision A.03,
 Gaussian 16:  ES64L-G16RevA.03 25-Dec-2016

 ---------------------------------------------------------------------
 #p opt UM062X/6-311+G** nosymm int=superfine SCF=(Tight,MaxCycle=200)
 ---------------------------------------------------------------------

 -------------------
 Title Card Required
 -------------------
 Symbolic Z-matrix:
 Charge =  1 Multiplicity = 2

 SCF Done:  E(UM062X) =  -1614.02344246     A.U. after   33 cycles
 SCF Done:  E(UM062X) =  -1614.24761086     A.U. after   28 cycles
 SCF Done:  E(UM062X) =  -1614.65778572     A.U. after   36 cycles
 SCF Done:  E(UM062X) =  -1615.24362242     A.U. after   28 cycles
 SCF Done:  E(UM062X) =  -1615.26656625     A.U. after   52 cycles
 SCF Done:  E(UM062X) =  -1615.43945768     A.U. after   29 cycles
 SCF Done:  E(UM062X) =  -1615.51342128     A.U. after   23 cycles
 SCF Done:  E(UM062X) =  -1615.53265061     A.U. after   23 cycles
 SCF Done:  E(UM062X) =  -1615.53467902     A.U. after   21 cycles
 SCF Done:  E(UM062X) =  -1615.54627231     A.U. after   22 cycles
 SCF Done:  E(UM062X) =  -1615.55172469     A.U. after   23 cycles
 SCF Done:  E(UM062X) =  -1615.55254413     A.U. after   18 cycles
 SCF Done:  E(UM062X) =  -1615.55314803     A.U. after   20 cycles
 SCF Done:  E(UM062X) =  -1615.55332912     A.U. after   21 cycles
 SCF Done:  E(UM062X) =  -1615.55337846     A.U. after   20 cycles
 SCF Done:  E(UM062X) =  -1615.55339801     A.U. after   18 cycles
 SCF Done:  E(UM062X) =  -1615.55340988     A.U. after   18 cycles
 SCF Done:  E(UM062X) =  -1615.55341492     A.U. after   18 cycles
 SCF Done:  E(UM062X) =  -1615.55341726     A.U. after   17 cycles
 SCF Done:  E(UM062X) =  -1615.55341812     A.U. after   16 cycles
 Optimization completed.
    -- Stationary point found.

                          Input orientation:
 ---------------------------------------------------------------------
 Center     Atomic      Atomic             Coordinates (Angstroms)
 Number     Number       Type             X           Y           Z
 ---------------------------------------------------------------------
      1          6           0       -0.898702    0.000000    0.000000
      2          6           0        0.898702   -0.000000   -0.000000
      3          6           0        0.000038   -2.195336    0.000924
      4          6           0        0.000057   -3.556084    0.001439
      5          6           0       -1.110303   -4.326432    0.380450
      6          6           0       -1.135750   -1.469336    0.367630
      7          6           0        0.643410   -5.724422   -0.218756
      8          1           0        1.232329   -6.607225   -0.423344
      9          6           0       -1.390620    0.954113    1.068373
     10          6           0       -0.643423   -5.724288    0.222742
     11          1           0       -1.232374   -6.606964    0.427798
     12          6           0        1.110307   -4.326691   -0.377227
     13          6           0        1.135774   -1.469601   -0.366480
     14          6           0        1.598970    2.355721   -0.920918
     15          6           0       -1.380029    0.162040   -1.456519
     16          6           0       -1.873105    3.144481    2.071123
     17          1           0       -2.027757    4.208159    1.930362
     18          6           0       -2.237721   -3.625976    0.770186
     19          1           0       -3.142496   -4.136518    1.080826
     20          6           0       -1.493687    1.396598   -2.154849
     21          6           0        2.250239   -2.188125   -0.749956
     22          1           0        3.171527   -1.681909   -1.018812
     23          6           0        1.380050    0.163142    1.456366
     24          6           0        1.493553    1.398221    2.153811
     25          6           0        2.237630   -3.626530   -0.767684
     26          1           0        3.142310   -4.137305   -1.078211
     27          6           0       -1.599037    2.356415    0.919159
     28          6           0       -1.485224    0.441024    2.368184
     29          1           0       -1.306281   -0.610776    2.536282
     30          6           0        1.619396   -0.989823    2.226036
     31          1           0        1.592987   -1.969082    1.776895
     32          6           0       -1.953116    2.605623    3.332033
     33          1           0       -2.164236    3.232127    4.189450
     34          6           0       -2.250303   -2.187589    0.751437
     35          1           0       -3.171632   -1.681143    1.019717
     36          6           0       -1.736226    1.407151   -3.547233
     37          1           0       -1.789035    2.368215   -4.045714
     38          6           0        1.390644    0.953291   -1.069072
     39          6           0       -1.523198    3.114092   -0.292734
     40          1           0       -1.560683    4.189468   -0.146324
     41          6           0       -1.935415    0.251826   -4.269515
     42          1           0       -2.132078    0.289437   -5.333530
     43          6           0       -1.426880    2.711936   -1.583631
     44          1           0       -1.402582    3.514388   -2.314703
     45          6           0        1.736102    1.409793    3.546192
     46          1           0        1.788770    2.371217    4.043994
     47          6           0       -1.755789    1.231568    3.476888
     48          1           0       -1.802481    0.770688    4.456451
     49          6           0       -1.619173   -0.991506   -2.225406
     50          1           0       -1.592642   -1.970451   -1.775602
     51          6           0        1.935492    0.255001    4.269271
     52          1           0        2.132166    0.293379    5.333256
     53          6           0        1.873157    3.142898   -2.073466
     54          1           0        2.027743    4.206693   -1.933524
     55          6           0        1.897835   -0.954136    3.586172
     56          1           0        2.076747   -1.886525    4.107963
     57          6           0        1.953386    2.603039   -3.333936
     58          1           0        2.164606    3.228868   -4.191820
     59          6           0        1.522980    3.114298    0.290390
     60          1           0        1.560395    4.189567    0.143178
     61          6           0       -1.897566   -0.956824   -3.585576
     62          1           0       -2.076295   -1.889609   -4.106722
     63          6           0        1.426621    2.713111    1.581610
     64          1           0        1.402210    3.516121    2.312064
     65          6           0        1.485516    0.439160   -2.368437
     66          1           0        1.306724   -0.612801   -2.535709
     67          6           0        1.756197    1.228849   -3.477725
     68          1           0        1.803094    0.767190   -4.456911
 ---------------------------------------------------------------------

 Alpha  occ. eigenvalues --  -10.71403 -10.71388 -10.68794 -10.68793 -10.68723
 Alpha  occ. eigenvalues --  -10.68723 -10.68305 -10.68304 -10.67694 -10.67692
 Alpha  occ. eigenvalues --  -10.67524 -10.67523 -10.67394 -10.67392 -10.66861
 Alpha  occ. eigenvalues --  -10.66861 -10.66835 -10.66835 -10.66026 -10.66026
 Alpha  occ. eigenvalues --  -10.66025 -10.66025 -10.65748 -10.65747 -10.65654
 Alpha  occ. eigenvalues --  -10.65654 -10.65644 -10.65643 -10.65330 -10.65328
 Alpha  occ. eigenvalues --  -10.65262 -10.65262 -10.64996 -10.64995 -10.64964
 Alpha  occ. eigenvalues --  -10.64963 -10.64537 -10.64536 -10.63792 -10.63697
 Alpha  occ. eigenvalues --  -10.63561 -10.62173  -1.13049  -1.10363  -1.09737
 Alpha  occ. eigenvalues --   -1.08566  -1.07939  -1.06261  -1.03596  -1.03034
 Alpha  occ. eigenvalues --   -1.02555  -1.00584  -0.99353  -0.98004  -0.97947
 Alpha  occ. eigenvalues --   -0.96908  -0.96221  -0.94613  -0.93438  -0.93417
 Alpha  occ. eigenvalues --   -0.92326  -0.91693  -0.88198  -0.86365  -0.84984
 Alpha  occ. eigenvalues --   -0.84838  -0.82360  -0.81680  -0.80941  -0.80060
 Alpha  occ. eigenvalues --   -0.79705  -0.79491  -0.77931  -0.76252  -0.75992
 Alpha  occ. eigenvalues --   -0.75258  -0.74930  -0.73806  -0.70239  -0.70082
 Alpha  occ. eigenvalues --   -0.68748  -0.68011  -0.67696  -0.67621  -0.67251
 Alpha  occ. eigenvalues --   -0.66907  -0.65413  -0.64958  -0.64932  -0.64541
 Alpha  occ. eigenvalues --   -0.63744  -0.63021  -0.62295  -0.61854  -0.61482
 Alpha  occ. eigenvalues --   -0.61445  -0.60569  -0.60329  -0.59999  -0.59594
 Alpha  occ. eigenvalues --   -0.59590  -0.58769  -0.58151  -0.57769  -0.57669
 Alpha  occ. eigenvalues --   -0.56989  -0.56044  -0.55981  -0.55659  -0.55526
 Alpha  occ. eigenvalues --   -0.55422  -0.54502  -0.54428  -0.52974  -0.52876
 Alpha  occ. eigenvalues --   -0.52493  -0.52065  -0.51957  -0.51588  -0.51183
 Alpha  occ. eigenvalues --   -0.50731  -0.50560  -0.50427  -0.48874  -0.48680
 Alpha  occ. eigenvalues --   -0.48395  -0.48079  -0.47779  -0.44075  -0.43715
 Alpha  occ. eigenvalues --   -0.43518  -0.42721  -0.41245  -0.40564  -0.39602
 Alpha  occ. eigenvalues --   -0.38238  -0.37495  -0.36871  -0.36166
 Alpha virt. eigenvalues --   -0.15967  -0.15229  -0.14955  -0.12463  -0.10406
 Alpha virt. eigenvalues --   -0.09853  -0.08916  -0.08908  -0.08467  -0.07775
 Alpha virt. eigenvalues --   -0.07647  -0.07592  -0.07200  -0.06577  -0.06284

  Beta  occ. eigenvalues --  -10.71378 -10.71365 -10.68765 -10.68764 -10.68689
  Beta  occ. eigenvalues --  -10.68689 -10.68286 -10.68285 -10.67655 -10.67653
  Beta  occ. eigenvalues --  -10.67512 -10.67510 -10.67345 -10.67343 -10.66821
  Beta  occ. eigenvalues --  -10.66820 -10.66765 -10.66764 -10.66046 -10.66046
  Beta  occ. eigenvalues --  -10.66021 -10.66021 -10.65734 -10.65733 -10.65681
  Beta  occ. eigenvalues --  -10.65681 -10.65644 -10.65644 -10.65310 -10.65309
  Beta  occ. eigenvalues --  -10.65259 -10.65258 -10.65004 -10.65002 -10.64973
  Beta  occ. eigenvalues --  -10.64972 -10.64536 -10.64535 -10.63792 -10.63697
  Beta  occ. eigenvalues --  -10.63561 -10.62174  -1.12940  -1.10245  -1.09526
  Beta  occ. eigenvalues --   -1.08431  -1.07796  -1.06156  -1.03532  -1.02767
  Beta  occ. eigenvalues --   -1.02325  -1.00493  -0.99263  -0.97808  -0.97779
  Beta  occ. eigenvalues --   -0.96834  -0.96153  -0.94584  -0.93188  -0.93185
  Beta  occ. eigenvalues --   -0.92212  -0.91565  -0.88035  -0.86254  -0.84815
  Beta  occ. eigenvalues --   -0.84676  -0.82300  -0.81561  -0.80873  -0.79926
  Beta  occ. eigenvalues --   -0.79619  -0.79412  -0.77770  -0.76084  -0.75854
  Beta  occ. eigenvalues --   -0.75131  -0.74915  -0.73710  -0.70093  -0.69969
  Beta  occ. eigenvalues --   -0.68679  -0.67857  -0.67627  -0.67478  -0.67110
  Beta  occ. eigenvalues --   -0.66781  -0.65312  -0.64854  -0.64832  -0.64428
  Beta  occ. eigenvalues --   -0.63434  -0.62965  -0.62211  -0.61758  -0.61326
  Beta  occ. eigenvalues --   -0.61274  -0.60466  -0.60225  -0.59887  -0.59494
  Beta  occ. eigenvalues --   -0.59417  -0.58535  -0.58112  -0.57616  -0.57198
  Beta  occ. eigenvalues --   -0.56935  -0.55886  -0.55842  -0.55487  -0.54971
  Beta  occ. eigenvalues --   -0.54958  -0.54458  -0.54072  -0.52848  -0.52770
  Beta  occ. eigenvalues --   -0.52419  -0.51892  -0.51860  -0.51441  -0.51084
  Beta  occ. eigenvalues --   -0.50438  -0.50331  -0.49461  -0.48818  -0.48330
  Beta  occ. eigenvalues --   -0.48126  -0.47928  -0.47543  -0.43493  -0.43038
  Beta  occ. eigenvalues --   -0.42661  -0.42200  -0.40977  -0.40211  -0.39555
  Beta  occ. eigenvalues --   -0.37353  -0.36890  -0.36152
  Beta virt. eigenvalues --   -0.26667  -0.15640  -0.14855  -0.14540  -0.12224
  Beta virt. eigenvalues --   -0.09967  -0.09729  -0.08837  -0.08440  -0.08228
  Beta virt. eigenvalues --   -0.07612  -0.07535  -0.07438  -0.06836  -0.06574

 Mulliken charges and spin densities:
               1          2
     1  C    0.067138  -0.031431
     2  C    0.067215  -0.031503
     3  C    0.205712   0.001480
     4  C    0.097954   0.000142
     5  C    0.124807   0.003117
     6  C    0.107053   0.005403
     7  C   -0.296584   0.000260
     8  H    0.174671  -0.000019
     9  C    0.131323   0.079382
    10  C   -0.296836   0.000261
    11  H    0.174673  -0.000019
    12  C    0.124919   0.003119
    13  C    0.107203   0.005405
    14  C    0.032344  -0.002448
    15  C    0.104318   0.055998
    16  C   -0.151555   0.092815
    17  H    0.170478  -0.003467
    18  C   -0.506055   0.004655
    19  H    0.172907   0.000172
    20  C    0.312313  -0.000734
    21  C   -0.158359   0.009585
    22  H    0.173682  -0.000095
    23  C    0.104234   0.056027
    24  C    0.312773  -0.000723
    25  C   -0.506052   0.004655
    26  H    0.172905   0.000172
    27  C    0.031899  -0.002408
    28  C   -0.147738  -0.063581
    29  H    0.198183   0.001669
    30  C   -0.385354  -0.014078
    31  H    0.208651   0.000490
    32  C   -0.184344  -0.010877
    33  H    0.178874   0.000671
    34  C   -0.158274   0.009588
    35  H    0.173665  -0.000095
    36  C   -0.221174   0.024580
    37  H    0.164303  -0.001078
    38  C    0.131284   0.079446
    39  C   -0.169945   0.121174
    40  H    0.170345  -0.008161
    41  C   -0.299419  -0.000654
    42  H    0.176695   0.000365
    43  C   -0.173954   0.074004
    44  H    0.164939  -0.003547
    45  C   -0.221311   0.024608
    46  H    0.164308  -0.001079
    47  C   -0.193508   0.146975
    48  H    0.179175  -0.007416
    49  C   -0.385406  -0.014054
    50  H    0.208643   0.000490
    51  C   -0.299566  -0.000667
    52  H    0.176700   0.000366
    53  C   -0.151817   0.092858
    54  H    0.170480  -0.003468
    55  C    0.048199   0.027080
    56  H    0.176235  -0.001744
    57  C   -0.184147  -0.010871
    58  H    0.178873   0.000672
    59  C   -0.170033   0.121288
    60  H    0.170359  -0.008168
    61  C    0.048028   0.027030
    62  H    0.176226  -0.001742
    63  C   -0.174056   0.074023
    64  H    0.164949  -0.003549
    65  C   -0.147962  -0.063604
    66  H    0.198163   0.001669
    67  C   -0.193528   0.147000
    68  H    0.179175  -0.007417
 Sum of Mulliken charges =   1.00000   1.00000

 Dipole moment (field-independent basis, Debye):
    X=              0.0012    Y=              3.9396    Z=             -0.0014  Tot=              3.9396
 Quadrupole moment (field-independent basis, Debye-Ang):
   XX=           -222.2507   YY=           -173.7542   ZZ=           -177.0633
   XY=             -0.0008   XZ=             -2.8177   YZ=              0.0019

 Normal termination of Gaussian 16 at Fri Mar 21 13:39:31 2025.
