 Gaussian 16, Revision A.03,
 Gaussian 16:  ES64L-G16RevA.03 25-Dec-2016

 --------------------------------------------
 #p opt UM062X/6-311+G** nosymm int=superfine
 --------------------------------------------

 -------------------
 Title Card Required
 -------------------
 Symbolic Z-matrix:
 Charge =  0 Multiplicity = 1

 SCF Done:  E(UM062X) =  -683.721817280     A.U. after   10 cycles
 SCF Done:  E(UM062X) =  -683.723021175     A.U. after   10 cycles
 SCF Done:  E(UM062X) =  -683.723100455     A.U. after   10 cycles
 Optimization completed.
    -- Stationary point found.

                          Input orientation:
 ---------------------------------------------------------------------
 Center     Atomic      Atomic             Coordinates (Angstroms)
 Number     Number       Type             X           Y           Z
 ---------------------------------------------------------------------
      1         15           0       -1.459490    0.000000    0.000000
      2         15           0        1.459490    0.000000    0.000000
      3          1           0       -1.417141   -1.421238   -0.000000
      4          1           0        1.417141    1.421238   -0.000000
 ---------------------------------------------------------------------

 Alpha  occ. eigenvalues --  -78.07869 -78.07869  -6.89829  -6.89827  -5.01272
 Alpha  occ. eigenvalues --   -5.01272  -5.01228  -5.01227  -5.01058  -5.01058
 Alpha  occ. eigenvalues --   -0.70204  -0.66215  -0.40866  -0.39793  -0.30251
 Alpha  occ. eigenvalues --   -0.26572
 Alpha virt. eigenvalues --   -0.13943  -0.08069   0.01923   0.03327   0.03845
 Alpha virt. eigenvalues --    0.04651   0.05000   0.06092   0.06738   0.08592
 Alpha virt. eigenvalues --    0.09113   0.12555   0.28025   0.29671   0.30521

  Beta  occ. eigenvalues --  -78.07869 -78.07869  -6.89829  -6.89827  -5.01272
  Beta  occ. eigenvalues --   -5.01272  -5.01228  -5.01227  -5.01058  -5.01058
  Beta  occ. eigenvalues --   -0.70204  -0.66215  -0.40866  -0.39793  -0.30251
  Beta  occ. eigenvalues --   -0.26572
  Beta virt. eigenvalues --   -0.13943  -0.08069   0.01923   0.03327   0.03845
  Beta virt. eigenvalues --    0.04651   0.05000   0.06092   0.06738   0.08592
  Beta virt. eigenvalues --    0.09113   0.12555   0.28025   0.29671   0.30521

 Mulliken charges and spin densities:
               1          2
     1  P    0.006685  -0.000000
     2  P    0.006685   0.000000
     3  H   -0.006685   0.000000
     4  H   -0.006685  -0.000000
 Sum of Mulliken charges =  -0.00000   0.00000

 Dipole moment (field-independent basis, Debye):
    X=             -0.0000    Y=             -0.0000    Z=             -0.0000  Tot=              0.0000
 Quadrupole moment (field-independent basis, Debye-Ang):
   XX=            -27.8234   YY=            -28.1073   ZZ=            -30.4350
   XY=              2.6914   XZ=             -0.0000   YZ=              0.0000

 Normal termination of Gaussian 16 at Mon Apr 21 21:11:39 2025.
