 Gaussian 16, Revision A.03,
 Gaussian 16:  ES64L-G16RevA.03 25-Dec-2016

 --------------------------------------------
 #p opt UM062X/6-311+G** nosymm int=superfine
 --------------------------------------------

 -------------------
 Title Card Required
 -------------------
 Symbolic Z-matrix:
 Charge =  0 Multiplicity = 1

 SCF Done:  E(UM062X) =  -77.0232316462     A.U. after   13 cycles
 SCF Done:  E(UM062X) =  -77.0228298824     A.U. after   12 cycles
 SCF Done:  E(UM062X) =  -77.0233454407     A.U. after   12 cycles
 SCF Done:  E(UM062X) =  -77.0233520026     A.U. after   10 cycles
 Optimization completed.
    -- Stationary point found.

                          Input orientation:
 ---------------------------------------------------------------------
 Center     Atomic      Atomic             Coordinates (Angstroms)
 Number     Number       Type             X           Y           Z
 ---------------------------------------------------------------------
      1          6           0       -1.032625    0.000000    0.000000
      2          6           0        1.032625    0.000000    0.000000
      3          1           0       -1.103129    0.337921    1.063254
      4          1           0        1.103183    1.033665   -0.419772
 ---------------------------------------------------------------------

 Alpha  occ. eigenvalues --  -10.65992 -10.65980  -0.77088  -0.68115  -0.41256
 Alpha  occ. eigenvalues --   -0.37762  -0.30401
 Alpha virt. eigenvalues --   -0.09077  -0.08556   0.01458   0.02701   0.06565
 Alpha virt. eigenvalues --    0.07660   0.09215   0.09773   0.10227   0.10477
 Alpha virt. eigenvalues --    0.15871   0.16562   0.21166   0.46038   0.47702

  Beta  occ. eigenvalues --  -10.65992 -10.65980  -0.77088  -0.68115  -0.41256
  Beta  occ. eigenvalues --   -0.37762  -0.30401
  Beta virt. eigenvalues --   -0.09077  -0.08556   0.01458   0.02701   0.06565
  Beta virt. eigenvalues --    0.07660   0.09215   0.09773   0.10227   0.10477
  Beta virt. eigenvalues --    0.15871   0.16562   0.21166   0.46038   0.47702

 Mulliken charges and spin densities:
               1          2
     1  C   -0.144728  -0.000000
     2  C   -0.144738   0.000000
     3  H    0.144730   0.000000
     4  H    0.144735  -0.000000
 Sum of Mulliken charges =  -0.00000   0.00000

 Dipole moment (field-independent basis, Debye):
    X=              0.0001    Y=              1.8859    Z=              0.8847  Tot=              2.0831
 Quadrupole moment (field-independent basis, Debye-Ang):
   XX=            -17.1351   YY=            -13.0184   ZZ=            -13.0560
   XY=              1.1559   XZ=             -2.4637   YZ=              0.0227

 Normal termination of Gaussian 16 at Tue Dec  3 21:23:15 2024.
