 Gaussian 16, Revision A.03,
 Gaussian 16:  ES64L-G16RevA.03 25-Dec-2016

 --------------------------------------------
 #p opt UM062X/6-311+G** nosymm int=superfine
 --------------------------------------------

 -------------------
 Title Card Required
 -------------------
 Symbolic Z-matrix:
 Charge =  1 Multiplicity = 2

 SCF Done:  E(UM062X) =  -79.3645289148     A.U. after    9 cycles
 SCF Done:  E(UM062X) =  -79.3686439764     A.U. after    9 cycles
 SCF Done:  E(UM062X) =  -79.3687414008     A.U. after    8 cycles
 Optimization completed.
    -- Stationary point found.

                          Input orientation:
 ---------------------------------------------------------------------
 Center     Atomic      Atomic             Coordinates (Angstroms)
 Number     Number       Type             X           Y           Z
 ---------------------------------------------------------------------
      1          6           0       -1.027204    0.000000    0.000000
      2          6           0        1.027204    0.000000    0.000000
      3          1           0        1.157589   -0.932662    0.539739
      4          1           0       -1.156978   -0.933795   -0.537940
      5          1           0        1.157201    0.933839    0.537810
      6          1           0        1.156959   -0.001092   -1.077663
      7          1           0       -1.157600    0.932702   -0.539668
      8          1           0       -1.157169    0.000962    1.077638
 ---------------------------------------------------------------------

 Alpha  occ. eigenvalues --  -10.86066 -10.86056  -1.10366  -1.01547  -0.78619
 Alpha  occ. eigenvalues --   -0.78617  -0.73739  -0.73739  -0.62794
 Alpha virt. eigenvalues --   -0.24426  -0.16440  -0.11151  -0.11151  -0.09864
 Alpha virt. eigenvalues --   -0.07221  -0.06399  -0.06398  -0.05416  -0.05414
 Alpha virt. eigenvalues --   -0.01989   0.01612   0.01615   0.04372   0.07373

  Beta  occ. eigenvalues --  -10.85849 -10.85849  -1.06873  -0.98611  -0.77647
  Beta  occ. eigenvalues --   -0.77646  -0.72951  -0.72950
  Beta virt. eigenvalues --   -0.39347  -0.17790  -0.16086  -0.11129  -0.11129
  Beta virt. eigenvalues --   -0.08250  -0.07383  -0.06633  -0.06632  -0.04995
  Beta virt. eigenvalues --   -0.04992  -0.01083   0.02256   0.02259   0.04871

 Mulliken charges and spin densities:
               1          2
     1  C   -0.317010   0.550275
     2  C   -0.317010   0.550275
     3  H    0.272346  -0.016780
     4  H    0.272326  -0.016748
     5  H    0.272336  -0.016752
     6  H    0.272329  -0.016743
     7  H    0.272346  -0.016780
     8  H    0.272338  -0.016747
 Sum of Mulliken charges =   1.00000   1.00000

 Dipole moment (field-independent basis, Debye):
    X=              0.0000    Y=             -0.0000    Z=             -0.0000  Tot=              0.0000
 Quadrupole moment (field-independent basis, Debye-Ang):
   XX=             -6.2604   YY=            -10.7765   ZZ=            -10.7764
   XY=             -0.0005   XZ=              0.0003   YZ=              0.0001

 Normal termination of Gaussian 16 at Wed Nov 13 13:27:05 2024.
