 Gaussian 16, Revision A.03,
 Gaussian 16:  ES64L-G16RevA.03 25-Dec-2016

 --------------------------------------------
 #p opt UM062X/6-311+G** nosymm int=superfine
 --------------------------------------------

 -------------------
 Title Card Required
 -------------------
 Symbolic Z-matrix:
 Charge =  0 Multiplicity = 1

 SCF Done:  E(UM062X) =  -78.2346346710     A.U. after    8 cycles
 SCF Done:  E(UM062X) =  -78.2352004911     A.U. after    8 cycles
 SCF Done:  E(UM062X) =  -78.2354773832     A.U. after    9 cycles
 Optimization completed.
    -- Stationary point found.

                          Input orientation:
 ---------------------------------------------------------------------
 Center     Atomic      Atomic             Coordinates (Angstroms)
 Number     Number       Type             X           Y           Z
 ---------------------------------------------------------------------
      1          6           0       -1.285595    0.000000    0.000000
      2          6           0        1.285595    0.000000    0.000000
      3          1           0       -1.691851   -0.998005    0.000000
      4          1           0       -1.691847    0.998009    0.000000
      5          1           0        1.691851    0.998005    0.000000
      6          1           0        1.691847   -0.998009   -0.000000
 ---------------------------------------------------------------------

 Alpha  occ. eigenvalues --  -10.62852 -10.62846  -0.75986  -0.73650  -0.53584
 Alpha  occ. eigenvalues --   -0.52574  -0.31749  -0.23760
 Alpha virt. eigenvalues --   -0.10433  -0.06129   0.03380   0.05296   0.05466
 Alpha virt. eigenvalues --    0.06990   0.09402   0.10241   0.11140   0.14305
 Alpha virt. eigenvalues --    0.16267   0.18864   0.21502   0.27176   0.39450

  Beta  occ. eigenvalues --  -10.62852 -10.62846  -0.75986  -0.73650  -0.53584
  Beta  occ. eigenvalues --   -0.52574  -0.31749  -0.23760
  Beta virt. eigenvalues --   -0.10433  -0.06129   0.03380   0.05296   0.05466
  Beta virt. eigenvalues --    0.06990   0.09402   0.10241   0.11140   0.14305
  Beta virt. eigenvalues --    0.16267   0.18864   0.21502   0.27176   0.39450

 Mulliken charges and spin densities:
               1          2
     1  C   -0.382647   0.000000
     2  C   -0.382647  -0.000000
     3  H    0.191324  -0.000000
     4  H    0.191324  -0.000000
     5  H    0.191324   0.000000
     6  H    0.191324   0.000000
 Sum of Mulliken charges =  -0.00000   0.00000

 Dipole moment (field-independent basis, Debye):
    X=             -0.0000    Y=              0.0000    Z=              0.0000  Tot=              0.0000
 Quadrupole moment (field-independent basis, Debye-Ang):
   XX=            -10.1493   YY=            -11.8823   ZZ=            -18.9620
   XY=              0.0000   XZ=             -0.0000   YZ=              0.0000

 Normal termination of Gaussian 16 at Tue Dec  3 11:06:42 2024.
