 Gaussian 16, Revision A.03,
 Gaussian 16:  ES64L-G16RevA.03 25-Dec-2016

 --------------------------------------------
 #p opt UM062X/6-311+G** nosymm int=superfine
 --------------------------------------------

 -------------------
 Title Card Required
 -------------------
 Symbolic Z-matrix:
 Charge =  0 Multiplicity = 1

 SCF Done:  E(UM062X) =  -81.8753257175     A.U. after   11 cycles
 SCF Done:  E(UM062X) =  -81.8786948346     A.U. after    9 cycles
 SCF Done:  E(UM062X) =  -81.8800225598     A.U. after   10 cycles
 SCF Done:  E(UM062X) =  -81.8715811834     A.U. after   12 cycles
 SCF Done:  E(UM062X) =  -81.8801197106     A.U. after    9 cycles
 SCF Done:  E(UM062X) =  -81.8818380456     A.U. after   12 cycles
 SCF Done:  E(UM062X) =  -81.8852652398     A.U. after   12 cycles
 SCF Done:  E(UM062X) =  -81.8866741490     A.U. after   12 cycles
 SCF Done:  E(UM062X) =  -81.8887461950     A.U. after   12 cycles
 SCF Done:  E(UM062X) =  -81.8892082893     A.U. after   10 cycles
 SCF Done:  E(UM062X) =  -81.8892540743     A.U. after   10 cycles
 SCF Done:  E(UM062X) =  -81.8892570150     A.U. after    8 cycles
 Optimization completed.
    -- Stationary point found.

                          Input orientation:
 ---------------------------------------------------------------------
 Center     Atomic      Atomic             Coordinates (Angstroms)
 Number     Number       Type             X           Y           Z
 ---------------------------------------------------------------------
      1          5           0       -1.070399    0.000000    0.000000
      2          7           0        1.070399    0.000000    0.000000
      3          1           0       -1.532053   -1.081442   -0.039117
      4          1           0        1.292731    0.819325    0.562745
      5          1           0       -1.532053    1.081430   -0.039459
      6          1           0        1.292732   -0.819138    0.563016
 ---------------------------------------------------------------------

 Alpha  occ. eigenvalues --  -14.72755  -7.13429  -0.89515  -0.59376  -0.51297
 Alpha  occ. eigenvalues --   -0.46008  -0.37238  -0.30625
 Alpha virt. eigenvalues --   -0.04881   0.00802   0.01615   0.03411   0.05519
 Alpha virt. eigenvalues --    0.08066   0.11739   0.13785   0.14866   0.16580
 Alpha virt. eigenvalues --    0.20278   0.20683   0.21783   0.28339   0.34472

  Beta  occ. eigenvalues --  -14.72755  -7.13429  -0.89515  -0.59376  -0.51297
  Beta  occ. eigenvalues --   -0.46008  -0.37238  -0.30625
  Beta virt. eigenvalues --   -0.04881   0.00802   0.01615   0.03411   0.05519
  Beta virt. eigenvalues --    0.08066   0.11739   0.13785   0.14866   0.16580
  Beta virt. eigenvalues --    0.20278   0.20683   0.21783   0.28339   0.34472

 Mulliken charges and spin densities:
               1          2
     1  B    0.198513  -0.000000
     2  N   -0.744208   0.000000
     3  H    0.034201  -0.000000
     4  H    0.238646   0.000000
     5  H    0.034201   0.000000
     6  H    0.238646  -0.000000
 Sum of Mulliken charges =  -0.00000   0.00000

 Dipole moment (field-independent basis, Debye):
    X=             -2.0079    Y=              0.0003    Z=              1.5319  Tot=              2.5255
 Quadrupole moment (field-independent basis, Debye-Ang):
   XX=            -14.7389   YY=            -13.2797   ZZ=            -14.5703
   XY=              0.0004   XZ=              2.4144   YZ=             -0.0002

 Normal termination of Gaussian 16 at Mon Apr 21 17:43:15 2025.
