 Gaussian 16, Revision A.03,
 Gaussian 16:  ES64L-G16RevA.03 25-Dec-2016

 --------------------------------------------
 #p opt UM062X/6-311+G** nosymm int=superfine
 --------------------------------------------

 -------------------
 Title Card Required
 -------------------
 Symbolic Z-matrix:
 Charge =  0 Multiplicity = 1

 SCF Done:  E(UM062X) =  -438.499737503     A.U. after   12 cycles
 SCF Done:  E(UM062X) =  -438.513002144     A.U. after   11 cycles
 SCF Done:  E(UM062X) =  -438.519168118     A.U. after   11 cycles
 SCF Done:  E(UM062X) =  -438.519233700     A.U. after    9 cycles
 SCF Done:  E(UM062X) =  -438.519255046     A.U. after   11 cycles
 SCF Done:  E(UM062X) =  -438.519274031     A.U. after   10 cycles
 SCF Done:  E(UM062X) =  -438.519276839     A.U. after   11 cycles
 SCF Done:  E(UM062X) =  -438.519277532     A.U. after    8 cycles
 SCF Done:  E(UM062X) =  -438.519277983     A.U. after   10 cycles
 SCF Done:  E(UM062X) =  -438.519278281     A.U. after   10 cycles
 Optimization completed.
    -- Stationary point found.

                          Input orientation:
 ---------------------------------------------------------------------
 Center     Atomic      Atomic             Coordinates (Angstroms)
 Number     Number       Type             X           Y           Z
 ---------------------------------------------------------------------
      1          6           0       -1.785220    0.000000    0.000000
      2         16           0        1.785220    0.000000    0.000000
      3          1           0        1.742471   -1.343829   -0.001702
      4          1           0       -1.796696    1.080769    0.002491
      5          1           0       -1.838319   -0.535287   -0.937618
      6          1           0       -1.838491   -0.539604    0.935129
 ---------------------------------------------------------------------

 Alpha  occ. eigenvalues --  -89.87995 -10.64739  -8.24270  -6.16319  -6.16248
 Alpha  occ. eigenvalues --   -6.15701  -0.82978  -0.75720  -0.54989  -0.54907
 Alpha  occ. eigenvalues --   -0.42254  -0.28190  -0.27784
 Alpha virt. eigenvalues --   -0.14988   0.01202   0.03869   0.04378   0.05607
 Alpha virt. eigenvalues --    0.07545   0.08371   0.08469   0.10864   0.13566
 Alpha virt. eigenvalues --    0.15893   0.16245   0.21311   0.33815   0.35800

  Beta  occ. eigenvalues --  -89.87995 -10.64739  -8.24270  -6.16319  -6.16248
  Beta  occ. eigenvalues --   -6.15701  -0.82978  -0.75720  -0.54989  -0.54907
  Beta  occ. eigenvalues --   -0.42254  -0.28190  -0.27784
  Beta virt. eigenvalues --   -0.14988   0.01202   0.03869   0.04378   0.05607
  Beta virt. eigenvalues --    0.07545   0.08371   0.08469   0.10864   0.13566
  Beta virt. eigenvalues --    0.15893   0.16245   0.21311   0.33815   0.35800

 Mulliken charges and spin densities:
               1          2
     1  C   -0.401732   0.000001
     2  S   -0.278445  -0.000001
     3  H    0.052141   0.000000
     4  H    0.211102  -0.000000
     5  H    0.208476  -0.000000
     6  H    0.208459  -0.000000
 Sum of Mulliken charges =  -0.00000   0.00000

 Dipole moment (field-independent basis, Debye):
    X=             -4.5582    Y=             -0.9498    Z=             -0.0012  Tot=              4.6561
 Quadrupole moment (field-independent basis, Debye-Ang):
   XX=            -20.7085   YY=            -19.5817   ZZ=            -23.6359
   XY=             -1.7903   XZ=             -0.0024   YZ=              0.0051

 Normal termination of Gaussian 16 at Mon Apr 21 19:36:49 2025.
