 Gaussian 16, Revision A.03,
 Gaussian 16:  ES64L-G16RevA.03 25-Dec-2016

 --------------------------------------------
 #p opt UM062X/6-311+G** nosymm int=superfine
 --------------------------------------------

 -------------------
 Title Card Required
 -------------------
 Symbolic Z-matrix:
 Charge =  0 Multiplicity = 1

 SCF Done:  E(UM062X) =  -79.5528575930     A.U. after   10 cycles
 SCF Done:  E(UM062X) =  -79.5573751781     A.U. after   10 cycles
 SCF Done:  E(UM062X) =  -79.5595584490     A.U. after   11 cycles
 SCF Done:  E(UM062X) =  -79.5595815307     A.U. after    9 cycles
 Optimization completed.
    -- Stationary point found.

                          Input orientation:
 ---------------------------------------------------------------------
 Center     Atomic      Atomic             Coordinates (Angstroms)
 Number     Number       Type             X           Y           Z
 ---------------------------------------------------------------------
      1          6           0       -2.246675    0.000000    0.000000
      2          6           0        2.246800    0.000000    0.000000
      3          1           0        2.281271   -0.934128    0.540530
      4          1           0       -2.281126   -0.935181   -0.538707
      5          1           0        2.281255    0.935182    0.538706
      6          1           0        2.281304   -0.001053   -1.079243
      7          1           0       -2.281146    0.934128   -0.540530
      8          1           0       -2.281184    0.001052    1.079243
 ---------------------------------------------------------------------

 Alpha  occ. eigenvalues --  -10.57245 -10.57244  -0.77210  -0.77044  -0.49446
 Alpha  occ. eigenvalues --   -0.49446  -0.49397  -0.49397  -0.20721
 Alpha virt. eigenvalues --   -0.12624   0.03021   0.04758   0.05247   0.05247
 Alpha virt. eigenvalues --    0.07176   0.07176   0.10735   0.12945   0.18817
 Alpha virt. eigenvalues --    0.18817   0.19736   0.19736   0.20496   0.25385

  Beta  occ. eigenvalues --  -10.57245 -10.57244  -0.77210  -0.77044  -0.49446
  Beta  occ. eigenvalues --   -0.49446  -0.49397  -0.49397  -0.20721
  Beta virt. eigenvalues --   -0.12624   0.03021   0.04758   0.05247   0.05247
  Beta virt. eigenvalues --    0.07176   0.07176   0.10735   0.12945   0.18817
  Beta virt. eigenvalues --    0.18817   0.19736   0.19736   0.20496   0.25385

 Mulliken charges and spin densities:
               1          2
     1  C   -0.519017  -0.000002
     2  C   -0.519017   0.000002
     3  H    0.173006  -0.000000
     4  H    0.173006   0.000000
     5  H    0.173006  -0.000000
     6  H    0.173005  -0.000000
     7  H    0.173006   0.000000
     8  H    0.173005   0.000000
 Sum of Mulliken charges =  -0.00000   0.00000

 Dipole moment (field-independent basis, Debye):
    X=             -0.0000    Y=             -0.0000    Z=             -0.0000  Tot=              0.0000
 Quadrupole moment (field-independent basis, Debye-Ang):
   XX=            -16.3670   YY=            -14.8873   ZZ=            -14.8874
   XY=             -0.0000   XZ=             -0.0001   YZ=             -0.0000

 Normal termination of Gaussian 16 at Tue Dec  3 10:12:21 2024.
