 Gaussian 16, Revision A.03,
 Gaussian 16:  ES64L-G16RevA.03 25-Dec-2016

 ---------------------------------------------------
 #p UM062X/6-311+G** force int=superfine pop=saveNBO
 ---------------------------------------------------

 -------------------
 Title Card Required
 -------------------
 Symbolic Z-matrix:
 Charge =  0 Multiplicity = 1

                         Standard orientation:
 ---------------------------------------------------------------------
 Center     Atomic      Atomic             Coordinates (Angstroms)
 Number     Number       Type             X           Y           Z
 ---------------------------------------------------------------------
      1          8           0        0.000000    0.000000   -2.926757
      2         16           0        0.000000    0.000000    1.463379
 ---------------------------------------------------------------------

 SCF Done:  E(UM062X) =  -473.003187050     A.U. after   17 cycles

 Unable to determine electronic state:  partially filled degenerate orbitals.
 Alpha  occ. eigenvalues --  -89.96708 -19.77242  -8.32769  -6.25568  -6.23969
 Alpha  occ. eigenvalues --   -6.23959  -1.06927  -0.76870  -0.45815  -0.45805
 Alpha  occ. eigenvalues --   -0.34128  -0.34063
 Alpha virt. eigenvalues --   -0.19828  -0.19297   0.03573   0.04804   0.05608
 Alpha virt. eigenvalues --    0.05695   0.14134   0.17471   0.17603   0.21129
 Alpha virt. eigenvalues --    0.33917   0.35112   0.35760   0.59275   0.77768

  Beta  occ. eigenvalues --  -89.96708 -19.77242  -8.32769  -6.25568  -6.23969
  Beta  occ. eigenvalues --   -6.23959  -1.06927  -0.76870  -0.45815  -0.45805
  Beta  occ. eigenvalues --   -0.34128  -0.34063
  Beta virt. eigenvalues --   -0.19828  -0.19297   0.03573   0.04804   0.05608
  Beta virt. eigenvalues --    0.05695   0.14134   0.17471   0.17603   0.21129
  Beta virt. eigenvalues --    0.33917   0.35112   0.35760   0.59275   0.77768

 Mulliken charges and spin densities:
               1          2
     1  O   -0.003948   0.000000
     2  S    0.003948   0.000000
 Sum of Mulliken charges =  -0.00000   0.00000

 Dipole moment (field-independent basis, Debye):
    X=              0.0000    Y=              0.0000    Z=              0.1456  Tot=              0.1456
 Quadrupole moment (field-independent basis, Debye-Ang):
   XX=            -15.6838   YY=            -21.1585   ZZ=            -18.9744
   XY=              0.0000   XZ=              0.0000   YZ=              0.0000

 Summary of Natural Population Analysis:

                                       Natural Population
                Natural  -----------------------------------------------
    Atom  No    Charge         Core      Valence    Rydberg      Total
 -----------------------------------------------------------------------
      O    1   -0.00226      1.00000     3.00213    0.00014     4.00226
      S    2    0.00226      4.99999     2.99731    0.00043     7.99774
 =======================================================================
   * Total *   -0.00000      5.99999     5.99944    0.00057    12.00000

 Normal termination of Gaussian 16 at Mon Apr 21 20:00:38 2025.
