 Gaussian 16, Revision A.03,
 Gaussian 16:  ES64L-G16RevA.03 25-Dec-2016

 ---------------------------------------------------
 #p UM062X/6-311+G** force int=superfine pop=saveNBO
 ---------------------------------------------------

 -------------------
 Title Card Required
 -------------------
 Symbolic Z-matrix:
 Charge =  0 Multiplicity = 1

                         Standard orientation:
 ---------------------------------------------------------------------
 Center     Atomic      Atomic             Coordinates (Angstroms)
 Number     Number       Type             X           Y           Z
 ---------------------------------------------------------------------
      1         16           0        0.000000    0.000000    1.925200
      2         16           0        0.000000    0.000000   -1.925200
 ---------------------------------------------------------------------

 SCF Done:  E(UM062X) =  -796.042166744     A.U. after    9 cycles

 Unable to determine electronic state:  partially filled degenerate orbitals.
 Alpha  occ. eigenvalues --  -89.98874 -89.98874  -8.34657  -8.34657  -6.26686
 Alpha  occ. eigenvalues --   -6.26686  -6.26667  -6.26667  -6.25840  -6.25840
 Alpha  occ. eigenvalues --   -0.78243  -0.77395  -0.34975  -0.34407  -0.32908
 Alpha  occ. eigenvalues --   -0.31344
 Alpha virt. eigenvalues --   -0.23614  -0.21991   0.03002   0.03838   0.04756
 Alpha virt. eigenvalues --    0.05213   0.07088   0.07367   0.07549   0.12512
 Alpha virt. eigenvalues --    0.31594   0.32206   0.33066   0.35719   0.35993

  Beta  occ. eigenvalues --  -89.98874 -89.98874  -8.34657  -8.34657  -6.26686
  Beta  occ. eigenvalues --   -6.26686  -6.26667  -6.26667  -6.25840  -6.25840
  Beta  occ. eigenvalues --   -0.78243  -0.77395  -0.34975  -0.34407  -0.32908
  Beta  occ. eigenvalues --   -0.31344
  Beta virt. eigenvalues --   -0.23614  -0.21991   0.03002   0.03838   0.04756
  Beta virt. eigenvalues --    0.05213   0.07088   0.07367   0.07549   0.12512
  Beta virt. eigenvalues --    0.31594   0.32206   0.33066   0.35719   0.35993

 Mulliken charges and spin densities:
               1          2
     1  S   -0.000000  -0.000000
     2  S   -0.000000  -0.000000
 Sum of Mulliken charges =  -0.00000  -0.00000

 Dipole moment (field-independent basis, Debye):
    X=              0.0000    Y=              0.0000    Z=              0.0000  Tot=              0.0000
 Quadrupole moment (field-independent basis, Debye-Ang):
   XX=            -25.3983   YY=            -30.3969   ZZ=            -22.5667
   XY=              0.0000   XZ=             -0.0000   YZ=              0.0000

 Summary of Natural Population Analysis:

                                       Natural Population
                Natural  -----------------------------------------------
    Atom  No    Charge         Core      Valence    Rydberg      Total
 -----------------------------------------------------------------------
      S    1   -0.00000      5.00000     2.99924    0.00076     8.00000
      S    2   -0.00000      5.00000     2.99924    0.00076     8.00000
 =======================================================================
   * Total *   -0.00000      9.99999     5.99849    0.00152    16.00000

 Normal termination of Gaussian 16 at Mon Apr 21 20:06:03 2025.
