 Gaussian 16, Revision A.03,
 Gaussian 16:  ES64L-G16RevA.03 25-Dec-2016

 --------------------------------------------
 #p opt UM062X/6-311+G** nosymm int=superfine
 --------------------------------------------

 -------------------
 Title Card Required
 -------------------
 Symbolic Z-matrix:
 Charge =  1 Multiplicity = 2

 SCF Done:  E(UM062X) =  -580.859347960     A.U. after   15 cycles
 SCF Done:  E(UM062X) =  -580.866930379     A.U. after    9 cycles
 SCF Done:  E(UM062X) =  -580.869086793     A.U. after   12 cycles
 SCF Done:  E(UM062X) =  -580.869089724     A.U. after    7 cycles
 Optimization completed.
    -- Stationary point found.

                          Input orientation:
 ---------------------------------------------------------------------
 Center     Atomic      Atomic             Coordinates (Angstroms)
 Number     Number       Type             X           Y           Z
 ---------------------------------------------------------------------
      1         14           0       -2.516295    0.000000    0.000000
      2         14           0        2.516295    0.000000    0.000000
      3          1           0       -3.417364   -1.189300    0.000046
      4          1           0        3.417364    1.189299    0.001073
      5          1           0       -3.417379    1.189288   -0.000037
      6          1           0        3.417379   -1.189288   -0.001064
 ---------------------------------------------------------------------

 Alpha  occ. eigenvalues --  -67.23634 -67.23634  -5.78132  -5.78132  -4.09401
 Alpha  occ. eigenvalues --   -4.09401  -4.09080  -4.09080  -4.08739  -4.08739
 Alpha  occ. eigenvalues --   -0.77660  -0.77618  -0.59466  -0.59455  -0.48550
 Alpha  occ. eigenvalues --   -0.47524
 Alpha virt. eigenvalues --   -0.26449  -0.26130  -0.11902  -0.11740  -0.09181
 Alpha virt. eigenvalues --   -0.08553  -0.07669  -0.06766  -0.06709  -0.05912
 Alpha virt. eigenvalues --   -0.05418  -0.05352  -0.05289  -0.03355   0.13283

  Beta  occ. eigenvalues --  -67.23306 -67.23305  -5.77887  -5.77887  -4.09299
  Beta  occ. eigenvalues --   -4.09299  -4.08632  -4.08632  -4.08312  -4.08311
  Beta  occ. eigenvalues --   -0.75857  -0.75686  -0.58297  -0.58280  -0.41656
  Beta virt. eigenvalues --   -0.33508  -0.25286  -0.24868  -0.11232  -0.10562
  Beta virt. eigenvalues --   -0.09237  -0.07125  -0.06951  -0.06324  -0.06241
  Beta virt. eigenvalues --   -0.05956  -0.05188  -0.05108  -0.04618  -0.02970

 Mulliken charges and spin densities:
               1          2
     1  Si   0.565659   0.390197
     2  Si   0.565659   0.390197
     3  H   -0.032830   0.054902
     4  H   -0.032830   0.054902
     5  H   -0.032829   0.054902
     6  H   -0.032829   0.054902
 Sum of Mulliken charges =   1.00000   1.00000

 Dipole moment (field-independent basis, Debye):
    X=             -0.0000    Y=              0.0000    Z=              0.0000  Tot=              0.0000
 Quadrupole moment (field-independent basis, Debye-Ang):
   XX=             10.4861   YY=            -25.9479   ZZ=            -20.8866
   XY=             -0.0000   XZ=              0.0000   YZ=             -0.0022

 Normal termination of Gaussian 16 at Mon Apr 21 20:28:12 2025.
