 Gaussian 16, Revision A.03,
 Gaussian 16:  ES64L-G16RevA.03 25-Dec-2016

 --------------------------------------------
 #p opt UM062X/6-311+G** nosymm int=superfine
 --------------------------------------------

 -------------------
 Title Card Required
 -------------------
 Symbolic Z-matrix:
 Charge =  1 Multiplicity = 2

 SCF Done:  E(UM062X) =  -76.5835784518     A.U. after   34 cycles
 SCF Done:  E(UM062X) =  -76.5839107239     A.U. after   41 cycles
 Optimization completed.
    -- Stationary point found.

                          Input orientation:
 ---------------------------------------------------------------------
 Center     Atomic      Atomic             Coordinates (Angstroms)
 Number     Number       Type             X           Y           Z
 ---------------------------------------------------------------------
      1          6           0       -2.232160    0.000000    0.000000
      2          6           0        2.232160    0.000000    0.000000
      3          1           0       -3.349667    0.000000   -0.000000
      4          1           0        3.349666   -0.000000   -0.000000
 ---------------------------------------------------------------------

 Alpha  occ. eigenvalues --  -10.93862 -10.93862  -0.97564  -0.97508  -0.62988
 Alpha  occ. eigenvalues --   -0.62569  -0.46913
 Alpha virt. eigenvalues --   -0.40622  -0.32640  -0.32508  -0.11819  -0.11061
 Alpha virt. eigenvalues --   -0.07343  -0.07039  -0.06120  -0.04580  -0.04280
 Alpha virt. eigenvalues --   -0.01566  -0.00109   0.05266   0.28145   0.29107

  Beta  occ. eigenvalues --  -10.93447 -10.93447  -0.95174  -0.95164  -0.61623
  Beta  occ. eigenvalues --   -0.61173
  Beta virt. eigenvalues --   -0.30769  -0.30599  -0.29154  -0.28952  -0.12227
  Beta virt. eigenvalues --   -0.11003  -0.06590  -0.06434  -0.05715  -0.03781
  Beta virt. eigenvalues --   -0.02827  -0.01825   0.01524   0.07035   0.27436

 Mulliken charges and spin densities:
               1          2
     1  C    0.278381   0.516292
     2  C    0.278381   0.516293
     3  H    0.221619  -0.016293
     4  H    0.221619  -0.016293
 Sum of Mulliken charges =   1.00000   1.00000

 Dipole moment (field-independent basis, Debye):
    X=             -0.0000    Y=              0.0000    Z=              0.0000  Tot=              0.0000
 Quadrupole moment (field-independent basis, Debye-Ang):
   XX=             31.3167   YY=             -9.9595   ZZ=            -10.9831
   XY=             -0.0000   XZ=              0.0000   YZ=             -0.8551

 Normal termination of Gaussian 16 at Tue Dec  3 11:36:30 2024.
