 Gaussian 16, Revision A.03,
 Gaussian 16:  ES64L-G16RevA.03 25-Dec-2016

 --------------------------------------------
 #p opt UM062X/6-311+G** nosymm int=superfine
 --------------------------------------------

 -------------------
 Title Card Required
 -------------------
 Symbolic Z-matrix:
 Charge =  1 Multiplicity = 2

 SCF Done:  E(UM062X) =  -76.7191129857     A.U. after   11 cycles
 SCF Done:  E(UM062X) =  -76.7545432135     A.U. after   10 cycles
 SCF Done:  E(UM062X) =  -76.7839331972     A.U. after   11 cycles
 SCF Done:  E(UM062X) =  -76.7841106066     A.U. after    8 cycles
 Optimization completed.
    -- Stationary point found.

                          Input orientation:
 ---------------------------------------------------------------------
 Center     Atomic      Atomic             Coordinates (Angstroms)
 Number     Number       Type             X           Y           Z
 ---------------------------------------------------------------------
      1          6           0       -0.795318    0.000000    0.000000
      2          6           0        0.795318    0.000000    0.000000
      3          1           0       -1.887913    0.000000   -0.000000
      4          1           0        1.887917    0.000000   -0.000000
 ---------------------------------------------------------------------

 Alpha  occ. eigenvalues --  -10.99066 -10.99020  -1.12286  -0.98869  -0.85753
 Alpha  occ. eigenvalues --   -0.65179  -0.62982
 Alpha virt. eigenvalues --   -0.34779  -0.32775  -0.24122  -0.14255  -0.10811
 Alpha virt. eigenvalues --   -0.10737  -0.09303  -0.09062  -0.05260  -0.04927
 Alpha virt. eigenvalues --    0.01717   0.04021   0.08841   0.21808   0.31409

  Beta  occ. eigenvalues --  -10.98823 -10.98790  -1.08215  -0.97146  -0.85006
  Beta  occ. eigenvalues --   -0.60900
  Beta virt. eigenvalues --   -0.41757  -0.31066  -0.26922  -0.22011  -0.15345
  Beta virt. eigenvalues --   -0.11187  -0.10996  -0.09665  -0.09473  -0.05125
  Beta virt. eigenvalues --   -0.04779   0.00942   0.04138   0.09264   0.22646

 Mulliken charges and spin densities:
               1          2
     1  C    0.146710   0.521158
     2  C    0.146711   0.521162
     3  H    0.353288  -0.021160
     4  H    0.353290  -0.021160
 Sum of Mulliken charges =   1.00000   1.00000

 Dipole moment (field-independent basis, Debye):
    X=              0.0000    Y=              0.0000    Z=             -0.0000  Tot=              0.0000
 Quadrupole moment (field-independent basis, Debye-Ang):
   XX=              2.2431   YY=            -11.6074   ZZ=            -11.3776
   XY=             -0.0000   XZ=              0.0000   YZ=              1.0113

 Normal termination of Gaussian 16 at Tue Nov 19 13:12:04 2024.
