 Gaussian 16, Revision A.03,
 Gaussian 16:  ES64L-G16RevA.03 25-Dec-2016

 ---------------------------------------
 #p UM062X/6-311+G** force int=superfine
 ---------------------------------------

 -------------------
 Title Card Required
 -------------------
 Symbolic Z-matrix:
 Charge =  1 Multiplicity = 2

                         Standard orientation:
 ---------------------------------------------------------------------
 Center     Atomic      Atomic             Coordinates (Angstroms)
 Number     Number       Type             X           Y           Z
 ---------------------------------------------------------------------
      1          6           0        1.027204   -0.000003    0.000049
      2          6           0       -1.027204   -0.000007   -0.000048
      3          1           0       -1.157640    0.084449    1.074210
      4          1           0        1.156954    0.972669    0.464018
      5          1           0       -1.157177   -0.972598   -0.464127
      6          1           0       -1.156932    0.888171   -0.610380
      7          1           0        1.157651   -0.084541   -1.074201
      8          1           0        1.157142   -0.888087    0.610474
 ---------------------------------------------------------------------

 SCF Done:  E(UM062X) =  -79.3687414392     A.U. after    9 cycles

 The electronic state is 2-A.
 Alpha  occ. eigenvalues --  -10.86066 -10.86056  -1.10366  -1.01547  -0.78619
 Alpha  occ. eigenvalues --   -0.78617  -0.73739  -0.73739  -0.62794
 Alpha virt. eigenvalues --   -0.24426  -0.16440  -0.11151  -0.11151  -0.09865
 Alpha virt. eigenvalues --   -0.07223  -0.06399  -0.06398  -0.05416  -0.05414
 Alpha virt. eigenvalues --   -0.01992   0.01612   0.01615   0.04372   0.07372

  Beta  occ. eigenvalues --  -10.85849 -10.85849  -1.06873  -0.98611  -0.77647
  Beta  occ. eigenvalues --   -0.77646  -0.72951  -0.72950
  Beta virt. eigenvalues --   -0.39347  -0.17790  -0.16086  -0.11129  -0.11129
  Beta virt. eigenvalues --   -0.08250  -0.07383  -0.06633  -0.06632  -0.04995
  Beta virt. eigenvalues --   -0.04992  -0.01083   0.02256   0.02259   0.04871

 Mulliken charges and spin densities:
               1          2
     1  C   -0.317010   0.550277
     2  C   -0.317010   0.550277
     3  H    0.272348  -0.016777
     4  H    0.272327  -0.016748
     5  H    0.272337  -0.016752
     6  H    0.272325  -0.016748
     7  H    0.272349  -0.016777
     8  H    0.272334  -0.016752
 Sum of Mulliken charges =   1.00000   1.00000

 Dipole moment (field-independent basis, Debye):
    X=              0.0000    Y=              0.0000    Z=             -0.0000  Tot=              0.0000
 Quadrupole moment (field-independent basis, Debye-Ang):
   XX=             -6.2604   YY=            -10.7764   ZZ=            -10.7765
   XY=             -0.0000   XZ=             -0.0004   YZ=              0.0000

 Normal termination of Gaussian 16 at Wed Nov 13 13:43:58 2024.
