 Gaussian 16, Revision A.03,
 Gaussian 16:  ES64L-G16RevA.03 25-Dec-2016

 ---------------------------------------
 #p UM062X/6-311+G** force int=superfine
 ---------------------------------------

 -------------------
 Title Card Required
 -------------------
 Symbolic Z-matrix:
 Charge =  1 Multiplicity = 2

                         Standard orientation:
 ---------------------------------------------------------------------
 Center     Atomic      Atomic             Coordinates (Angstroms)
 Number     Number       Type             X           Y           Z
 ---------------------------------------------------------------------
      1          6           0        0.000000    0.000000    0.515714
      2          6           0        0.000000    0.000000   -0.515714
      3          1           0        0.000000    0.000000    1.590364
      4          1           0        0.000000    0.000000   -1.590364
 ---------------------------------------------------------------------

 SCF Done:  E(UM062X) =  -76.7845284909     A.U. after    9 cycles

 Unable to determine electronic state:  an orbital has unidentified symmetry.
 Alpha  occ. eigenvalues --  -10.90964 -10.89893  -1.30614  -0.95555  -0.91064
 Alpha  occ. eigenvalues --   -0.80238  -0.76931
 Alpha virt. eigenvalues --   -0.21068  -0.19234  -0.14684  -0.14014  -0.11919
 Alpha virt. eigenvalues --   -0.11216  -0.10896  -0.03843  -0.03203  -0.02917
 Alpha virt. eigenvalues --    0.02410   0.04375   0.17252   0.20005   0.26436

  Beta  occ. eigenvalues --  -10.90643 -10.89623  -1.24977  -0.94026  -0.90303
  Beta  occ. eigenvalues --   -0.74305
  Beta virt. eigenvalues --   -0.50688  -0.17984  -0.16428  -0.15602  -0.13556
  Beta virt. eigenvalues --   -0.11879  -0.11397  -0.11002  -0.02784  -0.02392
  Beta virt. eigenvalues --   -0.01835   0.02545   0.04765   0.17901   0.20405

 Mulliken charges and spin densities:
               1          2
     1  C    0.227564   0.520265
     2  C    0.227564   0.520265
     3  H    0.272436  -0.020265
     4  H    0.272436  -0.020265
 Sum of Mulliken charges =   1.00000   1.00000

 Dipole moment (field-independent basis, Debye):
    X=              0.0000    Y=              0.0000    Z=              0.0000  Tot=              0.0000
 Quadrupole moment (field-independent basis, Debye-Ang):
   XX=            -10.5824   YY=             -8.9830   ZZ=             -1.8557
   XY=              0.0000   XZ=             -0.0000   YZ=             -0.0000

 Normal termination of Gaussian 16 at Tue Nov 19 13:27:30 2024.
