 Gaussian 16, Revision A.03,
 Gaussian 16:  ES64L-G16RevA.03 25-Dec-2016

 --------------------------------------------
 #p opt UM062X/6-311+G** nosymm int=superfine
 --------------------------------------------

 -------------------
 Title Card Required
 -------------------
 Symbolic Z-matrix:
 Charge =  0 Multiplicity = 1

 SCF Done:  E(UM062X) =  -111.614255146     A.U. after   16 cycles
 SCF Done:  E(UM062X) =  -111.618770733     A.U. after   16 cycles
 SCF Done:  E(UM062X) =  -111.621703551     A.U. after   16 cycles
 SCF Done:  E(UM062X) =  -111.623834536     A.U. after   16 cycles
 SCF Done:  E(UM062X) =  -111.625775700     A.U. after   19 cycles
 SCF Done:  E(UM062X) =  -111.626648177     A.U. after   13 cycles
 SCF Done:  E(UM062X) =  -111.627022939     A.U. after   14 cycles
 SCF Done:  E(UM062X) =  -111.627369922     A.U. after   15 cycles
 SCF Done:  E(UM062X) =  -111.627658407     A.U. after   18 cycles
 SCF Done:  E(UM062X) =  -111.627758567     A.U. after   16 cycles
 SCF Done:  E(UM062X) =  -111.627784028     A.U. after   15 cycles
 SCF Done:  E(UM062X) =  -111.627812358     A.U. after   15 cycles
 SCF Done:  E(UM062X) =  -111.627843758     A.U. after   13 cycles
 SCF Done:  E(UM062X) =  -111.627855640     A.U. after   14 cycles
 SCF Done:  E(UM062X) =  -111.627878511     A.U. after   15 cycles
 SCF Done:  E(UM062X) =  -111.627884393     A.U. after   12 cycles
 SCF Done:  E(UM062X) =  -111.627884453     A.U. after   11 cycles
 Optimization completed.
    -- Stationary point found.

                          Input orientation:
 ---------------------------------------------------------------------
 Center     Atomic      Atomic             Coordinates (Angstroms)
 Number     Number       Type             X           Y           Z
 ---------------------------------------------------------------------
      1          7           0       -1.911540    0.000000    0.000000
      2          7           0        1.911540    0.000000    0.000000
      3          1           0       -1.793310   -0.811177   -0.619881
      4          1           0        1.793469    0.402965   -0.938037
      5          1           0       -1.793268   -0.403310    0.937867
      6          1           0        1.793697    0.811495    0.619535
 ---------------------------------------------------------------------

 Alpha  occ. eigenvalues --  -14.80520 -14.80519  -0.95210  -0.94954  -0.55342
 Alpha  occ. eigenvalues --   -0.55208  -0.40792  -0.40585  -0.28283
 Alpha virt. eigenvalues --   -0.18770   0.04185   0.06006   0.08774   0.11535
 Alpha virt. eigenvalues --    0.12313   0.13378   0.15472   0.16373   0.17947
 Alpha virt. eigenvalues --    0.18766   0.23628   0.28624   0.51154   0.51621

  Beta  occ. eigenvalues --  -14.80520 -14.80519  -0.95210  -0.94954  -0.55342
  Beta  occ. eigenvalues --   -0.55208  -0.40792  -0.40585  -0.28283
  Beta virt. eigenvalues --   -0.18770   0.04185   0.06006   0.08774   0.11535
  Beta virt. eigenvalues --    0.12313   0.13378   0.15472   0.16373   0.17947
  Beta virt. eigenvalues --    0.18766   0.23628   0.28624   0.51154   0.51621

 Mulliken charges and spin densities:
               1          2
     1  N   -0.481472  -0.000000
     2  N   -0.481563   0.000000
     3  H    0.240753   0.000000
     4  H    0.240759  -0.000000
     5  H    0.240760   0.000000
     6  H    0.240764  -0.000000
 Sum of Mulliken charges =  -0.00000  -0.00000

 Dipole moment (field-independent basis, Debye):
    X=              0.0007    Y=             -0.0001    Z=             -0.0009  Tot=              0.0011
 Quadrupole moment (field-independent basis, Debye-Ang):
   XX=            -16.9266   YY=            -14.3722   ZZ=            -11.5329
   XY=              7.8939   XZ=             -2.0682   YZ=              0.7989

 Normal termination of Gaussian 16 at Thu May 15 15:09:14 2025.
