 Gaussian 16, Revision A.03,
 Gaussian 16:  ES64L-G16RevA.03 25-Dec-2016

 ---------------------------------------
 #p UM062X/6-311+G** force int=superfine
 ---------------------------------------

 -------------------
 Title Card Required
 -------------------
 Symbolic Z-matrix:
 Charge =  0 Multiplicity = 1

                         Standard orientation:
 ---------------------------------------------------------------------
 Center     Atomic      Atomic             Coordinates (Angstroms)
 Number     Number       Type             X           Y           Z
 ---------------------------------------------------------------------
      1          7           0        0.000000    0.000000    1.970048
      2          7           0        0.000000    0.000000   -1.970048
 ---------------------------------------------------------------------

 SCF Done:  E(UM062X) =  -108.697982201     A.U. after    9 cycles

 The electronic state is 1-SGG.
 Alpha  occ. eigenvalues --  -14.95811 -14.95809  -0.86906  -0.86485  -0.32326
 Alpha  occ. eigenvalues --   -0.31744  -0.31744
 Alpha virt. eigenvalues --   -0.24442  -0.24442  -0.23643   0.06679   0.09191
 Alpha virt. eigenvalues --    0.10965   0.10965   0.13807   0.14488   0.14488
 Alpha virt. eigenvalues --    0.21305   0.77453   0.77453   0.78458   0.78458

  Beta  occ. eigenvalues --  -14.95811 -14.95809  -0.86906  -0.86485  -0.32326
  Beta  occ. eigenvalues --   -0.31744  -0.31744
  Beta virt. eigenvalues --   -0.24442  -0.24442  -0.23643   0.06679   0.09191
  Beta virt. eigenvalues --    0.10965   0.10965   0.13807   0.14488   0.14488
  Beta virt. eigenvalues --    0.21305   0.77453   0.77453   0.78458   0.78458

 Mulliken charges and spin densities:
               1          2
     1  N    0.000000  -0.000000
     2  N    0.000000  -0.000000
 Sum of Mulliken charges =   0.00000  -0.00000

 Dipole moment (field-independent basis, Debye):
    X=              0.0000    Y=             -0.0000    Z=             -0.0000  Tot=              0.0000
 Quadrupole moment (field-independent basis, Debye-Ang):
   XX=            -12.4257   YY=            -12.4257   ZZ=            -11.0127
   XY=             -0.0000   XZ=             -0.0000   YZ=              0.0000

 Optimization completed.
    -- Stationary point found.
 Normal termination of Gaussian 16 at Wed Feb 26 14:02:21 2025.
