 Gaussian 16, Revision A.03,
 Gaussian 16:  ES64L-G16RevA.03 25-Dec-2016

 --------------------------------------------
 #p opt UM062X/6-311+G** nosymm int=superfine
 --------------------------------------------

 -------------------
 Title Card Required
 -------------------
 Symbolic Z-matrix:
 Charge =  0 Multiplicity = 1

 SCF Done:  E(UM062X) =  -114.088093719     A.U. after   17 cycles
 SCF Done:  E(UM062X) =  -114.090407633     A.U. after   10 cycles
 SCF Done:  E(UM062X) =  -114.091140894     A.U. after    9 cycles
 SCF Done:  E(UM062X) =  -114.091145229     A.U. after    8 cycles
 Optimization completed.
    -- Stationary point found.

                          Input orientation:
 ---------------------------------------------------------------------
 Center     Atomic      Atomic             Coordinates (Angstroms)
 Number     Number       Type             X           Y           Z
 ---------------------------------------------------------------------
      1          6           0       -1.748311    0.000000    0.000000
      2          8           0        1.748311    0.000000    0.000000
      3          1           0       -2.427489   -0.872154    0.000002
      4          1           0       -2.427494    0.872150    0.000002
 ---------------------------------------------------------------------

 Alpha  occ. eigenvalues --  -19.73873 -10.63173  -1.03690  -0.77474  -0.49867
 Alpha  occ. eigenvalues --   -0.42582  -0.42576  -0.33136
 Alpha virt. eigenvalues --   -0.16817  -0.09885   0.01617   0.05944   0.07822
 Alpha virt. eigenvalues --    0.08258   0.15759   0.16902   0.18305   0.19856
 Alpha virt. eigenvalues --    0.22096   0.26099   0.43455   0.46912   0.57398

  Beta  occ. eigenvalues --  -19.73873 -10.63173  -1.03690  -0.77474  -0.49867
  Beta  occ. eigenvalues --   -0.42582  -0.42576  -0.33136
  Beta virt. eigenvalues --   -0.16817  -0.09885   0.01617   0.05944   0.07822
  Beta virt. eigenvalues --    0.08258   0.15759   0.16902   0.18305   0.19856
  Beta virt. eigenvalues --    0.22096   0.26099   0.43455   0.46912   0.57398

 Mulliken charges and spin densities:
               1          2
     1  C   -0.262616  -0.000000
     2  O   -0.029755   0.000000
     3  H    0.146186   0.000000
     4  H    0.146186  -0.000000
 Sum of Mulliken charges =  -0.00000   0.00000

 Dipole moment (field-independent basis, Debye):
    X=             -2.9233    Y=             -0.0000    Z=              0.0000  Tot=              2.9233
 Quadrupole moment (field-independent basis, Debye-Ang):
   XX=             -5.4779   YY=            -13.0733   ZZ=            -12.4978
   XY=              0.0000   XZ=             -0.0000   YZ=             -0.0000

 Normal termination of Gaussian 16 at Mon Apr 21 18:50:33 2025.
