 Gaussian 16, Revision A.03,
 Gaussian 16:  ES64L-G16RevA.03 25-Dec-2016

 ----------------------------------------------------------------------
 #p opt UM062X/6-311+G** nosymm int=superfine SCF=(MaxCycle=200,NoVarAc
 c,noincfock) guess=read
 ----------------------------------------------------------------------

 -------------------
 Title Card Required
 -------------------
 Symbolic Z-matrix:
 Charge =  1 Multiplicity = 2

 SCF Done:  E(UM062X) =  -379.398397818     A.U. after   40 cycles
 SCF Done:  E(UM062X) =  -379.398703467     A.U. after   17 cycles
 Optimization completed.
    -- Stationary point found.

                          Input orientation:
 ---------------------------------------------------------------------
 Center     Atomic      Atomic             Coordinates (Angstroms)
 Number     Number       Type             X           Y           Z
 ---------------------------------------------------------------------
      1          6           0       -1.194427    0.000000    0.000000
      2         15           0        1.194427    0.000000    0.000000
      3          1           0       -2.301157    0.000000    0.000000
 ---------------------------------------------------------------------

 Alpha  occ. eigenvalues --  -78.39593 -10.96930  -7.20684  -5.32746  -5.32129
 Alpha  occ. eigenvalues --   -5.31655  -1.00687  -0.91373  -0.68690  -0.56125
 Alpha  occ. eigenvalues --   -0.53474
 Alpha virt. eigenvalues --   -0.37043  -0.36251  -0.32651  -0.13531  -0.10574
 Alpha virt. eigenvalues --   -0.09181  -0.09038  -0.08571  -0.05553  -0.05354
 Alpha virt. eigenvalues --   -0.00566   0.03643   0.11563   0.14209   0.14378

  Beta  occ. eigenvalues --  -78.38949 -10.96876  -7.20508  -5.31927  -5.31663
  Beta  occ. eigenvalues --   -5.30714  -0.99376  -0.87365  -0.67923  -0.52134
  Beta virt. eigenvalues --   -0.37249  -0.35802  -0.31546  -0.30819  -0.14484
  Beta virt. eigenvalues --   -0.11055  -0.09013  -0.08937  -0.08711  -0.05433
  Beta virt. eigenvalues --   -0.05378  -0.01199   0.03738   0.11083   0.11616

 Mulliken charges and spin densities:
               1          2
     1  C   -0.003091   0.179667
     2  P    0.688764   0.832901
     3  H    0.314328  -0.012568
 Sum of Mulliken charges =   1.00000   1.00000

 Dipole moment (field-independent basis, Debye):
    X=             -0.0207    Y=             -0.0000    Z=              0.0000  Tot=              0.0207
 Quadrupole moment (field-independent basis, Debye-Ang):
   XX=             -1.1648   YY=            -18.7616   ZZ=            -16.4208
   XY=              0.0000   XZ=             -0.0000   YZ=              0.5682

 Normal termination of Gaussian 16 at Mon Apr 21 23:49:20 2025.
