 Gaussian 16, Revision A.03,
 Gaussian 16:  ES64L-G16RevA.03 25-Dec-2016

 --------------------------------------------
 #p opt UM062X/6-311+G** nosymm int=superfine
 --------------------------------------------

 -------------------
 Title Card Required
 -------------------
 Symbolic Z-matrix:
 Charge =  0 Multiplicity = 1

 SCF Done:  E(UM062X) =  -684.964352207     A.U. after   11 cycles
 SCF Done:  E(UM062X) =  -684.966121908     A.U. after   11 cycles
 SCF Done:  E(UM062X) =  -684.967199200     A.U. after   11 cycles
 SCF Done:  E(UM062X) =  -684.967315554     A.U. after   10 cycles
 SCF Done:  E(UM062X) =  -684.967357335     A.U. after   10 cycles
 SCF Done:  E(UM062X) =  -684.967379594     A.U. after   10 cycles
 SCF Done:  E(UM062X) =  -684.967402751     A.U. after   10 cycles
 SCF Done:  E(UM062X) =  -684.967433463     A.U. after   10 cycles
 SCF Done:  E(UM062X) =  -684.967460779     A.U. after   10 cycles
 SCF Done:  E(UM062X) =  -684.967518156     A.U. after   10 cycles
 SCF Done:  E(UM062X) =  -684.967592960     A.U. after   12 cycles
 SCF Done:  E(UM062X) =  -684.967596596     A.U. after    9 cycles
 SCF Done:  E(UM062X) =  -684.967596932     A.U. after    9 cycles
 SCF Done:  E(UM062X) =  -684.967598026     A.U. after   12 cycles
 SCF Done:  E(UM062X) =  -684.967598640     A.U. after    8 cycles
 SCF Done:  E(UM062X) =  -684.967598657     A.U. after    7 cycles
 Optimization completed.
    -- Stationary point found.

                          Input orientation:
 ---------------------------------------------------------------------
 Center     Atomic      Atomic             Coordinates (Angstroms)
 Number     Number       Type             X           Y           Z
 ---------------------------------------------------------------------
      1         15           0       -1.742217    0.000000    0.000000
      2         15           0        1.742217    0.000000    0.000000
      3          1           0        1.691022   -0.949255    1.052902
      4          1           0       -1.692574    1.019489    0.985201
      5          1           0        1.692725   -1.018268   -0.986469
      6          1           0       -1.691098    0.947950   -1.054077
 ---------------------------------------------------------------------

 Alpha  occ. eigenvalues --  -78.04851 -78.04851  -6.87195  -6.87194  -4.98746
 Alpha  occ. eigenvalues --   -4.98746  -4.98631  -4.98631  -4.98445  -4.98445
 Alpha  occ. eigenvalues --   -0.71470  -0.70158  -0.45133  -0.44482  -0.36293
 Alpha  occ. eigenvalues --   -0.35731  -0.27064
 Alpha virt. eigenvalues --   -0.11579   0.01639   0.03021   0.03288   0.04138
 Alpha virt. eigenvalues --    0.04776   0.05665   0.06106   0.06216   0.06624
 Alpha virt. eigenvalues --    0.08532   0.15847   0.18699   0.28145   0.28406

  Beta  occ. eigenvalues --  -78.04851 -78.04851  -6.87195  -6.87194  -4.98746
  Beta  occ. eigenvalues --   -4.98746  -4.98631  -4.98631  -4.98445  -4.98445
  Beta  occ. eigenvalues --   -0.71470  -0.70158  -0.45133  -0.44482  -0.36293
  Beta  occ. eigenvalues --   -0.35731  -0.27064
  Beta virt. eigenvalues --   -0.11579   0.01639   0.03021   0.03288   0.04138
  Beta virt. eigenvalues --    0.04776   0.05665   0.06106   0.06216   0.06624
  Beta virt. eigenvalues --    0.08532   0.15847   0.18699   0.28145   0.28406

 Mulliken charges and spin densities:
               1          2
     1  P   -0.030637   0.000000
     2  P   -0.030643  -0.000000
     3  H    0.015338   0.000000
     4  H    0.015314  -0.000000
     5  H    0.015302   0.000000
     6  H    0.015326  -0.000000
 Sum of Mulliken charges =  -0.00000   0.00000

 Dipole moment (field-independent basis, Debye):
    X=              0.0000    Y=             -0.0000    Z=             -0.0010  Tot=              0.0010
 Quadrupole moment (field-independent basis, Debye-Ang):
   XX=            -29.1325   YY=            -31.1779   ZZ=            -28.4180
   XY=             -3.8353   XZ=              0.1296   YZ=              0.0946

 Normal termination of Gaussian 16 at Mon Apr 21 20:50:15 2025.
