 Gaussian 16, Revision A.03,
 Gaussian 16:  ES64L-G16RevA.03 25-Dec-2016

 --------------------------------------------
 #p opt UM062X/6-311+G** nosymm int=superfine
 --------------------------------------------

 -------------------
 Title Card Required
 -------------------
 Symbolic Z-matrix:
 Charge =  1 Multiplicity = 2

 SCF Done:  E(UM062X) =  -77.9953286971     A.U. after    9 cycles
 SCF Done:  E(UM062X) =  -78.0322142629     A.U. after    9 cycles
 SCF Done:  E(UM062X) =  -78.0588887957     A.U. after   10 cycles
 SCF Done:  E(UM062X) =  -78.0658886249     A.U. after    9 cycles
 SCF Done:  E(UM062X) =  -78.0663785792     A.U. after    9 cycles
 SCF Done:  E(UM062X) =  -78.0663820569     A.U. after    6 cycles
 Optimization completed.
    -- Stationary point found.

                          Input orientation:
 ---------------------------------------------------------------------
 Center     Atomic      Atomic             Coordinates (Angstroms)
 Number     Number       Type             X           Y           Z
 ---------------------------------------------------------------------
      1          6           0       -1.003787    0.000000    0.000000
      2          6           0        1.003787    0.000000    0.000000
      3          1           0       -1.467689   -0.980641    0.000000
      4          1           0       -1.467685    0.980673    0.000000
      5          1           0        1.467689    0.980641   -0.000000
      6          1           0        1.467685   -0.980673   -0.000000
 ---------------------------------------------------------------------

 Alpha  occ. eigenvalues --  -10.92163 -10.92148  -1.07044  -1.00007  -0.80796
 Alpha  occ. eigenvalues --   -0.77386  -0.67664  -0.56598
 Alpha virt. eigenvalues --   -0.36314  -0.23627  -0.14155  -0.11050  -0.10025
 Alpha virt. eigenvalues --   -0.08430  -0.07455  -0.07203  -0.04753  -0.04178
 Alpha virt. eigenvalues --   -0.02650  -0.00634   0.02162   0.09390   0.17998

  Beta  occ. eigenvalues --  -10.91929 -10.91919  -1.03934  -0.97787  -0.80245
  Beta  occ. eigenvalues --   -0.77033  -0.66142
  Beta virt. eigenvalues --   -0.35635  -0.27656  -0.21222  -0.15504  -0.11390
  Beta virt. eigenvalues --   -0.10039  -0.07928  -0.07640  -0.07376  -0.04232
  Beta virt. eigenvalues --   -0.03928  -0.02192  -0.00050   0.01371   0.10102

 Mulliken charges and spin densities:
               1          2
     1  C   -0.067008   0.541144
     2  C   -0.067009   0.541144
     3  H    0.283503  -0.020572
     4  H    0.283506  -0.020572
     5  H    0.283503  -0.020572
     6  H    0.283506  -0.020572
 Sum of Mulliken charges =   1.00000   1.00000

 Dipole moment (field-independent basis, Debye):
    X=             -0.0000    Y=             -0.0000    Z=             -0.0000  Tot=              0.0000
 Quadrupole moment (field-independent basis, Debye-Ang):
   XX=             -2.1721   YY=             -8.1542   ZZ=            -12.4841
   XY=             -0.0001   XZ=             -0.0000   YZ=             -0.0000

 Normal termination of Gaussian 16 at Tue Nov 19 11:20:37 2024.
