 Gaussian 16, Revision A.03,
 Gaussian 16:  ES64L-G16RevA.03 25-Dec-2016

 --------------------------------------------
 #p opt UM062X/6-311+G** nosymm int=superfine
 --------------------------------------------

 -------------------
 Title Card Required
 -------------------
 Symbolic Z-matrix:
 Charge =  0 Multiplicity = 1

 SCF Done:  E(UM062X) =  -115.685347363     A.U. after   10 cycles
 SCF Done:  E(UM062X) =  -115.687625473     A.U. after   10 cycles
 SCF Done:  E(UM062X) =  -115.687672372     A.U. after    8 cycles
 SCF Done:  E(UM062X) =  -115.687672868     A.U. after    7 cycles
 Optimization completed.
    -- Stationary point found.

                          Input orientation:
 ---------------------------------------------------------------------
 Center     Atomic      Atomic             Coordinates (Angstroms)
 Number     Number       Type             X           Y           Z
 ---------------------------------------------------------------------
      1          6           0       -0.807203    0.000000    0.000000
      2          8           0        0.807203    0.000000    0.000000
      3          1           0        1.042435   -0.931653    0.000469
      4          1           0       -1.148187   -0.496945    0.904696
      5          1           0       -1.059642    1.054160   -0.000642
      6          1           0       -1.148202   -0.498045   -0.904085
 ---------------------------------------------------------------------

 Alpha  occ. eigenvalues --  -19.62054 -10.59445  -1.09682  -0.78595  -0.55412
 Alpha  occ. eigenvalues --   -0.51092  -0.47857  -0.41991  -0.36087
 Alpha virt. eigenvalues --    0.01305   0.02603   0.05249   0.05491   0.15221
 Alpha virt. eigenvalues --    0.16355   0.17899   0.18568   0.20351   0.23129
 Alpha virt. eigenvalues --    0.23850   0.24310   0.32670   0.42369   0.44145

  Beta  occ. eigenvalues --  -19.62054 -10.59445  -1.09682  -0.78595  -0.55412
  Beta  occ. eigenvalues --   -0.51092  -0.47857  -0.41991  -0.36087
  Beta virt. eigenvalues --    0.01305   0.02603   0.05249   0.05491   0.15221
  Beta virt. eigenvalues --    0.16355   0.17899   0.18568   0.20351   0.23129
  Beta virt. eigenvalues --    0.23850   0.24310   0.32670   0.42369   0.44145

 Mulliken charges and spin densities:
               1          2
     1  C   -0.304640  -0.000000
     2  O   -0.434135   0.000000
     3  H    0.249589  -0.000000
     4  H    0.157166  -0.000000
     5  H    0.174857  -0.000000
     6  H    0.157162  -0.000000
 Sum of Mulliken charges =  -0.00000   0.00000

 Dipole moment (field-independent basis, Debye):
    X=             -1.8427    Y=             -1.5408    Z=              0.0008  Tot=              2.4020
 Quadrupole moment (field-independent basis, Debye-Ang):
   XX=            -13.4777   YY=            -11.5632   ZZ=            -13.8273
   XY=             -2.1191   XZ=              0.0011   YZ=             -0.0011

 Normal termination of Gaussian 16 at Mon Apr 21 18:40:14 2025.
