 Gaussian 16, Revision A.03,
 Gaussian 16:  ES64L-G16RevA.03 25-Dec-2016

 --------------------------------------------
 #p opt UM062X/6-311+G** nosymm int=superfine
 --------------------------------------------

 -------------------
 Title Card Required
 -------------------
 Symbolic Z-matrix:
 Charge =  0 Multiplicity = 1

 SCF Done:  E(UM062X) =  -380.960690999     A.U. after   19 cycles
 SCF Done:  E(UM062X) =  -380.962396734     A.U. after   14 cycles
 SCF Done:  E(UM062X) =  -380.963354552     A.U. after   15 cycles
 SCF Done:  E(UM062X) =  -380.963363999     A.U. after   13 cycles
 SCF Done:  E(UM062X) =  -380.963374310     A.U. after   15 cycles
 SCF Done:  E(UM062X) =  -380.963381225     A.U. after   14 cycles
 SCF Done:  E(UM062X) =  -380.963386863     A.U. after   18 cycles
 SCF Done:  E(UM062X) =  -380.963393963     A.U. after   13 cycles
 SCF Done:  E(UM062X) =  -380.963394354     A.U. after   12 cycles
 Optimization completed.
    -- Stationary point found.

                          Input orientation:
 ---------------------------------------------------------------------
 Center     Atomic      Atomic             Coordinates (Angstroms)
 Number     Number       Type             X           Y           Z
 ---------------------------------------------------------------------
      1          6           0       -1.505452    0.000000    0.000000
      2         15           0        1.505452    0.000000    0.000000
      3          1           0       -2.158327   -0.883027    0.000085
      4          1           0        1.329271   -1.409600    0.000144
      5          1           0       -2.126562    0.905171   -0.000384
 ---------------------------------------------------------------------

 Alpha  occ. eigenvalues --  -78.04517 -10.64484  -6.86613  -4.98497  -4.97849
 Alpha  occ. eigenvalues --   -4.97517  -0.78009  -0.65090  -0.51495  -0.37875
 Alpha  occ. eigenvalues --   -0.34288  -0.23875
 Alpha virt. eigenvalues --   -0.10945  -0.08654   0.01460   0.04226   0.04762
 Alpha virt. eigenvalues --    0.06243   0.06934   0.07207   0.09151   0.11523
 Alpha virt. eigenvalues --    0.13784   0.17550   0.18517   0.30925   0.33854

  Beta  occ. eigenvalues --  -78.04517 -10.64484  -6.86613  -4.98497  -4.97849
  Beta  occ. eigenvalues --   -4.97517  -0.78009  -0.65090  -0.51495  -0.37875
  Beta  occ. eigenvalues --   -0.34288  -0.23875
  Beta virt. eigenvalues --   -0.10945  -0.08654   0.01460   0.04226   0.04762
  Beta virt. eigenvalues --    0.06243   0.06934   0.07207   0.09151   0.11523
  Beta virt. eigenvalues --    0.13784   0.17550   0.18517   0.30925   0.33854

 Mulliken charges and spin densities:
               1          2
     1  C   -0.355530   0.000002
     2  P    0.049694  -0.000002
     3  H    0.167358  -0.000000
     4  H   -0.029325   0.000000
     5  H    0.167803  -0.000000
 Sum of Mulliken charges =  -0.00000  -0.00000

 Dipole moment (field-independent basis, Debye):
    X=             -2.5062    Y=             -0.5886    Z=             -0.0003  Tot=              2.5743
 Quadrupole moment (field-independent basis, Debye-Ang):
   XX=            -14.8416   YY=            -21.1610   ZZ=            -25.5511
   XY=             -1.4489   XZ=             -0.0003   YZ=             -0.0004

 Normal termination of Gaussian 16 at Mon Apr 21 19:16:29 2025.
