 Gaussian 16, Revision A.03,
 Gaussian 16:  ES64L-G16RevA.03 25-Dec-2016

 --------------------------------------------
 #p opt UM062X/6-311+G** nosymm int=superfine
 --------------------------------------------

 -------------------
 Title Card Required
 -------------------
 Symbolic Z-matrix:
 Charge =  1 Multiplicity = 2

 SCF Done:  E(UM062X) =  -78.1471364346     A.U. after    9 cycles
 SCF Done:  E(UM062X) =  -78.1569826240     A.U. after    8 cycles
 SCF Done:  E(UM062X) =  -78.1580571011     A.U. after    8 cycles
 SCF Done:  E(UM062X) =  -78.1580950325     A.U. after    6 cycles
 Optimization completed.
    -- Stationary point found.

                          Input orientation:
 ---------------------------------------------------------------------
 Center     Atomic      Atomic             Coordinates (Angstroms)
 Number     Number       Type             X           Y           Z
 ---------------------------------------------------------------------
      1          6           0       -0.812926    0.000000    0.000000
      2          6           0        0.812926    0.000000    0.000000
      3          1           0       -1.331674   -0.953065    0.000000
      4          1           0       -1.331755    0.953027    0.000000
      5          1           0        1.331674    0.953065   -0.000000
      6          1           0        1.331755   -0.953027   -0.000000
 ---------------------------------------------------------------------

 Alpha  occ. eigenvalues --  -10.90928 -10.90891  -1.12872  -0.98697  -0.82716
 Alpha  occ. eigenvalues --   -0.75149  -0.75052  -0.62091
 Alpha virt. eigenvalues --   -0.32674  -0.14526  -0.13911  -0.11651  -0.09116
 Alpha virt. eigenvalues --   -0.07539  -0.07154  -0.04617  -0.04616  -0.04603
 Alpha virt. eigenvalues --   -0.01870  -0.01189   0.03211   0.10059   0.19153

  Beta  occ. eigenvalues --  -10.90702 -10.90676  -1.09307  -0.96664  -0.81859
  Beta  occ. eigenvalues --   -0.74705  -0.74052
  Beta virt. eigenvalues --   -0.39173  -0.24900  -0.16204  -0.13327  -0.11966
  Beta virt. eigenvalues --   -0.09284  -0.08281  -0.07194  -0.04645  -0.03983
  Beta virt. eigenvalues --   -0.03299  -0.01286  -0.00462   0.02926   0.10559

 Mulliken charges and spin densities:
               1          2
     1  C   -0.059459   0.539086
     2  C   -0.059459   0.539086
     3  H    0.279726  -0.019544
     4  H    0.279733  -0.019543
     5  H    0.279726  -0.019544
     6  H    0.279733  -0.019543
 Sum of Mulliken charges =   1.00000   1.00000

 Dipole moment (field-independent basis, Debye):
    X=             -0.0000    Y=              0.0000    Z=              0.0000  Tot=              0.0000
 Quadrupole moment (field-independent basis, Debye-Ang):
   XX=             -4.5104   YY=             -8.3751   ZZ=            -11.9179
   XY=             -0.0002   XZ=             -0.0000   YZ=             -0.0000

 Normal termination of Gaussian 16 at Tue Nov 19 11:06:29 2024.
