 Gaussian 16, Revision A.03,
 Gaussian 16:  ES64L-G16RevA.03 25-Dec-2016

 --------------------------------------------
 #p opt UM062X/6-311+G** nosymm int=superfine
 --------------------------------------------

 -------------------
 Title Card Required
 -------------------
 Symbolic Z-matrix:
 Charge =  1 Multiplicity = 2

 SCF Done:  E(UM062X) =  -78.1780511176     A.U. after    9 cycles
 SCF Done:  E(UM062X) =  -78.1793697117     A.U. after    8 cycles
 SCF Done:  E(UM062X) =  -78.1794413619     A.U. after    7 cycles
 Optimization completed.
    -- Stationary point found.

                          Input orientation:
 ---------------------------------------------------------------------
 Center     Atomic      Atomic             Coordinates (Angstroms)
 Number     Number       Type             X           Y           Z
 ---------------------------------------------------------------------
      1          6           0       -0.671547    0.000000    0.000000
      2          6           0        0.671547    0.000000    0.000000
      3          1           0       -1.237524   -0.928821    0.000000
      4          1           0       -1.237650    0.928660    0.000000
      5          1           0        1.237524    0.928821   -0.000000
      6          1           0        1.237650   -0.928660   -0.000000
 ---------------------------------------------------------------------

 Alpha  occ. eigenvalues --  -10.89089 -10.88976  -1.20821  -0.97377  -0.85660
 Alpha  occ. eigenvalues --   -0.80886  -0.71914  -0.68591
 Alpha virt. eigenvalues --   -0.28139  -0.14745  -0.12840  -0.12516  -0.09952
 Alpha virt. eigenvalues --   -0.07862  -0.06779  -0.04885  -0.04393  -0.02741
 Alpha virt. eigenvalues --   -0.00352   0.02528   0.10264   0.11121   0.20804

  Beta  occ. eigenvalues --  -10.88851 -10.88754  -1.16669  -0.95481  -0.84451
  Beta  occ. eigenvalues --   -0.79967  -0.71611
  Beta virt. eigenvalues --   -0.43300  -0.21356  -0.16479  -0.12878  -0.12491
  Beta virt. eigenvalues --   -0.10534  -0.08764  -0.06838  -0.04803  -0.03472
  Beta virt. eigenvalues --   -0.02286  -0.00634   0.02655   0.11400   0.11577

 Mulliken charges and spin densities:
               1          2
     1  C   -0.049271   0.537285
     2  C   -0.049271   0.537285
     3  H    0.274631  -0.018644
     4  H    0.274640  -0.018641
     5  H    0.274631  -0.018644
     6  H    0.274640  -0.018641
 Sum of Mulliken charges =   1.00000   1.00000

 Dipole moment (field-independent basis, Debye):
    X=             -0.0000    Y=             -0.0000    Z=             -0.0000  Tot=              0.0000
 Quadrupole moment (field-independent basis, Debye-Ang):
   XX=             -5.8386   YY=             -8.4797   ZZ=            -11.3408
   XY=             -0.0001   XZ=             -0.0000   YZ=             -0.0000

 Normal termination of Gaussian 16 at Tue Nov 19 10:58:34 2024.
