 Gaussian 16, Revision A.03,
 Gaussian 16:  ES64L-G16RevA.03 25-Dec-2016

 --------------------------------------------
 #p opt UM062X/6-311+G** nosymm int=superfine
 --------------------------------------------

 -------------------
 Title Card Required
 -------------------
 Symbolic Z-matrix:
 Charge =  1 Multiplicity = 2

 SCF Done:  E(UM062X) =  -76.5865008474     A.U. after   10 cycles
 SCF Done:  E(UM062X) =  -76.5868688543     A.U. after    9 cycles
 Optimization completed.
    -- Stationary point found.

                          Input orientation:
 ---------------------------------------------------------------------
 Center     Atomic      Atomic             Coordinates (Angstroms)
 Number     Number       Type             X           Y           Z
 ---------------------------------------------------------------------
      1          6           0       -1.607160    0.000000    0.000000
      2          6           0        1.607160    0.000000    0.000000
      3          1           0       -2.725521   -0.000000   -0.000000
      4          1           0        2.725520   -0.000000   -0.000000
 ---------------------------------------------------------------------

 Alpha  occ. eigenvalues --  -10.95065 -10.95064  -0.98813  -0.98436  -0.65798
 Alpha  occ. eigenvalues --   -0.62192  -0.49523
 Alpha virt. eigenvalues --   -0.40280  -0.34236  -0.33314  -0.12765  -0.11577
 Alpha virt. eigenvalues --   -0.07961  -0.07442  -0.05518  -0.05008  -0.04617
 Alpha virt. eigenvalues --   -0.01461   0.00062   0.05996   0.23431   0.31085

  Beta  occ. eigenvalues --  -10.94664 -10.94663  -0.96411  -0.96180  -0.64484
  Beta  occ. eigenvalues --   -0.60771
  Beta virt. eigenvalues --   -0.32487  -0.31391  -0.30920  -0.29733  -0.13286
  Beta virt. eigenvalues --   -0.11497  -0.07484  -0.06771  -0.06360  -0.04308
  Beta virt. eigenvalues --   -0.03394  -0.02135   0.01762   0.07383   0.22725

 Mulliken charges and spin densities:
               1          2
     1  C    0.257654   0.516410
     2  C    0.257653   0.516411
     3  H    0.242346  -0.016410
     4  H    0.242346  -0.016410
 Sum of Mulliken charges =   1.00000   1.00000

 Dipole moment (field-independent basis, Debye):
    X=             -0.0000    Y=              0.0000    Z=             -0.0000  Tot=              0.0000
 Quadrupole moment (field-independent basis, Debye-Ang):
   XX=             15.0031   YY=            -10.6368   ZZ=            -10.4221
   XY=             -0.0000   XZ=             -0.0000   YZ=             -1.0143

 Normal termination of Gaussian 16 at Tue Dec  3 11:28:54 2024.
