 Gaussian 16, Revision A.03,
 Gaussian 16:  ES64L-G16RevA.03 25-Dec-2016

 ----------------------------------------------------------------------
 #p opt b3lyp/6-311+G** nosymm int=superfine SCF=(MaxCycle=200,NoVarAcc
 ,noincfock)
 ----------------------------------------------------------------------

 -------------------
 Title Card Required
 -------------------
 Symbolic Z-matrix:
 Charge =  0 Multiplicity = 4

 SCF Done:  E(UB3LYP) =  -75.4649357427     A.U. after   11 cycles
 SCF Done:  E(UB3LYP) =  -75.5116920667     A.U. after   11 cycles
 SCF Done:  E(UB3LYP) =  -75.5785814060     A.U. after   10 cycles
 SCF Done:  E(UB3LYP) =  -75.5904711258     A.U. after   10 cycles
 SCF Done:  E(UB3LYP) =  -75.5920052363     A.U. after    8 cycles
 SCF Done:  E(UB3LYP) =  -75.5920737433     A.U. after    8 cycles
 SCF Done:  E(UB3LYP) =  -75.5920753526     A.U. after    6 cycles
 SCF Done:  E(UB3LYP) =  -75.5920767417     A.U. after    7 cycles
 SCF Done:  E(UB3LYP) =  -75.5920785466     A.U. after    7 cycles
 SCF Done:  E(UB3LYP) =  -75.5920791235     A.U. after    6 cycles
 SCF Done:  E(UB3LYP) =  -75.5920791813     A.U. after    6 cycles
 Optimization completed on the basis of negligible forces.
    -- Stationary point found.

                          Input orientation:
 ---------------------------------------------------------------------
 Center     Atomic      Atomic             Coordinates (Angstroms)
 Number     Number       Type             X           Y           Z
 ---------------------------------------------------------------------
      1          8           0       -0.509408    0.999130    0.000000
      2          1           0       -1.471068   -1.912598    0.000000
 ---------------------------------------------------------------------

 Alpha  occ. eigenvalues --  -19.27955  -1.02636  -0.46732  -0.46732  -0.39449
 Alpha  occ. eigenvalues --   -0.31493
 Alpha virt. eigenvalues --    0.08507   0.13952   0.13952   0.16562   0.27862
 Alpha virt. eigenvalues --    0.92198   0.92198   0.97097   1.14320   1.26199
 Alpha virt. eigenvalues --    1.26199   1.33553   2.17172   2.63355   2.63355

  Beta  occ. eigenvalues --  -19.22743  -0.86726  -0.34003
  Beta virt. eigenvalues --   -0.19152  -0.19152  -0.06947   0.10167   0.16375
  Beta virt. eigenvalues --    0.16375   0.17732   0.38824   0.99822   1.00944
  Beta virt. eigenvalues --    1.00944   1.22204   1.45787   1.45787   1.51196

 Mulliken charges and spin densities:
               1          2
     1  O    0.001802   2.003447
     2  H   -0.001802   0.996553
 Sum of Mulliken charges =   0.00000   3.00000

 Dipole moment (field-independent basis, Debye):
    X=              0.0115    Y=              0.0348    Z=             -0.0000  Tot=              0.0367
 Quadrupole moment (field-independent basis, Debye-Ang):
   XX=             -6.3012   YY=             -7.3922   ZZ=             -6.1460
   XY=             -0.4408   XZ=             -0.0000   YZ=             -0.0000

 1\1\GINC-NODE01\FOpt\UB3LYP\6-311+G(d,p)\H1O1(4)\SZHAO\14-May-2025\0\\
 #p opt b3lyp/6-311+G** nosymm int=superfine SCF=(MaxCycle=200,NoVarAcc
 ,noincfock)\\Title Card Required\\0,4\O,-0.5094078439,0.9991298143,0.\
 H,-1.4710676861,-1.9125977143,0.\\Version=ES64L-G16RevA.03\HF=-75.5920
 792\S2=3.75387\S2-1=0.\S2A=3.750004\RMSD=4.088e-09\RMSF=6.096e-07\Dipo
 le=0.0045229,0.0136946,0.\Quadrupole=0.2319074,-0.5792354,0.3473281,-0
 .327745,0.,0.\PG=C*V [C*(H1O1)]\\@

 Normal termination of Gaussian 16 at Wed May 14 15:57:31 2025.
