 Gaussian 16, Revision A.03,
 Gaussian 16:  ES64L-G16RevA.03 25-Dec-2016

 --------------------------------------------
 #p opt UM062X/6-311+G** nosymm int=superfine
 --------------------------------------------

 -------------------
 Title Card Required
 -------------------
 Symbolic Z-matrix:
 Charge = -1 Multiplicity = 2

 SCF Done:  E(UM062X) =  -53.2111857662     A.U. after   11 cycles
 SCF Done:  E(UM062X) =  -53.2140699998     A.U. after   10 cycles
 SCF Done:  E(UM062X) =  -53.2146947824     A.U. after   10 cycles
 SCF Done:  E(UM062X) =  -53.2146958824     A.U. after    8 cycles
 Optimization completed.
    -- Stationary point found.

                          Input orientation:
 ---------------------------------------------------------------------
 Center     Atomic      Atomic             Coordinates (Angstroms)
 Number     Number       Type             X           Y           Z
 ---------------------------------------------------------------------
      1          5           0       -1.740672    0.000000    0.000000
      2          5           0        1.740672    0.000000    0.000000
      3          1           0        1.828926   -1.196169   -0.000013
      4          1           0       -1.828760   -0.598085    1.035927
      5          1           0        1.828906    0.598103   -1.035905
      6          1           0        1.828710    0.598071    1.035938
      7          1           0       -1.828933    1.196169    0.000000
      8          1           0       -1.828848   -0.598090   -1.035917
 ---------------------------------------------------------------------

 Alpha  occ. eigenvalues --   -6.83567  -6.83565  -0.39403  -0.38268  -0.21067
 Alpha  occ. eigenvalues --   -0.21067  -0.20460  -0.20460   0.00497
 Alpha virt. eigenvalues --    0.13510   0.17122   0.17716   0.17716   0.18672
 Alpha virt. eigenvalues --    0.18672   0.20557   0.22735   0.23225   0.32939
 Alpha virt. eigenvalues --    0.32939   0.35515   0.35516   0.38321   0.39460

  Beta  occ. eigenvalues --   -6.83526  -6.83525  -0.37453  -0.36732  -0.20833
  Beta  occ. eigenvalues --   -0.20833  -0.20297  -0.20297
  Beta virt. eigenvalues --    0.12997   0.14157   0.15379   0.16065   0.16065
  Beta virt. eigenvalues --    0.18240   0.18240   0.22711   0.23292   0.26448
  Beta virt. eigenvalues --    0.32100   0.32100   0.35106   0.35107   0.38118

 Mulliken charges and spin densities:
               1          2
     1  B   -0.317690   0.583058
     2  B   -0.317690   0.583058
     3  H   -0.060768  -0.027678
     4  H   -0.060770  -0.027690
     5  H   -0.060776  -0.027690
     6  H   -0.060767  -0.027690
     7  H   -0.060768  -0.027678
     8  H   -0.060773  -0.027690
 Sum of Mulliken charges =  -1.00000   1.00000

 Dipole moment (field-independent basis, Debye):
    X=              0.0000    Y=             -0.0000    Z=              0.0001  Tot=              0.0001
 Quadrupole moment (field-independent basis, Debye-Ang):
   XX=            -39.2252   YY=            -24.2095   ZZ=            -24.2095
   XY=              0.0000   XZ=              0.0000   YZ=              0.0000

 Normal termination of Gaussian 16 at Mon Apr 21 16:54:28 2025.
