 Gaussian 16, Revision A.03,
 Gaussian 16:  ES64L-G16RevA.03 25-Dec-2016

 --------------------------------------------
 #p opt UM062X/6-311+G** nosymm int=superfine
 --------------------------------------------

 -------------------
 Title Card Required
 -------------------
 Symbolic Z-matrix:
 Charge =  0 Multiplicity = 1

 SCF Done:  E(UM062X) =  -51.9250136624     A.U. after    8 cycles
 SCF Done:  E(UM062X) =  -51.9266706180     A.U. after    8 cycles
 SCF Done:  E(UM062X) =  -51.9272445212     A.U. after    9 cycles
 SCF Done:  E(UM062X) =  -51.9272377123     A.U. after    8 cycles
 SCF Done:  E(UM062X) =  -51.9272453215     A.U. after    8 cycles
 SCF Done:  E(UM062X) =  -51.9272531514     A.U. after    7 cycles
 SCF Done:  E(UM062X) =  -51.9051371806     A.U. after   11 cycles
 SCF Done:  E(UM062X) =  -51.9263163066     A.U. after   11 cycles
 SCF Done:  E(UM062X) =  -51.9272567937     A.U. after    7 cycles
 SCF Done:  E(UM062X) =  -51.9210783725     A.U. after   11 cycles
 SCF Done:  E(UM062X) =  -51.9261123847     A.U. after   12 cycles
 SCF Done:  E(UM062X) =  -51.9272597188     A.U. after    7 cycles
 SCF Done:  E(UM062X) =  -51.9275483746     A.U. after   10 cycles
 SCF Done:  E(UM062X) =  -51.9284109788     A.U. after   11 cycles
 SCF Done:  E(UM062X) =  -51.9291752601     A.U. after   11 cycles
 SCF Done:  E(UM062X) =  -51.9292015404     A.U. after   10 cycles
 SCF Done:  E(UM062X) =  -51.9293040298     A.U. after   10 cycles
 Optimization completed.
    -- Stationary point found.

                          Input orientation:
 ---------------------------------------------------------------------
 Center     Atomic      Atomic             Coordinates (Angstroms)
 Number     Number       Type             X           Y           Z
 ---------------------------------------------------------------------
      1          5           0       -1.220607    0.000000    0.000000
      2          5           0        1.220607    0.000000    0.000000
      3          1           0       -1.775873   -0.740421   -0.739826
      4          1           0        1.774593    0.740373   -0.740638
      5          1           0       -1.775625    0.739852    0.740584
      6          1           0        1.774124   -0.740485    0.740888
 ---------------------------------------------------------------------

 Alpha  occ. eigenvalues --   -7.08736  -7.08722  -0.57933  -0.55185  -0.42438
 Alpha  occ. eigenvalues --   -0.42410  -0.28099
 Alpha virt. eigenvalues --   -0.03671  -0.03664   0.02311   0.02326   0.04931
 Alpha virt. eigenvalues --    0.04934   0.07064   0.07546   0.07549   0.08255
 Alpha virt. eigenvalues --    0.11282   0.15918   0.18948   0.21088   0.21102

  Beta  occ. eigenvalues --   -7.08736  -7.08722  -0.57933  -0.55185  -0.42438
  Beta  occ. eigenvalues --   -0.42410  -0.28099
  Beta virt. eigenvalues --   -0.03671  -0.03664   0.02311   0.02326   0.04931
  Beta virt. eigenvalues --    0.04934   0.07064   0.07546   0.07549   0.08255
  Beta virt. eigenvalues --    0.11282   0.15918   0.18948   0.21088   0.21102

 Mulliken charges and spin densities:
               1          2
     1  B   -0.032095  -0.000000
     2  B   -0.031616   0.000000
     3  H    0.015876   0.000000
     4  H    0.015983  -0.000000
     5  H    0.015873  -0.000000
     6  H    0.015979  -0.000000
 Sum of Mulliken charges =  -0.00000  -0.00000

 Dipole moment (field-independent basis, Debye):
    X=              0.0039    Y=              0.0001    Z=             -0.0001  Tot=              0.0039
 Quadrupole moment (field-independent basis, Debye-Ang):
   XX=            -16.0299   YY=            -15.1496   ZZ=            -15.1505
   XY=             -0.0008   XZ=              0.0008   YZ=             -0.0022

 Normal termination of Gaussian 16 at Mon Apr 21 17:10:07 2025.
