 Gaussian 16, Revision A.03,
 Gaussian 16:  ES64L-G16RevA.03 25-Dec-2016

 --------------------------------------------
 #p opt UM062X/6-311+G** nosymm int=superfine
 --------------------------------------------

 -------------------
 Title Card Required
 -------------------
 Symbolic Z-matrix:
 Charge =  0 Multiplicity = 1

 SCF Done:  E(UM062X) =  -115.610504518     A.U. after   11 cycles
 SCF Done:  E(UM062X) =  -115.621241737     A.U. after   10 cycles
 SCF Done:  E(UM062X) =  -115.622664619     A.U. after   10 cycles
 SCF Done:  E(UM062X) =  -115.622672478     A.U. after    8 cycles
 SCF Done:  E(UM062X) =  -115.622674254     A.U. after    8 cycles
 Optimization completed.
    -- Stationary point found.

                          Input orientation:
 ---------------------------------------------------------------------
 Center     Atomic      Atomic             Coordinates (Angstroms)
 Number     Number       Type             X           Y           Z
 ---------------------------------------------------------------------
      1          6           0       -1.007203    0.000000    0.000000
      2          8           0        1.007203    0.000000    0.000000
      3          1           0        1.137285   -0.955263    0.000249
      4          1           0       -1.229517   -0.515577    0.924561
      5          1           0       -1.144887    1.071711   -0.000764
      6          1           0       -1.229573   -0.516889   -0.923817
 ---------------------------------------------------------------------

 Alpha  occ. eigenvalues --  -19.61451 -10.62352  -1.04974  -0.80501  -0.52957
 Alpha  occ. eigenvalues --   -0.52436  -0.47916  -0.37813  -0.35271
 Alpha virt. eigenvalues --   -0.03204   0.01185   0.04808   0.05264   0.07602
 Alpha virt. eigenvalues --    0.15176   0.17421   0.17435   0.20377   0.23015
 Alpha virt. eigenvalues --    0.23448   0.24155   0.33108   0.41275   0.42471

  Beta  occ. eigenvalues --  -19.61451 -10.62352  -1.04974  -0.80501  -0.52957
  Beta  occ. eigenvalues --   -0.52436  -0.47916  -0.37813  -0.35271
  Beta virt. eigenvalues --   -0.03204   0.01185   0.04808   0.05264   0.07602
  Beta virt. eigenvalues --    0.15176   0.17421   0.17435   0.20377   0.23015
  Beta virt. eigenvalues --    0.23448   0.24155   0.33108   0.41275   0.42471

 Mulliken charges and spin densities:
               1          2
     1  C   -0.305055   0.000000
     2  O   -0.490108   0.000000
     3  H    0.230629   0.000000
     4  H    0.182621  -0.000000
     5  H    0.199312  -0.000000
     6  H    0.182602   0.000000
 Sum of Mulliken charges =  -0.00000   0.00000

 Dipole moment (field-independent basis, Debye):
    X=             -2.9964    Y=             -1.5327    Z=              0.0004  Tot=              3.3656
 Quadrupole moment (field-independent basis, Debye-Ang):
   XX=            -13.4686   YY=            -11.4393   ZZ=            -13.8131
   XY=             -2.1217   XZ=              0.0006   YZ=             -0.0006

 Normal termination of Gaussian 16 at Mon Apr 21 18:40:41 2025.
