 Gaussian 16, Revision A.03,
 Gaussian 16:  ES64L-G16RevA.03 25-Dec-2016

 --------------------------------------------
 #p opt UM062X/6-311+G** nosymm int=superfine
 --------------------------------------------

 -------------------
 Title Card Required
 -------------------
 Symbolic Z-matrix:
 Charge =  0 Multiplicity = 1

 SCF Done:  E(UM062X) =  -110.142822878     A.U. after   13 cycles
 SCF Done:  E(UM062X) =  -110.143264263     A.U. after   19 cycles
 SCF Done:  E(UM062X) =  -110.144480543     A.U. after   41 cycles
 SCF Done:  E(UM062X) =  -110.427101856     A.U. after   56 cycles
 SCF Done:  E(UM062X) =  -110.427321082     A.U. after   12 cycles
 SCF Done:  E(UM062X) =  -110.427511571     A.U. after   12 cycles
 SCF Done:  E(UM062X) =  -110.427518737     A.U. after   11 cycles
 SCF Done:  E(UM062X) =  -110.427530936     A.U. after   13 cycles
 SCF Done:  E(UM062X) =  -110.427532738     A.U. after   13 cycles
 SCF Done:  E(UM062X) =  -110.427532882     A.U. after    8 cycles
 Optimization completed on the basis of negligible forces.
    -- Stationary point found.

                          Input orientation:
 ---------------------------------------------------------------------
 Center     Atomic      Atomic             Coordinates (Angstroms)
 Number     Number       Type             X           Y           Z
 ---------------------------------------------------------------------
      1          7           0       -2.115428    0.000000    0.000000
      2          7           0        2.115428    0.000000    0.000000
      3          1           0       -1.914772   -1.018427   -0.000000
      4          1           0        1.914772    1.018427   -0.000000
 ---------------------------------------------------------------------

 Alpha  occ. eigenvalues --  -14.81889 -14.79394  -0.95288  -0.82499  -0.48606
 Alpha  occ. eigenvalues --   -0.42620  -0.41500  -0.41498
 Alpha virt. eigenvalues --   -0.06728  -0.06658   0.03560   0.07284   0.11119
 Alpha virt. eigenvalues --    0.11789   0.13425   0.14443   0.15764   0.17764
 Alpha virt. eigenvalues --    0.19311   0.23133   0.55069   0.56465   0.75616

  Beta  occ. eigenvalues --  -14.81889 -14.79394  -0.95288  -0.82499  -0.48606
  Beta  occ. eigenvalues --   -0.42620  -0.41500  -0.41498
  Beta virt. eigenvalues --   -0.06728  -0.06658   0.03560   0.07284   0.11119
  Beta virt. eigenvalues --    0.11789   0.13425   0.14443   0.15764   0.17764
  Beta virt. eigenvalues --    0.19311   0.23133   0.55069   0.56465   0.75616

 Mulliken charges and spin densities:
               1          2
     1  N   -0.199578   2.056817
     2  N   -0.199578  -2.056817
     3  H    0.199578  -0.061304
     4  H    0.199578   0.061304
 Sum of Mulliken charges =  -0.00000   0.00000

 Dipole moment (field-independent basis, Debye):
    X=              0.0000    Y=              0.0000    Z=             -0.0000  Tot=              0.0000
 Quadrupole moment (field-independent basis, Debye-Ang):
   XX=            -15.4301   YY=            -11.2379   ZZ=            -12.8279
   XY=              6.9074   XZ=              0.0000   YZ=              0.0000

 Normal termination of Gaussian 16 at Thu May 15 15:51:13 2025.
