 Gaussian 16, Revision A.03,
 Gaussian 16:  ES64L-G16RevA.03 25-Dec-2016

 --------------------------------------------
 #p opt UM062X/6-311+G** nosymm int=superfine
 --------------------------------------------

 -------------------
 Title Card Required
 -------------------
 Symbolic Z-matrix:
 Charge =  0 Multiplicity = 1

 SCF Done:  E(UM062X) =  -382.264601676     A.U. after   13 cycles
 SCF Done:  E(UM062X) =  -382.274378395     A.U. after   11 cycles
 SCF Done:  E(UM062X) =  -382.279479100     A.U. after   11 cycles
 SCF Done:  E(UM062X) =  -382.279539771     A.U. after   10 cycles
 SCF Done:  E(UM062X) =  -382.279572347     A.U. after   10 cycles
 SCF Done:  E(UM062X) =  -382.279586356     A.U. after   11 cycles
 SCF Done:  E(UM062X) =  -382.279590250     A.U. after    9 cycles
 SCF Done:  E(UM062X) =  -382.279591692     A.U. after   11 cycles
 SCF Done:  E(UM062X) =  -382.279592096     A.U. after    7 cycles
 SCF Done:  E(UM062X) =  -382.279592160     A.U. after    8 cycles
 Optimization completed.
    -- Stationary point found.

                          Input orientation:
 ---------------------------------------------------------------------
 Center     Atomic      Atomic             Coordinates (Angstroms)
 Number     Number       Type             X           Y           Z
 ---------------------------------------------------------------------
      1          6           0       -1.756264    0.000000    0.000000
      2         15           0        1.756264    0.000000    0.000000
      3          1           0        1.696495   -1.417786    0.030788
      4          1           0       -1.837670    1.051010    0.236645
      5          1           0        1.696569    0.081892    1.415736
      6          1           0       -1.837575   -0.316961   -1.029646
      7          1           0       -1.860046   -0.730680    0.789346
 ---------------------------------------------------------------------

 Alpha  occ. eigenvalues --  -78.03294 -10.59138  -6.85658  -4.97186  -4.97110
 Alpha  occ. eigenvalues --   -4.96926  -0.78416  -0.69429  -0.50480  -0.50420
 Alpha  occ. eigenvalues --   -0.43606  -0.34708  -0.24958
 Alpha virt. eigenvalues --   -0.11000   0.02096   0.03993   0.03997   0.04587
 Alpha virt. eigenvalues --    0.06342   0.06933   0.07137   0.07298   0.11736
 Alpha virt. eigenvalues --    0.17418   0.18500   0.18612   0.23577   0.30144

  Beta  occ. eigenvalues --  -78.03294 -10.59138  -6.85658  -4.97186  -4.97110
  Beta  occ. eigenvalues --   -4.96926  -0.78416  -0.69429  -0.50480  -0.50420
  Beta  occ. eigenvalues --   -0.43606  -0.34708  -0.24958
  Beta virt. eigenvalues --   -0.11000   0.02096   0.03993   0.03997   0.04587
  Beta virt. eigenvalues --    0.06342   0.06933   0.07137   0.07298   0.11736
  Beta virt. eigenvalues --    0.17418   0.18500   0.18612   0.23577   0.30144

 Mulliken charges and spin densities:
               1          2
     1  C   -0.524826  -0.000003
     2  P   -0.042124   0.000003
     3  H    0.002728  -0.000000
     4  H    0.187864   0.000000
     5  H    0.002733  -0.000000
     6  H    0.187873   0.000000
     7  H    0.185752   0.000000
 Sum of Mulliken charges =  -0.00000   0.00000

 Dipole moment (field-independent basis, Debye):
    X=             -1.2780    Y=             -0.5581    Z=              0.6043  Tot=              1.5198
 Quadrupole moment (field-independent basis, Debye-Ang):
   XX=            -22.2688   YY=            -22.3385   ZZ=            -22.4504
   XY=             -1.1843   XZ=              1.2825   YZ=              0.7025

 Normal termination of Gaussian 16 at Mon Apr 21 19:07:41 2025.
