 Gaussian 16, Revision A.03,
 Gaussian 16:  ES64L-G16RevA.03 25-Dec-2016

 --------------------------------------------
 #p opt UM062X/6-311+G** nosymm int=superfine
 --------------------------------------------

 -------------------
 Title Card Required
 -------------------
 Symbolic Z-matrix:
 Charge =  1 Multiplicity = 2

 SCF Done:  E(UM062X) =  -1615.45877793     A.U. after   30 cycles
 SCF Done:  E(UM062X) =  -1615.52107739     A.U. after   23 cycles
 SCF Done:  E(UM062X) =  -1615.55504956     A.U. after   25 cycles
 SCF Done:  E(UM062X) =  -1615.55602806     A.U. after   25 cycles
 SCF Done:  E(UM062X) =  -1615.55635352     A.U. after   28 cycles
 SCF Done:  E(UM062X) =  -1615.55622147     A.U. after   28 cycles
 SCF Done:  E(UM062X) =  -1615.52656440     A.U. after   29 cycles
 SCF Done:  E(UM062X) =  -1615.55195953     A.U. after   25 cycles
 SCF Done:  E(UM062X) =  -1615.55650836     A.U. after   26 cycles
 SCF Done:  E(UM062X) =  -1615.55665738     A.U. after   25 cycles
 SCF Done:  E(UM062X) =  -1615.55699066     A.U. after   22 cycles
 SCF Done:  E(UM062X) =  -1615.55698411     A.U. after   21 cycles
 SCF Done:  E(UM062X) =  -1615.55700826     A.U. after   22 cycles
 SCF Done:  E(UM062X) =  -1615.55700404     A.U. after   21 cycles
 SCF Done:  E(UM062X) =  -1615.55700821     A.U. after   22 cycles
 SCF Done:  E(UM062X) =  -1615.55701324     A.U. after   20 cycles
 SCF Done:  E(UM062X) =  -1615.55701312     A.U. after   19 cycles
 SCF Done:  E(UM062X) =  -1615.55701368     A.U. after   19 cycles
 SCF Done:  E(UM062X) =  -1615.55701372     A.U. after   19 cycles
 SCF Done:  E(UM062X) =  -1615.55701374     A.U. after   14 cycles
 Optimization completed.
    -- Stationary point found.

                          Input orientation:
 ---------------------------------------------------------------------
 Center     Atomic      Atomic             Coordinates (Angstroms)
 Number     Number       Type             X           Y           Z
 ---------------------------------------------------------------------
      1          6           0       -1.797585    0.000000    0.000000
      2          6           0        1.797585    0.000000    0.000000
      3          6           0       -0.000008   -2.008690   -0.005582
      4          6           0        0.000021   -3.416848   -0.009409
      5          6           0       -1.124945   -4.260904    0.207590
      6          6           0       -1.345146   -1.439814    0.169401
      7          6           0        0.661257   -5.652532   -0.148144
      8          1           0        1.294429   -6.518095   -0.280914
      9          6           0       -1.801574    0.775768    1.211309
     10          6           0       -0.661158   -5.653274    0.117046
     11          1           0       -1.294312   -6.519568    0.245054
     12          6           0        1.125009   -4.259675   -0.231043
     13          6           0        1.345125   -1.438844   -0.177403
     14          6           0        2.160195    2.166786   -1.335034
     15          6           0       -1.992490    0.383602   -1.372522
     16          6           0       -2.135845    2.755757    2.620382
     17          1           0       -2.426381    3.796648    2.699848
     18          6           0       -2.340282   -3.692483    0.453095
     19          1           0       -3.231886   -4.278399    0.642896
     20          6           0       -2.254652    1.707678   -1.859642
     21          6           0        2.414839   -2.278118   -0.426697
     22          1           0        3.389274   -1.817218   -0.553808
     23          6           0        1.992464    0.376014    1.374615
     24          6           0        2.254515    1.697413    1.869032
     25          6           0        2.340325   -3.689887   -0.473463
     26          1           0        3.231944   -4.274728   -0.666479
     27          6           0       -2.159857    2.159446    1.346968
     28          6           0       -1.397013    0.111895    2.409219
     29          1           0       -1.109174   -0.927213    2.363512
     30          6           0        1.872637   -0.652649    2.361901
     31          1           0        1.724277   -1.674595    2.047588
     32          6           0       -1.749858    2.070992    3.754068
     33          1           0       -1.745292    2.566451    4.717146
     34          6           0       -2.414831   -2.280482    0.414076
     35          1           0       -3.389277   -1.820309    0.543713
     36          6           0       -2.303243    1.932852   -3.248332
     37          1           0       -2.488353    2.943524   -3.592579
     38          6           0        1.801664    0.782442   -1.206992
     39          6           0       -2.520887    3.051074    0.277046
     40          1           0       -2.789468    4.048500    0.610367
     41          6           0       -2.150023    0.920756   -4.170853
     42          1           0       -2.207347    1.134246   -5.231325
     43          6           0       -2.528834    2.871179   -1.058178
     44          1           0       -2.795405    3.747842   -1.639984
     45          6           0        2.302899    1.914957    3.258953
     46          1           0        2.487877    2.923735    3.608777
     47          6           0       -1.366973    0.732859    3.636660
     48          1           0       -1.051328    0.173888    4.509107
     49          6           0       -1.872628   -0.639587   -2.365461
     50          1           0       -1.724136   -1.663233   -2.056792
     51          6           0        2.149670    0.897789    4.175861
     52          1           0        2.206837    1.105450    5.237500
     53          6           0        2.136356    2.770065   -2.605170
     54          1           0        2.427108    3.811316   -2.678925
     55          6           0        1.956449   -0.407145    3.711586
     56          1           0        1.870283   -1.230862    4.409985
     57          6           0        1.750212    2.091608   -3.742580
     58          1           0        1.745764    2.592336   -4.702929
     59          6           0        2.521186    3.052480   -0.260209
     60          1           0        2.789904    4.051698   -0.588005
     61          6           0       -1.956584   -0.386674   -3.713779
     62          1           0       -1.870378   -1.206538   -4.416692
     63          6           0        2.528847    2.865275    1.074023
     64          1           0        2.795336    3.738732    1.660667
     65          6           0        1.396906    0.125242   -2.408514
     66          1           0        1.108805   -0.914025   -2.368479
     67          6           0        1.366973    0.752943   -3.632516
     68          1           0        1.051151    0.198858   -4.508009
 ---------------------------------------------------------------------

 Alpha  occ. eigenvalues --  -10.70639 -10.70635 -10.68614 -10.68612 -10.68478
 Alpha  occ. eigenvalues --  -10.68476 -10.68188 -10.68185 -10.68048 -10.68045
 Alpha  occ. eigenvalues --  -10.68020 -10.67628 -10.67623 -10.66470 -10.66467
 Alpha  occ. eigenvalues --  -10.66367 -10.66365 -10.65889 -10.65887 -10.65762
 Alpha  occ. eigenvalues --  -10.65760 -10.65735 -10.65733 -10.65542 -10.65540
 Alpha  occ. eigenvalues --  -10.65523 -10.65521 -10.65365 -10.65363 -10.65338
 Alpha  occ. eigenvalues --  -10.65336 -10.65238 -10.65236 -10.65212 -10.65211
 Alpha  occ. eigenvalues --  -10.65079 -10.65078 -10.64764 -10.64762 -10.63974
 Alpha  occ. eigenvalues --  -10.63641 -10.63539  -1.11489  -1.10383  -1.09790
 Alpha  occ. eigenvalues --   -1.08049  -1.07805  -1.04974  -1.04921  -1.02270
 Alpha  occ. eigenvalues --   -1.02096  -1.00983  -0.99991  -0.97794  -0.97570
 Alpha  occ. eigenvalues --   -0.96496  -0.96258  -0.94742  -0.93486  -0.93364
 Alpha  occ. eigenvalues --   -0.92790  -0.91578  -0.87181  -0.86954  -0.84823
 Alpha  occ. eigenvalues --   -0.84693  -0.82963  -0.81403  -0.80599  -0.79669
 Alpha  occ. eigenvalues --   -0.79530  -0.79428  -0.77088  -0.76157  -0.76017
 Alpha  occ. eigenvalues --   -0.75807  -0.75180  -0.73119  -0.69911  -0.69462
 Alpha  occ. eigenvalues --   -0.68535  -0.68500  -0.67709  -0.67532  -0.66746
 Alpha  occ. eigenvalues --   -0.66736  -0.65686  -0.65257  -0.65125  -0.64489
 Alpha  occ. eigenvalues --   -0.63177  -0.62705  -0.62357  -0.61949  -0.60780
 Alpha  occ. eigenvalues --   -0.60691  -0.60405  -0.60036  -0.59875  -0.59535
 Alpha  occ. eigenvalues --   -0.59459  -0.58592  -0.58359  -0.58008  -0.57533
 Alpha  occ. eigenvalues --   -0.57384  -0.56584  -0.56000  -0.55552  -0.55540
 Alpha  occ. eigenvalues --   -0.54861  -0.54514  -0.52902  -0.52735  -0.52535
 Alpha  occ. eigenvalues --   -0.52294  -0.52272  -0.51859  -0.50892  -0.50880
 Alpha  occ. eigenvalues --   -0.50708  -0.49950  -0.49640  -0.49474  -0.48995
 Alpha  occ. eigenvalues --   -0.48455  -0.48081  -0.48053  -0.46102  -0.44312
 Alpha  occ. eigenvalues --   -0.43220  -0.42999  -0.40919  -0.40326  -0.38895
 Alpha  occ. eigenvalues --   -0.38033  -0.37782  -0.36949  -0.29289
 Alpha virt. eigenvalues --   -0.21949  -0.15392  -0.15356  -0.14669  -0.10468
 Alpha virt. eigenvalues --   -0.09400  -0.08739  -0.08498  -0.08333  -0.07657
 Alpha virt. eigenvalues --   -0.07404  -0.07349  -0.06542  -0.06276  -0.06242

  Beta  occ. eigenvalues --  -10.70477 -10.70474 -10.68659 -10.68657 -10.68523
  Beta  occ. eigenvalues --  -10.68521 -10.68145 -10.68142 -10.68005 -10.68002
  Beta  occ. eigenvalues --  -10.67993 -10.67647 -10.67642 -10.66462 -10.66459
  Beta  occ. eigenvalues --  -10.66360 -10.66357 -10.65854 -10.65851 -10.65731
  Beta  occ. eigenvalues --  -10.65729 -10.65694 -10.65691 -10.65541 -10.65539
  Beta  occ. eigenvalues --  -10.65503 -10.65501 -10.65385 -10.65383 -10.65355
  Beta  occ. eigenvalues --  -10.65353 -10.65255 -10.65253 -10.65207 -10.65207
  Beta  occ. eigenvalues --  -10.65067 -10.65066 -10.64763 -10.64762 -10.63971
  Beta  occ. eigenvalues --  -10.63641 -10.63539  -1.11354  -1.10210  -1.09713
  Beta  occ. eigenvalues --   -1.07946  -1.07711  -1.04824  -1.04755  -1.02154
  Beta  occ. eigenvalues --   -1.01989  -1.00806  -0.99829  -0.97690  -0.97469
  Beta  occ. eigenvalues --   -0.96390  -0.96169  -0.94702  -0.93417  -0.93263
  Beta  occ. eigenvalues --   -0.92712  -0.91496  -0.86875  -0.86603  -0.84758
  Beta  occ. eigenvalues --   -0.84630  -0.82888  -0.81312  -0.80505  -0.79592
  Beta  occ. eigenvalues --   -0.79455  -0.79352  -0.76983  -0.76030  -0.75846
  Beta  occ. eigenvalues --   -0.75642  -0.75129  -0.73010  -0.69792  -0.69315
  Beta  occ. eigenvalues --   -0.68441  -0.68390  -0.67662  -0.67485  -0.66627
  Beta  occ. eigenvalues --   -0.66621  -0.65580  -0.65107  -0.64979  -0.64396
  Beta  occ. eigenvalues --   -0.63013  -0.62650  -0.62264  -0.61880  -0.60653
  Beta  occ. eigenvalues --   -0.60532  -0.60289  -0.59958  -0.59817  -0.59362
  Beta  occ. eigenvalues --   -0.59220  -0.58516  -0.58156  -0.57941  -0.57369
  Beta  occ. eigenvalues --   -0.57252  -0.56147  -0.55806  -0.55492  -0.55490
  Beta  occ. eigenvalues --   -0.54822  -0.54199  -0.52803  -0.52637  -0.52485
  Beta  occ. eigenvalues --   -0.52181  -0.52161  -0.51841  -0.50833  -0.50766
  Beta  occ. eigenvalues --   -0.50623  -0.49640  -0.49461  -0.49344  -0.48507
  Beta  occ. eigenvalues --   -0.48113  -0.48007  -0.47230  -0.45344  -0.43913
  Beta  occ. eigenvalues --   -0.42597  -0.42509  -0.40660  -0.40254  -0.38355
  Beta  occ. eigenvalues --   -0.37884  -0.37335  -0.36941
  Beta virt. eigenvalues --   -0.19979  -0.18498  -0.15430  -0.15355  -0.14742
  Beta virt. eigenvalues --   -0.10198  -0.09034  -0.08369  -0.08332  -0.08075
  Beta virt. eigenvalues --   -0.07485  -0.07352  -0.07341  -0.06522  -0.06314

 Mulliken charges and spin densities:
               1          2
     1  C    0.158214   0.296281
     2  C    0.158119   0.296006
     3  C    0.277252   0.028968
     4  C    0.104450  -0.013689
     5  C    0.050007   0.006582
     6  C    0.167062  -0.032141
     7  C   -0.295942   0.000680
     8  H    0.175785   0.000003
     9  C   -0.085942  -0.080905
    10  C   -0.295946   0.000681
    11  H    0.175786   0.000003
    12  C    0.050070   0.006581
    13  C    0.167374  -0.032126
    14  C    0.448200   0.076998
    15  C    0.288618  -0.035291
    16  C   -0.286133  -0.036568
    17  H    0.169116   0.000969
    18  C   -0.426390   0.003732
    19  H    0.174430   0.000045
    20  C    0.382392   0.077387
    21  C   -0.267953   0.019433
    22  H    0.171176  -0.000167
    23  C    0.288537  -0.035227
    24  C    0.382449   0.077334
    25  C   -0.426451   0.003726
    26  H    0.174429   0.000045
    27  C    0.448287   0.077038
    28  C    0.054720   0.110955
    29  H    0.201380  -0.005728
    30  C   -0.280513   0.027715
    31  H    0.228373  -0.004244
    32  C   -0.384261   0.067077
    33  H    0.178501  -0.003556
    34  C   -0.267880   0.019453
    35  H    0.171182  -0.000168
    36  C   -0.101251  -0.053899
    37  H    0.165884   0.001090
    38  C   -0.086073  -0.080903
    39  C   -0.446629   0.025201
    40  H    0.174201  -0.001325
    41  C   -0.206217   0.077614
    42  H    0.181727  -0.003604
    43  C   -0.333135   0.027028
    44  H    0.174157  -0.001140
    45  C   -0.101111  -0.053882
    46  H    0.165883   0.001090
    47  C    0.066699  -0.036427
    48  H    0.162071   0.001227
    49  C   -0.280623   0.027814
    50  H    0.228379  -0.004246
    51  C   -0.206042   0.077561
    52  H    0.181736  -0.003601
    53  C   -0.286002  -0.036518
    54  H    0.169130   0.000968
    55  C   -0.526008  -0.033632
    56  H    0.176305   0.001093
    57  C   -0.384427   0.067005
    58  H    0.178514  -0.003552
    59  C   -0.446576   0.025178
    60  H    0.174212  -0.001325
    61  C   -0.525889  -0.033680
    62  H    0.176294   0.001094
    63  C   -0.333148   0.027017
    64  H    0.174165  -0.001139
    65  C    0.055208   0.110905
    66  H    0.201387  -0.005721
    67  C    0.066598  -0.036403
    68  H    0.162083   0.001227
 Sum of Mulliken charges =   1.00000   1.00000

 Dipole moment (field-independent basis, Debye):
    X=              0.0028    Y=              2.8872    Z=              0.0082  Tot=              2.8872
 Quadrupole moment (field-independent basis, Debye-Ang):
   XX=           -214.8019   YY=           -175.4835   ZZ=           -177.5446
   XY=             -0.0078   XZ=              4.9614   YZ=              0.0043

 Normal termination of Gaussian 16 at Sat Nov 16 11:25:46 2024.
