 Gaussian 16, Revision A.03,
 Gaussian 16:  ES64L-G16RevA.03 25-Dec-2016

 --------------------------------------------
 #p opt UM062X/6-311+G** nosymm int=superfine
 --------------------------------------------

 -------------------
 Title Card Required
 -------------------
 Symbolic Z-matrix:
 Charge =  0 Multiplicity = 2

 SCF Done:  E(UM062X) =  -342.482330927     A.U. after   10 cycles
 SCF Done:  E(UM062X) =  -342.482455698     A.U. after    8 cycles
 SCF Done:  E(UM062X) =  -342.482456333     A.U. after    7 cycles
 Optimization completed.
    -- Stationary point found.

                          Input orientation:
 ---------------------------------------------------------------------
 Center     Atomic      Atomic             Coordinates (Angstroms)
 Number     Number       Type             X           Y           Z
 ---------------------------------------------------------------------
      1         15           0        1.114591    0.009918    0.010032
      2          1           0        1.236328   -1.402897   -0.015594
      3          1           0        1.357615    0.101652   -1.384240
 ---------------------------------------------------------------------

 Alpha  occ. eigenvalues --  -78.03373  -6.85700  -4.98109  -4.97178  -4.96992
 Alpha  occ. eigenvalues --   -0.71845  -0.44798  -0.36480  -0.29454
 Alpha virt. eigenvalues --    0.02833   0.04253   0.04902   0.05289   0.06083
 Alpha virt. eigenvalues --    0.12225   0.30221   0.30919   0.32699   0.38131
 Alpha virt. eigenvalues --    0.42449   0.55167   0.63148   0.65271   0.66117

  Beta  occ. eigenvalues --  -78.02639  -6.85487  -4.96909  -4.96755  -4.96141
  Beta  occ. eigenvalues --   -0.68073  -0.44204  -0.34504
  Beta virt. eigenvalues --   -0.09198   0.00691   0.03735   0.04679   0.06483
  Beta virt. eigenvalues --    0.06542   0.12531   0.29313   0.30241   0.30422
  Beta virt. eigenvalues --    0.37919   0.44542   0.56437   0.66084   0.70177

 Mulliken charges and spin densities:
               1          2
     1  P    0.041629   1.079422
     2  H   -0.020813  -0.039712
     3  H   -0.020816  -0.039710
 Sum of Mulliken charges =  -0.00000   1.00000

 Dipole moment (field-independent basis, Debye):
    X=              0.1621    Y=             -0.5870    Z=             -0.6309  Tot=              0.8769
 Quadrupole moment (field-independent basis, Debye-Ang):
   XX=            -14.8228   YY=            -14.8161   ZZ=            -14.9418
   XY=             -0.5566   XZ=             -0.6871   YZ=             -0.7168

 1\1\GINC-NODE02\FOpt\UM062X\6-311+G(d,p)\H2P1(2)\SZHAO\16-Apr-2025\0\\
 #p opt UM062X/6-311+G** nosymm int=superfine\\Title Card Required\\0,2
 \P,1.1145909724,0.0099180463,0.0100317992\H,1.2363282688,-1.4028972299
 ,-0.0155943553\H,1.3576151588,0.1016523336,-1.3842395438\\Version=ES64
 L-G16RevA.03\HF=-342.4824563\S2=0.754233\S2-1=0.\S2A=0.750011\RMSD=3.7
 08e-09\RMSF=2.148e-05\Dipole=0.0637898,-0.2309411,-0.248215\Quadrupole
 =0.027849,0.0327712,-0.0606202,-0.4137927,-0.5108272,-0.5329549\PG=CS
 [SG(H2P1)]\\@

 Normal termination of Gaussian 16 at Wed Apr 16 09:00:14 2025.
