 Gaussian 16, Revision A.03,
 Gaussian 16:  ES64L-G16RevA.03 25-Dec-2016

 --------------------------------------------
 #p opt UM062X/6-311+G** nosymm int=superfine
 --------------------------------------------

 -------------------
 Title Card Required
 -------------------
 Symbolic Z-matrix:
 Charge = -1 Multiplicity = 2

 SCF Done:  E(UM062X) =  -50.5510966363     A.U. after   17 cycles
 SCF Done:  E(UM062X) =  -50.5510974610     A.U. after    8 cycles
 Optimization completed.
    -- Stationary point found.

                          Input orientation:
 ---------------------------------------------------------------------
 Center     Atomic      Atomic             Coordinates (Angstroms)
 Number     Number       Type             X           Y           Z
 ---------------------------------------------------------------------
      1          5           0       -1.291404    0.000000    0.000000
      2          5           0        1.291404    0.000000    0.000000
      3          1           0       -2.476128   -0.000905    0.000000
      4          1           0        2.476128    0.000905   -0.000000
 ---------------------------------------------------------------------

 Alpha  occ. eigenvalues --   -6.94546  -6.94538  -0.37547  -0.36110  -0.15280
 Alpha  occ. eigenvalues --   -0.01474  -0.00334
 Alpha virt. eigenvalues --    0.11955   0.12190   0.12982   0.14676   0.15172
 Alpha virt. eigenvalues --    0.20126   0.21362   0.21370   0.21535   0.22500
 Alpha virt. eigenvalues --    0.25520   0.36617   0.38963   0.53843   0.57258

  Beta  occ. eigenvalues --   -6.94489  -6.94483  -0.36103  -0.35160  -0.13864
  Beta  occ. eigenvalues --    0.01219
  Beta virt. eigenvalues --    0.10184   0.12986   0.13736   0.13791   0.13915
  Beta virt. eigenvalues --    0.14924   0.19238   0.20081   0.20413   0.22591
  Beta virt. eigenvalues --    0.22885   0.23157   0.36727   0.38962   0.53193

 Mulliken charges and spin densities:
               1          2
     1  B   -0.534238   0.527371
     2  B   -0.534238   0.527371
     3  H    0.034238  -0.027371
     4  H    0.034238  -0.027371
 Sum of Mulliken charges =  -1.00000   1.00000

 Dipole moment (field-independent basis, Debye):
    X=              0.0000    Y=             -0.0000    Z=              0.0000  Tot=              0.0000
 Quadrupole moment (field-independent basis, Debye-Ang):
   XX=            -24.7892   YY=            -31.8537   ZZ=            -24.4269
   XY=              0.0128   XZ=             -0.0000   YZ=              0.0001

 Normal termination of Gaussian 16 at Mon Apr 21 17:26:13 2025.
