 Gaussian 16, Revision A.03,
 Gaussian 16:  ES64L-G16RevA.03 25-Dec-2016

 --------------------------------------------
 #p opt UM062X/6-311+G** nosymm int=superfine
 --------------------------------------------

 -------------------
 Title Card Required
 -------------------
 Symbolic Z-matrix:
 Charge =  0 Multiplicity = 1

 SCF Done:  E(UM062X) =  -474.397127554     A.U. after   20 cycles
 SCF Done:  E(UM062X) =  -474.398812640     A.U. after   17 cycles
 SCF Done:  E(UM062X) =  -474.401059707     A.U. after   19 cycles
 SCF Done:  E(UM062X) =  -474.401225762     A.U. after   18 cycles
 SCF Done:  E(UM062X) =  -474.401249356     A.U. after   15 cycles
 SCF Done:  E(UM062X) =  -474.401253477     A.U. after   35 cycles
 SCF Done:  E(UM062X) =  -474.401255202     A.U. after   16 cycles
 SCF Done:  E(UM062X) =  -474.401255944     A.U. after   16 cycles
 SCF Done:  E(UM062X) =  -474.401256172     A.U. after   21 cycles
 SCF Done:  E(UM062X) =  -474.401256311     A.U. after   14 cycles
 SCF Done:  E(UM062X) =  -474.401256315     A.U. after   15 cycles
 Optimization completed.
    -- Stationary point found.

                          Input orientation:
 ---------------------------------------------------------------------
 Center     Atomic      Atomic             Coordinates (Angstroms)
 Number     Number       Type             X           Y           Z
 ---------------------------------------------------------------------
      1          8           0       -1.539392    0.000000    0.000000
      2         16           0        1.539392    0.000000    0.000000
      3          1           0       -1.526161   -0.883429   -0.400744
      4          1           0        1.354139    0.528187    1.224609
 ---------------------------------------------------------------------

 Alpha  occ. eigenvalues --  -89.97842 -19.67464  -8.33948  -6.26166  -6.25792
 Alpha  occ. eigenvalues --   -6.25229  -1.08565  -0.83657  -0.52627  -0.49510
 Alpha  occ. eigenvalues --   -0.39856  -0.35778  -0.35450
 Alpha virt. eigenvalues --   -0.20725   0.01626   0.03946   0.04662   0.05520
 Alpha virt. eigenvalues --    0.07118   0.14020   0.19366   0.19938   0.21260
 Alpha virt. eigenvalues --    0.25872   0.30960   0.33977   0.35017   0.39425

  Beta  occ. eigenvalues --  -89.97842 -19.67464  -8.33948  -6.26166  -6.25792
  Beta  occ. eigenvalues --   -6.25229  -1.08565  -0.83657  -0.52627  -0.49510
  Beta  occ. eigenvalues --   -0.39856  -0.35778  -0.35450
  Beta virt. eigenvalues --   -0.20725   0.01626   0.03946   0.04662   0.05520
  Beta virt. eigenvalues --    0.07118   0.14020   0.19366   0.19938   0.21260
  Beta virt. eigenvalues --    0.25872   0.30960   0.33977   0.35017   0.39425

 Mulliken charges and spin densities:
               1          2
     1  O   -0.409710   0.000000
     2  S    0.050125  -0.000000
     3  H    0.247805   0.000000
     4  H    0.111780  -0.000000
 Sum of Mulliken charges =  -0.00000  -0.00000

 Dipole moment (field-independent basis, Debye):
    X=              2.1389    Y=             -1.1093    Z=              0.3720  Tot=              2.4380
 Quadrupole moment (field-independent basis, Debye-Ang):
   XX=            -18.2154   YY=            -19.9610   ZZ=            -18.7779
   XY=              3.3236   XZ=              2.8450   YZ=              2.4461

 Normal termination of Gaussian 16 at Thu May 15 13:07:38 2025.
