 Gaussian 16, Revision A.03,
 Gaussian 16:  ES64L-G16RevA.03 25-Dec-2016

 --------------------------------------------
 #p opt UM062X/6-311+G** nosymm int=superfine
 --------------------------------------------

 -------------------
 Title Card Required
 -------------------
 Symbolic Z-matrix:
 Charge =  1 Multiplicity = 2

 SCF Done:  E(UM062X) =  -378.881634565     A.U. after   14 cycles
 SCF Done:  E(UM062X) =  -379.264313452     A.U. after   12 cycles
 SCF Done:  E(UM062X) =  -379.492473161     A.U. after   16 cycles
 SCF Done:  E(UM062X) =  -379.572633813     A.U. after   14 cycles
 SCF Done:  E(UM062X) =  -379.574955094     A.U. after   11 cycles
 SCF Done:  E(UM062X) =  -379.581113566     A.U. after   11 cycles
 SCF Done:  E(UM062X) =  -379.583269997     A.U. after   12 cycles
 SCF Done:  E(UM062X) =  -379.583295774     A.U. after   10 cycles
 SCF Done:  E(UM062X) =  -379.583298203     A.U. after   80 cycles
 Optimization completed.
    -- Stationary point found.

                          Input orientation:
 ---------------------------------------------------------------------
 Center     Atomic      Atomic             Coordinates (Angstroms)
 Number     Number       Type             X           Y           Z
 ---------------------------------------------------------------------
      1          6           0       -0.573386    0.000000   -0.000000
      2         15           0        1.015468    0.000000   -0.000000
      3          1           0       -1.658143   -0.000000    0.000000
 ---------------------------------------------------------------------

 Alpha  occ. eigenvalues --  -78.37603 -10.90887  -7.19709  -5.31725  -5.30864
 Alpha  occ. eigenvalues --   -5.30827  -1.13166  -0.90949  -0.71862  -0.66182
 Alpha  occ. eigenvalues --   -0.63785
 Alpha virt. eigenvalues --   -0.32063  -0.30155  -0.15628  -0.14168  -0.10659
 Alpha virt. eigenvalues --   -0.10415  -0.10231  -0.07224  -0.05106  -0.04782
 Alpha virt. eigenvalues --   -0.00497   0.04956   0.12453   0.12599   0.16650

  Beta  occ. eigenvalues --  -78.37307 -10.90597  -7.19658  -5.30859  -5.30837
  Beta  occ. eigenvalues --   -5.30778  -1.08774  -0.89475  -0.70802  -0.61688
  Beta virt. eigenvalues --   -0.43845  -0.28910  -0.26179  -0.16105  -0.13665
  Beta virt. eigenvalues --   -0.10421  -0.10378  -0.10281  -0.06738  -0.04748
  Beta virt. eigenvalues --   -0.04623  -0.01005   0.05376   0.10487   0.12428

 Mulliken charges and spin densities:
               1          2
     1  C    0.073771   0.616693
     2  P    0.631952   0.405834
     3  H    0.294277  -0.022527
 Sum of Mulliken charges =   1.00000   1.00000

 Dipole moment (field-independent basis, Debye):
    X=              1.2385    Y=             -0.0000    Z=             -0.0000  Tot=              1.2385
 Quadrupole moment (field-independent basis, Debye-Ang):
   XX=             -8.0428   YY=            -16.4382   ZZ=            -14.8256
   XY=              0.0000   XZ=             -0.0000   YZ=              0.9225

 Normal termination of Gaussian 16 at Wed Apr 16 03:11:29 2025.
