 Gaussian 16, Revision A.03,
 Gaussian 16:  ES64L-G16RevA.03 25-Dec-2016

 --------------------------------------------
 #p opt UM062X/6-311+G** nosymm int=superfine
 --------------------------------------------

 -------------------
 Title Card Required
 -------------------
 Symbolic Z-matrix:
 Charge =  0 Multiplicity = 1

 SCF Done:  E(UM062X) =  -438.484106291     A.U. after   13 cycles
 SCF Done:  E(UM062X) =  -438.497726075     A.U. after   11 cycles
 SCF Done:  E(UM062X) =  -438.504658978     A.U. after   12 cycles
 SCF Done:  E(UM062X) =  -438.504733740     A.U. after   12 cycles
 SCF Done:  E(UM062X) =  -438.504755382     A.U. after   10 cycles
 SCF Done:  E(UM062X) =  -438.504788750     A.U. after   11 cycles
 SCF Done:  E(UM062X) =  -438.504792942     A.U. after    9 cycles
 SCF Done:  E(UM062X) =  -438.504793534     A.U. after   10 cycles
 SCF Done:  E(UM062X) =  -438.504793772     A.U. after    8 cycles
 SCF Done:  E(UM062X) =  -438.504794192     A.U. after   13 cycles
 SCF Done:  E(UM062X) =  -438.504794502     A.U. after   11 cycles
 SCF Done:  E(UM062X) =  -438.504794597     A.U. after    9 cycles
 Optimization completed.
    -- Stationary point found.

                          Input orientation:
 ---------------------------------------------------------------------
 Center     Atomic      Atomic             Coordinates (Angstroms)
 Number     Number       Type             X           Y           Z
 ---------------------------------------------------------------------
      1          6           0       -1.935220    0.000000    0.000000
      2         16           0        1.935220    0.000000    0.000000
      3          1           0        1.891084   -1.343864   -0.003775
      4          1           0       -1.926404    1.081043    0.001982
      5          1           0       -1.974663   -0.536602   -0.937752
      6          1           0       -1.974837   -0.540045    0.935767
 ---------------------------------------------------------------------

 Alpha  occ. eigenvalues --  -89.87680 -10.65060  -8.23977  -6.16021  -6.15958
 Alpha  occ. eigenvalues --   -6.15408  -0.83363  -0.75498  -0.55411  -0.55336
 Alpha  occ. eigenvalues --   -0.42039  -0.27977  -0.26856
 Alpha virt. eigenvalues --   -0.16092   0.01023   0.03740   0.04153   0.05593
 Alpha virt. eigenvalues --    0.07520   0.08430   0.08450   0.10768   0.13503
 Alpha virt. eigenvalues --    0.15593   0.15811   0.20742   0.34320   0.35280

  Beta  occ. eigenvalues --  -89.87680 -10.65060  -8.23977  -6.16021  -6.15958
  Beta  occ. eigenvalues --   -6.15408  -0.83363  -0.75498  -0.55411  -0.55336
  Beta  occ. eigenvalues --   -0.42039  -0.27977  -0.26856
  Beta virt. eigenvalues --   -0.16092   0.01023   0.03740   0.04153   0.05593
  Beta virt. eigenvalues --    0.07520   0.08430   0.08450   0.10768   0.13503
  Beta virt. eigenvalues --    0.15593   0.15811   0.20742   0.34320   0.35280

 Mulliken charges and spin densities:
               1          2
     1  C   -0.384413   0.000002
     2  S   -0.289795  -0.000002
     3  H    0.050821   0.000000
     4  H    0.209664  -0.000000
     5  H    0.206860  -0.000000
     6  H    0.206863  -0.000000
 Sum of Mulliken charges =  -0.00000  -0.00000

 Dipole moment (field-independent basis, Debye):
    X=             -5.0001    Y=             -0.9535    Z=             -0.0027  Tot=              5.0902
 Quadrupole moment (field-independent basis, Debye-Ang):
   XX=            -20.8226   YY=            -19.6176   ZZ=            -23.6710
   XY=             -1.9026   XZ=             -0.0056   YZ=              0.0114

 Normal termination of Gaussian 16 at Mon Apr 21 19:39:26 2025.
