 Gaussian 16, Revision A.03,
 Gaussian 16:  ES64L-G16RevA.03 25-Dec-2016

 --------------------------------------------
 #p opt UM062X/6-311+G** nosymm int=superfine
 --------------------------------------------

 -------------------
 Title Card Required
 -------------------
 Symbolic Z-matrix:
 Charge =  1 Multiplicity = 2

 SCF Done:  E(UM062X) =  -80.1539793604     A.U. after   16 cycles
 SCF Done:  E(UM062X) =  -80.1548447887     A.U. after   16 cycles
 SCF Done:  E(UM062X) =  -80.1548477085     A.U. after   14 cycles
 SCF Done:  E(UM062X) =  -80.1548477621     A.U. after   15 cycles
 SCF Done:  E(UM062X) =  -80.1542636793     A.U. after   19 cycles
 SCF Done:  E(UM062X) =  -80.1548544438     A.U. after   17 cycles
 SCF Done:  E(UM062X) =  -80.1546263658     A.U. after   16 cycles
 SCF Done:  E(UM062X) =  -80.1548733417     A.U. after   12 cycles
 SCF Done:  E(UM062X) =  -80.1400230245     A.U. after   15 cycles
 SCF Done:  E(UM062X) =  -80.1548748042     A.U. after   13 cycles
 SCF Done:  E(UM062X) =  -80.1548749525     A.U. after   12 cycles
 SCF Done:  E(UM062X) =  -80.1548749501     A.U. after   11 cycles
 Optimization completed.
    -- Stationary point found.

                          Input orientation:
 ---------------------------------------------------------------------
 Center     Atomic      Atomic             Coordinates (Angstroms)
 Number     Number       Type             X           Y           Z
 ---------------------------------------------------------------------
      1          5           0       -1.977734    0.000000    0.000000
      2          7           0        1.977734    0.000000    0.000000
      3          1           0       -3.181573    0.057606   -0.000088
      4          1           0        3.004285    0.136605    0.000025
 ---------------------------------------------------------------------

 Alpha  occ. eigenvalues --  -14.94669  -7.53895  -1.07774  -0.86315  -0.61603
 Alpha  occ. eigenvalues --   -0.54206  -0.54071
 Alpha virt. eigenvalues --   -0.44710  -0.34956  -0.34951  -0.15850  -0.11806
 Alpha virt. eigenvalues --   -0.09964  -0.09930  -0.08811  -0.03896   0.01742
 Alpha virt. eigenvalues --    0.01746   0.03636   0.07761   0.12642   0.12729

  Beta  occ. eigenvalues --  -14.92189  -7.55130  -0.94949  -0.89932  -0.68423
  Beta  occ. eigenvalues --   -0.55892
  Beta virt. eigenvalues --   -0.36109  -0.36108  -0.19030  -0.18995  -0.14677
  Beta virt. eigenvalues --   -0.10657  -0.09820  -0.09816  -0.06968  -0.03136
  Beta virt. eigenvalues --    0.03736   0.03753   0.06380   0.08475   0.15980

 Mulliken charges and spin densities:
               1          2
     1  B    0.759571  -0.846072
     2  N   -0.237368   2.052731
     3  H    0.221172  -0.140465
     4  H    0.256626  -0.066193
 Sum of Mulliken charges =   1.00000   1.00000

 Dipole moment (field-independent basis, Debye):
    X=             -7.9883    Y=              0.2652    Z=             -0.0000  Tot=              7.9927
 Quadrupole moment (field-independent basis, Debye-Ang):
   XX=             21.0167   YY=            -10.2471   ZZ=            -10.2741
   XY=              0.5151   XZ=              0.0003   YZ=              0.0000

 Normal termination of Gaussian 16 at Mon Apr 21 18:02:13 2025.
