 Gaussian 16, Revision A.03,
 Gaussian 16:  ES64L-G16RevA.03 25-Dec-2016

 --------------------------------------------
 #p opt UM062X/6-311+G** nosymm int=superfine
 --------------------------------------------

 -------------------
 Title Card Required
 -------------------
 Symbolic Z-matrix:
 Charge =  0 Multiplicity = 1

 SCF Done:  E(UM062X) =  -684.906698734     A.U. after   12 cycles

 Alpha  occ. eigenvalues --  -78.04929 -78.04927  -6.87352  -6.87351  -4.98895
 Alpha  occ. eigenvalues --   -4.98894  -4.98777  -4.98776  -4.98595  -4.98594
 Alpha  occ. eigenvalues --   -0.71173  -0.70972  -0.45137  -0.45075  -0.36269
 Alpha  occ. eigenvalues --   -0.36208  -0.23597
 Alpha virt. eigenvalues --   -0.15933   0.01509   0.02827   0.03188   0.03997
 Alpha virt. eigenvalues --    0.04823   0.05820   0.06019   0.06077   0.06097
 Alpha virt. eigenvalues --    0.07840   0.12560   0.18137   0.29159   0.29810

  Beta  occ. eigenvalues --  -78.04929 -78.04927  -6.87352  -6.87351  -4.98895
  Beta  occ. eigenvalues --   -4.98894  -4.98777  -4.98776  -4.98595  -4.98594
  Beta  occ. eigenvalues --   -0.71173  -0.70972  -0.45137  -0.45075  -0.36269
  Beta  occ. eigenvalues --   -0.36208  -0.23597
  Beta virt. eigenvalues --   -0.15933   0.01509   0.02827   0.03188   0.03997
  Beta virt. eigenvalues --    0.04823   0.05820   0.06019   0.06077   0.06097
  Beta virt. eigenvalues --    0.07840   0.12560   0.18137   0.29159   0.29810

 Mulliken charges and spin densities:
               1          2
     1  P    0.010320   0.000000
     2  P    0.010747  -0.000000
     3  H   -0.004831   0.000000
     4  H   -0.004870  -0.000000
     5  H   -0.005696   0.000000
     6  H   -0.005669  -0.000000
 Sum of Mulliken charges =   0.00000  -0.00000

 Dipole moment (field-independent basis, Debye):
    X=             -0.0023    Y=             -0.0064    Z=             -0.1617  Tot=              0.1618
 Quadrupole moment (field-independent basis, Debye-Ang):
   XX=            -29.2437   YY=            -31.2338   ZZ=            -28.5417
   XY=             -4.7399   XZ=              0.1638   YZ=              0.0968

 Optimization completed.
    -- Stationary point found.

                          Input orientation:
 ---------------------------------------------------------------------
 Center     Atomic      Atomic             Coordinates (Angstroms)
 Number     Number       Type             X           Y           Z
 ---------------------------------------------------------------------
      1         15           0       -2.442188    0.000000    0.000000
      2         15           0        2.442188    0.000000    0.000000
      3          1           0        2.318172   -1.033536    0.964231
      4          1           0       -2.327768    1.100946    0.887699
      5          1           0        2.330186   -0.923237   -1.071799
      6          1           0       -2.329554    0.844103   -1.135036
 ---------------------------------------------------------------------

 Normal termination of Gaussian 16 at Tue Apr 22 01:59:27 2025.
