 Gaussian 16, Revision A.03,
 Gaussian 16:  ES64L-G16RevA.03 25-Dec-2016

 ----------------------------------------------------------------------
 #p opt UM062X/6-311+G** nosymm int=superfine SCF=(MaxCycle=200,NoVarAc
 c,noincfock) guess=read
 ----------------------------------------------------------------------

 -------------------
 Title Card Required
 -------------------
 Symbolic Z-matrix:
 Charge = -1 Multiplicity = 2

 SCF Done:  E(UM062X) =  -50.5633238132     A.U. after   64 cycles
 SCF Done:  E(UM062X) =  -50.5774466239     A.U. after   33 cycles
 SCF Done:  E(UM062X) =  -50.6030243309     A.U. after   30 cycles
 SCF Done:  E(UM062X) =  -50.6205700744     A.U. after   25 cycles
 SCF Done:  E(UM062X) =  -50.6212465278     A.U. after   24 cycles
 SCF Done:  E(UM062X) =  -50.6216603908     A.U. after   24 cycles
 SCF Done:  E(UM062X) =  -50.6217535221     A.U. after   21 cycles
 SCF Done:  E(UM062X) =  -50.6218196883     A.U. after   21 cycles
 SCF Done:  E(UM062X) =  -50.6218357420     A.U. after   21 cycles
 SCF Done:  E(UM062X) =  -50.6218308531     A.U. after   21 cycles
 SCF Done:  E(UM062X) =  -50.6218820870     A.U. after   19 cycles
 SCF Done:  E(UM062X) =  -50.6218862889     A.U. after   20 cycles
 SCF Done:  E(UM062X) =  -50.6218863941     A.U. after   19 cycles
 SCF Done:  E(UM062X) =  -50.6218864091     A.U. after   15 cycles
 Optimization completed.
    -- Stationary point found.

                          Input orientation:
 ---------------------------------------------------------------------
 Center     Atomic      Atomic             Coordinates (Angstroms)
 Number     Number       Type             X           Y           Z
 ---------------------------------------------------------------------
      1          5           0       -1.391404    0.000000    0.000000
      2          5           0        1.391404    0.000000    0.000000
      3          1           0       -1.578747   -1.093621   -0.542675
      4          1           0        1.579284    0.864371   -0.862073
 ---------------------------------------------------------------------

 Alpha  occ. eigenvalues --   -6.89564  -6.89560  -0.34685  -0.32215  -0.09232
 Alpha  occ. eigenvalues --   -0.07011  -0.00742
 Alpha virt. eigenvalues --    0.13465   0.14253   0.15919   0.17537   0.18951
 Alpha virt. eigenvalues --    0.20316   0.21860   0.22189   0.22413   0.24240
 Alpha virt. eigenvalues --    0.25446   0.34008   0.36454   0.52423   0.52626

  Beta  occ. eigenvalues --   -6.89418  -6.89417  -0.33220  -0.30907  -0.08293
  Beta  occ. eigenvalues --   -0.04744
  Beta virt. eigenvalues --    0.11405   0.12853   0.12882   0.14575   0.16289
  Beta virt. eigenvalues --    0.18604   0.20162   0.21223   0.22131   0.22646
  Beta virt. eigenvalues --    0.24433   0.27967   0.33760   0.36114   0.52446

 Mulliken charges and spin densities:
               1          2
     1  B   -0.425257   0.517153
     2  B   -0.425370   0.517415
     3  H   -0.074681  -0.017281
     4  H   -0.074693  -0.017288
 Sum of Mulliken charges =  -1.00000   1.00000

 Dipole moment (field-independent basis, Debye):
    X=              0.0004    Y=             -0.2516    Z=             -1.5416  Tot=              1.5619
 Quadrupole moment (field-independent basis, Debye-Ang):
   XX=            -35.7064   YY=            -23.8682   ZZ=            -21.2521
   XY=              3.7297   XZ=             -0.6081   YZ=              0.4387

 Normal termination of Gaussian 16 at Mon Apr 21 21:31:12 2025.
