 Gaussian 16, Revision A.03,
 Gaussian 16:  ES64L-G16RevA.03 25-Dec-2016

 --------------------------------------------
 #p opt UM062X/6-311+G** nosymm int=superfine
 --------------------------------------------

 -------------------
 Title Card Required
 -------------------
 Symbolic Z-matrix:
 Charge =  0 Multiplicity = 1

 SCF Done:  E(UM062X) =  -82.0156356894     A.U. after   10 cycles
 SCF Done:  E(UM062X) =  -82.0157425623     A.U. after    8 cycles
 SCF Done:  E(UM062X) =  -82.0157618582     A.U. after    8 cycles
 SCF Done:  E(UM062X) =  -82.0157342454     A.U. after    8 cycles
 SCF Done:  E(UM062X) =  -82.0157618876     A.U. after    8 cycles
 SCF Done:  E(UM062X) =  -82.0157638397     A.U. after    7 cycles
 Optimization completed.
    -- Stationary point found.

                          Input orientation:
 ---------------------------------------------------------------------
 Center     Atomic      Atomic             Coordinates (Angstroms)
 Number     Number       Type             X           Y           Z
 ---------------------------------------------------------------------
      1          5           0       -0.745399    0.000000    0.000000
      2          7           0        0.745399    0.000000    0.000000
      3          1           0       -1.299943   -1.049614    0.000091
      4          1           0        1.287775    0.847878   -0.000097
      5          1           0       -1.299943    1.049614   -0.000184
      6          1           0        1.287775   -0.847878    0.000106
 ---------------------------------------------------------------------

 Alpha  occ. eigenvalues --  -14.74533  -7.04479  -0.95716  -0.59242  -0.57714
 Alpha  occ. eigenvalues --   -0.45482  -0.39431  -0.35099
 Alpha virt. eigenvalues --    0.00870   0.01461   0.03641   0.03793   0.07157
 Alpha virt. eigenvalues --    0.10683   0.12156   0.16515   0.17119   0.18690
 Alpha virt. eigenvalues --    0.20266   0.22867   0.27126   0.28955   0.42576

  Beta  occ. eigenvalues --  -14.74533  -7.04479  -0.95716  -0.59242  -0.57714
  Beta  occ. eigenvalues --   -0.45482  -0.39431  -0.35099
  Beta virt. eigenvalues --    0.00870   0.01461   0.03641   0.03793   0.07157
  Beta virt. eigenvalues --    0.10683   0.12156   0.16515   0.17119   0.18690
  Beta virt. eigenvalues --    0.20266   0.22867   0.27126   0.28955   0.42576

 Mulliken charges and spin densities:
               1          2
     1  B    0.099551  -0.000000
     2  N   -0.591635   0.000000
     3  H   -0.016850  -0.000000
     4  H    0.262892  -0.000000
     5  H   -0.016850  -0.000000
     6  H    0.262892  -0.000000
 Sum of Mulliken charges =  -0.00000  -0.00000

 Dipole moment (field-independent basis, Debye):
    X=              1.3798    Y=             -0.0000    Z=              0.0001  Tot=              1.3798
 Quadrupole moment (field-independent basis, Debye-Ang):
   XX=            -12.8004   YY=            -13.1212   ZZ=            -15.3589
   XY=              0.0000   XZ=             -0.0000   YZ=             -0.0003

 Normal termination of Gaussian 16 at Mon Apr 21 17:41:41 2025.
