 Gaussian 16, Revision A.03,
 Gaussian 16:  ES64L-G16RevA.03 25-Dec-2016

 ---------------------------------------------------------------------
 #p opt UM062X/6-311+G** nosymm int=superfine SCF=(Tight,MaxCycle=200)
 ---------------------------------------------------------------------

 -------------------
 Title Card Required
 -------------------
 Symbolic Z-matrix:
 Charge =  1 Multiplicity = 2

 SCF Done:  E(UM062X) =  -1615.49104453     A.U. after   22 cycles
 SCF Done:  E(UM062X) =  -1615.54155471     A.U. after   19 cycles
 SCF Done:  E(UM062X) =  -1615.56674262     A.U. after   19 cycles
 SCF Done:  E(UM062X) =  -1615.56689804     A.U. after   19 cycles
 SCF Done:  E(UM062X) =  -1615.52428305     A.U. after   22 cycles
 SCF Done:  E(UM062X) =  -1615.56125558     A.U. after   22 cycles
 SCF Done:  E(UM062X) =  -1615.56800271     A.U. after   17 cycles
 SCF Done:  E(UM062X) =  -1615.56638256     A.U. after   20 cycles
 SCF Done:  E(UM062X) =  -1615.56842511     A.U. after   18 cycles
 SCF Done:  E(UM062X) =  -1615.56829578     A.U. after   18 cycles
 SCF Done:  E(UM062X) =  -1615.56852536     A.U. after   18 cycles
 SCF Done:  E(UM062X) =  -1615.56854577     A.U. after   17 cycles
 SCF Done:  E(UM062X) =  -1615.56855169     A.U. after   14 cycles
 SCF Done:  E(UM062X) =  -1615.56855720     A.U. after   15 cycles
 SCF Done:  E(UM062X) =  -1615.56855902     A.U. after   14 cycles
 SCF Done:  E(UM062X) =  -1615.56855933     A.U. after   13 cycles
 SCF Done:  E(UM062X) =  -1615.56855938     A.U. after   12 cycles
 SCF Done:  E(UM062X) =  -1615.56855941     A.U. after   12 cycles
 Optimization completed.
    -- Stationary point found.

                          Input orientation:
 ---------------------------------------------------------------------
 Center     Atomic      Atomic             Coordinates (Angstroms)
 Number     Number       Type             X           Y           Z
 ---------------------------------------------------------------------
      1          6           0       -1.127107    0.000000    0.000000
      2          6           0        1.127107    0.000000    0.000000
      3          6           0       -0.000044   -2.171425    0.000156
      4          6           0       -0.000065   -3.542002    0.000245
      5          6           0       -1.126539   -4.327307    0.306353
      6          6           0       -1.189046   -1.479860    0.289742
      7          6           0        0.654738   -5.724171   -0.179224
      8          1           0        1.259834   -6.603411   -0.348505
      9          6           0       -1.439116    0.866068    1.140190
     10          6           0       -0.655064   -5.724130    0.179494
     11          1           0       -1.260232   -6.603333    0.348712
     12          6           0        1.126331   -4.327378   -0.305972
     13          6           0        1.188961   -1.479909   -0.289581
     14          6           0        1.644222    2.279039   -1.111929
     15          6           0       -1.447187    0.269445   -1.418219
     16          6           0       -1.868329    2.967116    2.325342
     17          1           0       -2.028841    4.037941    2.279148
     18          6           0       -2.286504   -3.654015    0.628457
     19          1           0       -3.200592   -4.180075    0.879730
     20          6           0       -1.556030    1.555818   -2.027923
     21          6           0        2.309316   -2.222537   -0.608667
     22          1           0        3.247622   -1.718152   -0.814655
     23          6           0        1.447311    0.269646    1.418173
     24          6           0        1.556125    1.556106    2.027695
     25          6           0        2.286280   -3.654153   -0.628265
     26          1           0        3.200306   -4.180264   -0.879656
     27          6           0       -1.644415    2.279127    1.111699
     28          6           0       -1.449054    0.251265    2.419171
     29          1           0       -1.267068   -0.809699    2.493889
     30          6           0        1.599484   -0.842804    2.290192
     31          1           0        1.561857   -1.847205    1.899417
     32          6           0       -1.889147    2.329593    3.543542
     33          1           0       -2.066202    2.890065    4.453333
     34          6           0       -2.309472   -2.222401    0.608781
     35          1           0       -3.247769   -1.717952    0.814647
     36          6           0       -1.743052    1.653881   -3.424158
     37          1           0       -1.803476    2.644992   -3.858421
     38          6           0        1.439235    0.865938   -1.140270
     39          6           0       -1.601593    3.129636   -0.046558
     40          1           0       -1.647571    4.189370    0.184904
     41          6           0       -1.877815    0.549319   -4.232011
     42          1           0       -2.038243    0.662261   -5.297149
     43          6           0       -1.531960    2.827824   -1.358127
     44          1           0       -1.526798    3.679971   -2.030946
     45          6           0        1.743561    1.654392    3.423861
     46          1           0        1.804010    2.645572    3.857960
     47          6           0       -1.669053    0.948846    3.585414
     48          1           0       -1.660509    0.422453    4.532130
     49          6           0       -1.599119   -0.843140   -2.290087
     50          1           0       -1.561557   -1.847475   -1.899130
     51          6           0        1.878644    0.549963    4.231831
     52          1           0        2.039403    0.663070    5.296902
     53          6           0        1.868366    2.966908   -2.325592
     54          1           0        2.028643    4.037772   -2.279496
     55          6           0        1.820768   -0.714783    3.645083
     56          1           0        1.946926   -1.606317    4.247144
     57          6           0        1.889691    2.329211   -3.543694
     58          1           0        2.066943    2.889580   -4.453509
     59          6           0        1.600771    3.129716    0.046188
     60          1           0        1.646117    4.189441   -0.185442
     61          6           0       -1.820086   -0.715332   -3.645056
     62          1           0       -1.946105   -1.606962   -4.247004
     63          6           0        1.531366    2.828038    1.357792
     64          1           0        1.525784    3.680250    2.030525
     65          6           0        1.449505    0.250979   -2.419165
     66          1           0        1.267597   -0.810004   -2.493807
     67          6           0        1.669759    0.948440   -3.585438
     68          1           0        1.661521    0.421920   -4.532087
 ---------------------------------------------------------------------

 Alpha  occ. eigenvalues --  -10.71845 -10.71840 -10.68728 -10.68728 -10.68556
 Alpha  occ. eigenvalues --  -10.68555 -10.68419 -10.68418 -10.67936 -10.67936
 Alpha  occ. eigenvalues --  -10.66776 -10.66776 -10.66765 -10.66764 -10.66628
 Alpha  occ. eigenvalues --  -10.66627 -10.66062 -10.66062 -10.65944 -10.65944
 Alpha  occ. eigenvalues --  -10.65852 -10.65852 -10.65805 -10.65804 -10.65700
 Alpha  occ. eigenvalues --  -10.65699 -10.65626 -10.65626 -10.65581 -10.65581
 Alpha  occ. eigenvalues --  -10.65484 -10.65484 -10.65470 -10.65470 -10.65256
 Alpha  occ. eigenvalues --  -10.65256 -10.65018 -10.65018 -10.64967 -10.64111
 Alpha  occ. eigenvalues --  -10.64014 -10.62940  -1.12897  -1.10390  -1.09940
 Alpha  occ. eigenvalues --   -1.08513  -1.07821  -1.06093  -1.04509  -1.02684
 Alpha  occ. eigenvalues --   -1.02215  -1.00682  -1.00446  -0.97926  -0.97694
 Alpha  occ. eigenvalues --   -0.96960  -0.96234  -0.95000  -0.93456  -0.93432
 Alpha  occ. eigenvalues --   -0.92754  -0.91942  -0.87747  -0.87221  -0.84970
 Alpha  occ. eigenvalues --   -0.84728  -0.82946  -0.81577  -0.81270  -0.79904
 Alpha  occ. eigenvalues --   -0.79757  -0.79522  -0.77701  -0.76420  -0.76197
 Alpha  occ. eigenvalues --   -0.75586  -0.75402  -0.73811  -0.70186  -0.69868
 Alpha  occ. eigenvalues --   -0.69117  -0.68388  -0.67748  -0.67580  -0.67018
 Alpha  occ. eigenvalues --   -0.66806  -0.65582  -0.65306  -0.65025  -0.64880
 Alpha  occ. eigenvalues --   -0.63490  -0.63064  -0.62258  -0.62242  -0.61415
 Alpha  occ. eigenvalues --   -0.61225  -0.60725  -0.60350  -0.60166  -0.60010
 Alpha  occ. eigenvalues --   -0.59603  -0.58890  -0.58673  -0.58125  -0.57815
 Alpha  occ. eigenvalues --   -0.57516  -0.56415  -0.55758  -0.55725  -0.55686
 Alpha  occ. eigenvalues --   -0.54957  -0.54348  -0.53493  -0.52862  -0.52733
 Alpha  occ. eigenvalues --   -0.52563  -0.52255  -0.52107  -0.51522  -0.51026
 Alpha  occ. eigenvalues --   -0.50944  -0.50937  -0.50537  -0.49376  -0.48902
 Alpha  occ. eigenvalues --   -0.48902  -0.48512  -0.48058  -0.44413  -0.43981
 Alpha  occ. eigenvalues --   -0.43618  -0.43143  -0.40711  -0.40272  -0.39352
 Alpha  occ. eigenvalues --   -0.38008  -0.37840  -0.37245  -0.34060
 Alpha virt. eigenvalues --   -0.17504  -0.15558  -0.15339  -0.14821  -0.10307
 Alpha virt. eigenvalues --   -0.09933  -0.08749  -0.08631  -0.08328  -0.07656
 Alpha virt. eigenvalues --   -0.07617  -0.07488  -0.06611  -0.06536  -0.06370

  Beta  occ. eigenvalues --  -10.71738 -10.71737 -10.68720 -10.68720 -10.68564
  Beta  occ. eigenvalues --  -10.68564 -10.68377 -10.68376 -10.67905 -10.67905
  Beta  occ. eigenvalues --  -10.66784 -10.66783 -10.66746 -10.66745 -10.66603
  Beta  occ. eigenvalues --  -10.66603 -10.66038 -10.66038 -10.65945 -10.65945
  Beta  occ. eigenvalues --  -10.65862 -10.65861 -10.65793 -10.65792 -10.65686
  Beta  occ. eigenvalues --  -10.65686 -10.65622 -10.65621 -10.65587 -10.65587
  Beta  occ. eigenvalues --  -10.65475 -10.65475 -10.65460 -10.65460 -10.65258
  Beta  occ. eigenvalues --  -10.65257 -10.65014 -10.65014 -10.64952 -10.64111
  Beta  occ. eigenvalues --  -10.64014 -10.62941  -1.12753  -1.10287  -1.09768
  Beta  occ. eigenvalues --   -1.08378  -1.07697  -1.05957  -1.04404  -1.02520
  Beta  occ. eigenvalues --   -1.02065  -1.00545  -1.00292  -0.97811  -0.97591
  Beta  occ. eigenvalues --   -0.96826  -0.96122  -0.94952  -0.93362  -0.93343
  Beta  occ. eigenvalues --   -0.92618  -0.91829  -0.87453  -0.86951  -0.84876
  Beta  occ. eigenvalues --   -0.84644  -0.82873  -0.81453  -0.81191  -0.79800
  Beta  occ. eigenvalues --   -0.79684  -0.79450  -0.77569  -0.76236  -0.76027
  Beta  occ. eigenvalues --   -0.75417  -0.75366  -0.73686  -0.70074  -0.69724
  Beta  occ. eigenvalues --   -0.69006  -0.68293  -0.67651  -0.67503  -0.66891
  Beta  occ. eigenvalues --   -0.66702  -0.65490  -0.65180  -0.64898  -0.64752
  Beta  occ. eigenvalues --   -0.63206  -0.63022  -0.62162  -0.62155  -0.61150
  Beta  occ. eigenvalues --   -0.61048  -0.60569  -0.60218  -0.60108  -0.59946
  Beta  occ. eigenvalues --   -0.59468  -0.58716  -0.58590  -0.58019  -0.57498
  Beta  occ. eigenvalues --   -0.57318  -0.56279  -0.55671  -0.55599  -0.55230
  Beta  occ. eigenvalues --   -0.54941  -0.53921  -0.53263  -0.52760  -0.52635
  Beta  occ. eigenvalues --   -0.52510  -0.52156  -0.51992  -0.51067  -0.50949
  Beta  occ. eigenvalues --   -0.50826  -0.50551  -0.49870  -0.49157  -0.48840
  Beta  occ. eigenvalues --   -0.48762  -0.48432  -0.47603  -0.43822  -0.43400
  Beta  occ. eigenvalues --   -0.43046  -0.42767  -0.40261  -0.40216  -0.38741
  Beta  occ. eigenvalues --   -0.37720  -0.37362  -0.36935
  Beta virt. eigenvalues --   -0.24440  -0.16281  -0.15496  -0.14903  -0.14757
  Beta virt. eigenvalues --   -0.10150  -0.09537  -0.08512  -0.08378  -0.08256
  Beta virt. eigenvalues --   -0.07581  -0.07551  -0.07352  -0.06594  -0.06352

 Mulliken charges and spin densities:
               1          2
     1  C   -0.019935   0.129577
     2  C   -0.019366   0.129669
     3  C    0.164998   0.000958
     4  C    0.111661  -0.003786
     5  C    0.108971   0.006684
     6  C    0.110644  -0.003922
     7  C   -0.300351   0.001566
     8  H    0.176259  -0.000078
     9  C    0.227042   0.034676
    10  C   -0.300533   0.001565
    11  H    0.176259  -0.000078
    12  C    0.109115   0.006681
    13  C    0.110653  -0.003909
    14  C    0.173615   0.063786
    15  C    0.258451   0.012301
    16  C   -0.200505  -0.019812
    17  H    0.164388   0.000536
    18  C   -0.465646  -0.001287
    19  H    0.175267   0.000512
    20  C    0.212095   0.077586
    21  C   -0.159179   0.016324
    22  H    0.174836  -0.000656
    23  C    0.258690   0.012289
    24  C    0.211975   0.077585
    25  C   -0.465406  -0.001288
    26  H    0.175267   0.000512
    27  C    0.172936   0.063828
    28  C   -0.136173   0.009245
    29  H    0.199925  -0.001031
    30  C   -0.278614   0.020118
    31  H    0.222407  -0.000375
    32  C   -0.317740   0.045539
    33  H    0.180717  -0.002372
    34  C   -0.159351   0.016317
    35  H    0.174821  -0.000656
    36  C   -0.138204  -0.028525
    37  H    0.164432   0.000865
    38  C    0.227082   0.034690
    39  C   -0.232652   0.074173
    40  H    0.168505  -0.005348
    41  C   -0.245618   0.032346
    42  H    0.179172  -0.001461
    43  C   -0.199292   0.038866
    44  H    0.160290  -0.002482
    45  C   -0.138493  -0.028537
    46  H    0.164444   0.000865
    47  C   -0.137122   0.018517
    48  H    0.171318  -0.002425
    49  C   -0.278500   0.020099
    50  H    0.222402  -0.000374
    51  C   -0.245735   0.032335
    52  H    0.179174  -0.001461
    53  C   -0.201310  -0.019832
    54  H    0.164386   0.000535
    55  C   -0.210042  -0.012107
    56  H    0.174964   0.000044
    57  C   -0.317933   0.045516
    58  H    0.180717  -0.002370
    59  C   -0.232080   0.074212
    60  H    0.168474  -0.005352
    61  C   -0.210170  -0.012094
    62  H    0.174963   0.000043
    63  C   -0.199063   0.038825
    64  H    0.160275  -0.002481
    65  C   -0.136281   0.009285
    66  H    0.199908  -0.001032
    67  C   -0.137520   0.018484
    68  H    0.171316  -0.002424
 Sum of Mulliken charges =   1.00000   1.00000

 Dipole moment (field-independent basis, Debye):
    X=              0.0000    Y=              2.6327    Z=             -0.0004  Tot=              2.6327
 Quadrupole moment (field-independent basis, Debye-Ang):
   XX=           -222.4097   YY=           -174.6703   ZZ=           -176.8106
   XY=             -0.0031   XZ=             -1.6693   YZ=              0.0027

 Normal termination of Gaussian 16 at Fri Mar 21 09:49:58 2025.
