 Gaussian 16, Revision A.03,
 Gaussian 16:  ES64L-G16RevA.03 25-Dec-2016

 --------------------------------------------
 #p opt UM062X/6-311+G** nosymm int=superfine
 --------------------------------------------

 -------------------
 Title Card Required
 -------------------
 Symbolic Z-matrix:
 Charge =  0 Multiplicity = 1

 SCF Done:  E(UM062X) =  -80.6836269093     A.U. after   11 cycles
 SCF Done:  E(UM062X) =  -80.7300599401     A.U. after   11 cycles
 SCF Done:  E(UM062X) =  -80.7683614415     A.U. after   11 cycles
 SCF Done:  E(UM062X) =  -80.7806951108     A.U. after   10 cycles
 SCF Done:  E(UM062X) =  -80.7877085557     A.U. after   10 cycles
 SCF Done:  E(UM062X) =  -80.7891687351     A.U. after    9 cycles
 SCF Done:  E(UM062X) =  -80.7914760060     A.U. after   10 cycles
 SCF Done:  E(UM062X) =  -80.7918897132     A.U. after   10 cycles
 SCF Done:  E(UM062X) =  -80.7918981157     A.U. after    7 cycles
 SCF Done:  E(UM062X) =  -80.7918982063     A.U. after    6 cycles
 SCF Done:  E(UM062X) =  -80.7918980092     A.U. after    7 cycles
 SCF Done:  E(UM062X) =  -80.7918986531     A.U. after    7 cycles
 Optimization completed.
    -- Stationary point found.

                          Input orientation:
 ---------------------------------------------------------------------
 Center     Atomic      Atomic             Coordinates (Angstroms)
 Number     Number       Type             X           Y           Z
 ---------------------------------------------------------------------
      1          5           0       -0.434181   -0.375651   -0.000000
      2          7           0        0.498894    0.432094   -0.000000
      3          1           0       -1.315188   -1.139280    0.000000
      4          1           0        1.250475    1.082837    0.000000
 ---------------------------------------------------------------------

 Alpha  occ. eigenvalues --  -14.72511  -7.04844  -0.92952  -0.62468  -0.51312
 Alpha  occ. eigenvalues --   -0.36506  -0.36506
 Alpha virt. eigenvalues --    0.01220   0.02853   0.02853   0.02929   0.08557
 Alpha virt. eigenvalues --    0.08557   0.10196   0.15437   0.18881   0.18881
 Alpha virt. eigenvalues --    0.21582   0.26106   0.37897   0.43492   0.43492

  Beta  occ. eigenvalues --  -14.72511  -7.04844  -0.92952  -0.62468  -0.51312
  Beta  occ. eigenvalues --   -0.36506  -0.36506
  Beta virt. eigenvalues --    0.01220   0.02853   0.02853   0.02929   0.08557
  Beta virt. eigenvalues --    0.08557   0.10196   0.15437   0.18881   0.18881
  Beta virt. eigenvalues --    0.21582   0.26106   0.37897   0.43492   0.43492

 Mulliken charges and spin densities:
               1          2
     1  B    0.241097  -0.000000
     2  N   -0.544406   0.000000
     3  H    0.027940   0.000000
     4  H    0.275369   0.000000
 Sum of Mulliken charges =  -0.00000   0.00000

 Dipole moment (field-independent basis, Debye):
    X=             -0.0915    Y=             -0.0789    Z=             -0.0000  Tot=              0.1208
 Quadrupole moment (field-independent basis, Debye-Ang):
   XX=            -10.2103   YY=            -10.9711   ZZ=            -13.2486
   XY=              2.6306   XZ=              0.0000   YZ=              0.0000

 Normal termination of Gaussian 16 at Wed Apr 16 01:00:07 2025.
