 Gaussian 16, Revision A.03,
 Gaussian 16:  ES64L-G16RevA.03 25-Dec-2016

 --------------------------------------------
 #p opt UM062X/6-311+G** nosymm int=superfine
 --------------------------------------------

 -------------------
 Title Card Required
 -------------------
 Symbolic Z-matrix:
 Charge =  0 Multiplicity = 1

 SCF Done:  E(UM062X) =  -380.929574582     A.U. after   18 cycles
 SCF Done:  E(UM062X) =  -380.932354867     A.U. after   16 cycles
 SCF Done:  E(UM062X) =  -380.933312591     A.U. after   13 cycles
 SCF Done:  E(UM062X) =  -380.933358600     A.U. after   16 cycles
 SCF Done:  E(UM062X) =  -380.933625627     A.U. after   15 cycles
 SCF Done:  E(UM062X) =  -380.933649583     A.U. after   22 cycles
 SCF Done:  E(UM062X) =  -380.933653701     A.U. after   19 cycles
 SCF Done:  E(UM062X) =  -380.933654491     A.U. after   13 cycles
 SCF Done:  E(UM062X) =  -380.933654787     A.U. after   15 cycles
 SCF Done:  E(UM062X) =  -380.933656848     A.U. after   21 cycles
 SCF Done:  E(UM062X) =  -380.933660067     A.U. after   17 cycles
 SCF Done:  E(UM062X) =  -380.933660465     A.U. after   16 cycles
 SCF Done:  E(UM062X) =  -380.933660481     A.U. after   18 cycles
 Optimization completed on the basis of negligible forces.
    -- Stationary point found.

                          Input orientation:
 ---------------------------------------------------------------------
 Center     Atomic      Atomic             Coordinates (Angstroms)
 Number     Number       Type             X           Y           Z
 ---------------------------------------------------------------------
      1          6           0       -2.030452    0.000000    0.000000
      2         15           0        2.030452    0.000000    0.000000
      3          1           0       -2.754942   -0.836757   -0.004551
      4          1           0        1.764843   -1.396150    0.008215
      5          1           0       -2.682035    0.894588    0.003552
 ---------------------------------------------------------------------

 Alpha  occ. eigenvalues --  -78.04445 -10.62427  -6.86700  -4.98711  -4.97940
 Alpha  occ. eigenvalues --   -4.97481  -0.77021  -0.65519  -0.49171  -0.38205
 Alpha  occ. eigenvalues --   -0.32995  -0.24339
 Alpha virt. eigenvalues --   -0.11200  -0.09529   0.01396   0.03798   0.04648
 Alpha virt. eigenvalues --    0.06090   0.06933   0.07395   0.08780   0.10618
 Alpha virt. eigenvalues --    0.13524   0.17292   0.18768   0.31273   0.33346

  Beta  occ. eigenvalues --  -78.04445 -10.62427  -6.86700  -4.98711  -4.97940
  Beta  occ. eigenvalues --   -4.97481  -0.77021  -0.65519  -0.49171  -0.38205
  Beta  occ. eigenvalues --   -0.32995  -0.24339
  Beta virt. eigenvalues --   -0.11200  -0.09529   0.01396   0.03798   0.04648
  Beta virt. eigenvalues --    0.06090   0.06933   0.07395   0.08780   0.10618
  Beta virt. eigenvalues --    0.13524   0.17292   0.18768   0.31273   0.33346

 Mulliken charges and spin densities:
               1          2
     1  C   -0.288194   0.000000
     2  P    0.040300  -0.000000
     3  H    0.140474  -0.000000
     4  H   -0.032920  -0.000000
     5  H    0.140340  -0.000000
 Sum of Mulliken charges =  -0.00000  -0.00000

 Dipole moment (field-independent basis, Debye):
    X=             -2.5913    Y=             -0.5820    Z=              0.0024  Tot=              2.6559
 Quadrupole moment (field-independent basis, Debye-Ang):
   XX=            -12.6051   YY=            -21.3475   ZZ=            -25.3023
   XY=             -2.0528   XZ=              0.0079   YZ=             -0.0290

 Normal termination of Gaussian 16 at Mon Apr 21 19:21:58 2025.
