 Gaussian 16, Revision A.03,
 Gaussian 16:  ES64L-G16RevA.03 25-Dec-2016

 --------------------------------------------
 #p opt UM062X/6-311+G** nosymm int=superfine
 --------------------------------------------

 -------------------
 Title Card Required
 -------------------
 Symbolic Z-matrix:
 Charge =  0 Multiplicity = 1

 SCF Done:  E(UM062X) =  -581.141665782     A.U. after    9 cycles
 SCF Done:  E(UM062X) =  -581.161503343     A.U. after    8 cycles
 SCF Done:  E(UM062X) =  -581.173732241     A.U. after    8 cycles
 SCF Done:  E(UM062X) =  -581.173752233     A.U. after    7 cycles
 Optimization completed.
    -- Stationary point found.

                          Input orientation:
 ---------------------------------------------------------------------
 Center     Atomic      Atomic             Coordinates (Angstroms)
 Number     Number       Type             X           Y           Z
 ---------------------------------------------------------------------
      1         14           0       -2.212518    0.000000    0.000000
      2         14           0        2.212518    0.000000    0.000000
      3          1           0       -3.277216   -1.083448    0.000084
      4          1           0        3.277216    1.083448   -0.000501
      5          1           0       -3.277221    1.083444    0.000310
      6          1           0        3.277221   -1.083444    0.000895
 ---------------------------------------------------------------------

 Alpha  occ. eigenvalues --  -67.01202 -67.01202  -5.55928  -5.55927  -3.87171
 Alpha  occ. eigenvalues --   -3.87171  -3.86630  -3.86630  -3.86491  -3.86491
 Alpha  occ. eigenvalues --   -0.57213  -0.57097  -0.37758  -0.37714  -0.29378
 Alpha  occ. eigenvalues --   -0.26829
 Alpha virt. eigenvalues --   -0.08251  -0.07417   0.02090   0.02346   0.03080
 Alpha virt. eigenvalues --    0.04572   0.05754   0.06102   0.06376   0.06963
 Alpha virt. eigenvalues --    0.08522   0.09203   0.11437   0.14111   0.29033

  Beta  occ. eigenvalues --  -67.01202 -67.01202  -5.55928  -5.55927  -3.87171
  Beta  occ. eigenvalues --   -3.87171  -3.86630  -3.86630  -3.86491  -3.86491
  Beta  occ. eigenvalues --   -0.57213  -0.57097  -0.37758  -0.37714  -0.29378
  Beta  occ. eigenvalues --   -0.26829
  Beta virt. eigenvalues --   -0.08251  -0.07417   0.02090   0.02346   0.03080
  Beta virt. eigenvalues --    0.04572   0.05754   0.06102   0.06376   0.06963
  Beta virt. eigenvalues --    0.08522   0.09203   0.11437   0.14111   0.29033

 Mulliken charges and spin densities:
               1          2
     1  Si   0.321428   0.000000
     2  Si   0.321428  -0.000000
     3  H   -0.160714  -0.000000
     4  H   -0.160714  -0.000000
     5  H   -0.160714  -0.000000
     6  H   -0.160714   0.000000
 Sum of Mulliken charges =  -0.00000  -0.00000

 Dipole moment (field-independent basis, Debye):
    X=              0.0000    Y=              0.0000    Z=              0.0001  Tot=              0.0001
 Quadrupole moment (field-independent basis, Debye-Ang):
   XX=            -35.9239   YY=            -32.7638   ZZ=            -24.3966
   XY=             -0.0000   XZ=              0.0000   YZ=              0.0023

 Normal termination of Gaussian 16 at Mon Apr 21 20:35:06 2025.
