 Gaussian 16, Revision A.03,
 Gaussian 16:  ES64L-G16RevA.03 25-Dec-2016

 --------------------------------------------
 #p opt UM062X/6-311+G** nosymm int=superfine
 --------------------------------------------

 -------------------
 Title Card Required
 -------------------
 Symbolic Z-matrix:
 Charge =  1 Multiplicity = 2

 SCF Done:  E(UM062X) =  -79.3153032882     A.U. after   10 cycles
 SCF Done:  E(UM062X) =  -79.3166753736     A.U. after    9 cycles
 SCF Done:  E(UM062X) =  -79.3166887775     A.U. after    9 cycles
 Optimization completed.
    -- Stationary point found.

                          Input orientation:
 ---------------------------------------------------------------------
 Center     Atomic      Atomic             Coordinates (Angstroms)
 Number     Number       Type             X           Y           Z
 ---------------------------------------------------------------------
      1          6           0       -2.040141    0.000000    0.000000
      2          6           0        2.040141    0.000000    0.000000
      3          1           0        2.065549   -0.937506    0.542611
      4          1           0       -2.063730   -0.938603   -0.540789
      5          1           0        2.064767    0.938697    0.540582
      6          1           0        2.063725   -0.001169   -1.083249
      7          1           0       -2.065605    0.937612   -0.542426
      8          1           0       -2.064706    0.000948    1.083228
 ---------------------------------------------------------------------

 Alpha  occ. eigenvalues --  -10.83330 -10.83329  -1.01911  -1.01626  -0.72985
 Alpha  occ. eigenvalues --   -0.72984  -0.72895  -0.72895  -0.47024
 Alpha virt. eigenvalues --   -0.37709  -0.12617  -0.10125  -0.09304  -0.09304
 Alpha virt. eigenvalues --   -0.06209  -0.06209  -0.04393  -0.02818   0.00142
 Alpha virt. eigenvalues --    0.00145   0.01415   0.01417   0.02538   0.08868

  Beta  occ. eigenvalues --  -10.83107 -10.83107  -0.99254  -0.99086  -0.72456
  Beta  occ. eigenvalues --   -0.72455  -0.72352  -0.72351
  Beta virt. eigenvalues --   -0.32341  -0.26668  -0.16853  -0.10724  -0.10723
  Beta virt. eigenvalues --   -0.10233  -0.06186  -0.06185  -0.05425  -0.01859
  Beta virt. eigenvalues --   -0.00048  -0.00045   0.01670   0.01672   0.02331

 Mulliken charges and spin densities:
               1          2
     1  C   -0.246000   0.557308
     2  C   -0.245999   0.557309
     3  H    0.248683  -0.019104
     4  H    0.248646  -0.019104
     5  H    0.248667  -0.019106
     6  H    0.248649  -0.019099
     7  H    0.248685  -0.019104
     8  H    0.248669  -0.019101
 Sum of Mulliken charges =   1.00000   1.00000

 Dipole moment (field-independent basis, Debye):
    X=              0.0000    Y=             -0.0000    Z=             -0.0001  Tot=              0.0001
 Quadrupole moment (field-independent basis, Debye-Ang):
   XX=              8.5222   YY=            -11.1179   ZZ=            -11.1180
   XY=             -0.0020   XZ=              0.0011   YZ=              0.0000

 Normal termination of Gaussian 16 at Sat Nov 16 16:08:11 2024.
