 Gaussian 16, Revision A.03,
 Gaussian 16:  ES64L-G16RevA.03 25-Dec-2016

 --------------------------------------------
 #p opt UM062X/6-311+G** nosymm int=superfine
 --------------------------------------------

 -------------------
 Title Card Required
 -------------------
 Symbolic Z-matrix:
 Charge =  0 Multiplicity = 1

 SCF Done:  E(UM062X) =  -581.137681090     A.U. after    9 cycles
 SCF Done:  E(UM062X) =  -581.158006668     A.U. after    8 cycles
 SCF Done:  E(UM062X) =  -581.170982846     A.U. after    9 cycles
 SCF Done:  E(UM062X) =  -581.171002894     A.U. after    8 cycles
 Optimization completed.
    -- Stationary point found.

                          Input orientation:
 ---------------------------------------------------------------------
 Center     Atomic      Atomic             Coordinates (Angstroms)
 Number     Number       Type             X           Y           Z
 ---------------------------------------------------------------------
      1         14           0       -1.962518    0.000000    0.000000
      2         14           0        1.962518    0.000000    0.000000
      3          1           0       -3.032465   -1.080873    0.000352
      4          1           0        3.032465    1.080873   -0.000230
      5          1           0       -3.032471    1.080867    0.000596
      6          1           0        3.032471   -1.080867    0.001178
 ---------------------------------------------------------------------

 Alpha  occ. eigenvalues --  -67.00995 -67.00995  -5.55737  -5.55735  -3.86969
 Alpha  occ. eigenvalues --   -3.86969  -3.86432  -3.86432  -3.86301  -3.86301
 Alpha  occ. eigenvalues --   -0.57135  -0.56852  -0.37551  -0.37444  -0.30372
 Alpha  occ. eigenvalues --   -0.25774
 Alpha virt. eigenvalues --   -0.08540  -0.07085   0.02099   0.02122   0.03214
 Alpha virt. eigenvalues --    0.04557   0.05928   0.06187   0.06345   0.06345
 Alpha virt. eigenvalues --    0.09494   0.09561   0.11855   0.14243   0.28414

  Beta  occ. eigenvalues --  -67.00995 -67.00995  -5.55737  -5.55735  -3.86969
  Beta  occ. eigenvalues --   -3.86969  -3.86432  -3.86432  -3.86301  -3.86301
  Beta  occ. eigenvalues --   -0.57135  -0.56852  -0.37551  -0.37444  -0.30372
  Beta  occ. eigenvalues --   -0.25774
  Beta virt. eigenvalues --   -0.08540  -0.07085   0.02099   0.02122   0.03214
  Beta virt. eigenvalues --    0.04557   0.05928   0.06187   0.06345   0.06345
  Beta virt. eigenvalues --    0.09494   0.09561   0.11855   0.14243   0.28414

 Mulliken charges and spin densities:
               1          2
     1  Si   0.318676  -0.000000
     2  Si   0.318676  -0.000000
     3  H   -0.159338  -0.000000
     4  H   -0.159338   0.000000
     5  H   -0.159338   0.000000
     6  H   -0.159338   0.000000
 Sum of Mulliken charges =  -0.00000  -0.00000

 Dipole moment (field-independent basis, Debye):
    X=              0.0000    Y=              0.0000    Z=              0.0001  Tot=              0.0001
 Quadrupole moment (field-independent basis, Debye-Ang):
   XX=            -37.2096   YY=            -32.8387   ZZ=            -24.4057
   XY=             -0.0000   XZ=              0.0000   YZ=              0.0023

 Normal termination of Gaussian 16 at Mon Apr 21 20:28:46 2025.
