 Gaussian 16, Revision A.03,
 Gaussian 16:  ES64L-G16RevA.03 25-Dec-2016

 --------------------------------------------
 #p opt UM062X/6-311+G** nosymm int=superfine
 --------------------------------------------

 -------------------
 Title Card Required
 -------------------
 Symbolic Z-matrix:
 Charge = -1 Multiplicity = 2

 SCF Done:  E(UM062X) =  -50.5945762075     A.U. after   14 cycles

 Alpha  occ. eigenvalues --   -6.93158  -6.93146  -0.37151  -0.35285  -0.16284
 Alpha  occ. eigenvalues --   -0.01588  -0.00404
 Alpha virt. eigenvalues --    0.13482   0.13532   0.14187   0.15247   0.16724
 Alpha virt. eigenvalues --    0.20217   0.21347   0.21476   0.22092   0.22871
 Alpha virt. eigenvalues --    0.25904   0.37238   0.40079   0.55076   0.58077

  Beta  occ. eigenvalues --   -6.93106  -6.93099  -0.35590  -0.34352  -0.14914
  Beta  occ. eigenvalues --    0.01193
  Beta virt. eigenvalues --    0.10337   0.13629   0.13959   0.14377   0.14991
  Beta virt. eigenvalues --    0.17668   0.19166   0.20366   0.20532   0.23336
  Beta virt. eigenvalues --    0.23657   0.24180   0.37396   0.40103   0.54419

 Mulliken charges and spin densities:
               1          2
     1  B   -0.526216   0.526737
     2  B   -0.526217   0.526737
     3  H    0.026217  -0.026737
     4  H    0.026217  -0.026737
 Sum of Mulliken charges =  -1.00000   1.00000

 Dipole moment (field-independent basis, Debye):
    X=             -0.0000    Y=              0.0000    Z=             -0.0000  Tot=              0.0000
 Quadrupole moment (field-independent basis, Debye-Ang):
   XX=            -24.1577   YY=            -31.3132   ZZ=            -23.9921
   XY=              0.0096   XZ=              0.0000   YZ=             -0.0000

 Optimization completed.
    -- Stationary point found.

                          Input orientation:
 ---------------------------------------------------------------------
 Center     Atomic      Atomic             Coordinates (Angstroms)
 Number     Number       Type             X           Y           Z
 ---------------------------------------------------------------------
      1          5           0       -1.191404    0.000000    0.000000
      2          5           0        1.191404    0.000000    0.000000
      3          1           0       -2.375183   -0.000904    0.000000
      4          1           0        2.375183    0.000904    0.000000
 ---------------------------------------------------------------------

 Normal termination of Gaussian 16 at Mon Apr 21 17:25:54 2025.
