 Gaussian 16, Revision A.03,
 Gaussian 16:  ES64L-G16RevA.03 25-Dec-2016

 --------------------------------------------
 #p opt UM062X/6-311+G** nosymm int=superfine
 --------------------------------------------

 -------------------
 Title Card Required
 -------------------
 Symbolic Z-matrix:
 Charge =  0 Multiplicity = 1

 SCF Done:  E(UM062X) =  -94.2606678356     A.U. after   32 cycles
 SCF Done:  E(UM062X) =  -94.2607129527     A.U. after  108 cycles
 SCF Done:  E(UM062X) =  -94.2607486773     A.U. after   51 cycles
 SCF Done:  E(UM062X) =  -94.2607584052     A.U. after   14 cycles
 SCF Done:  E(UM062X) =  -94.2607588735     A.U. after   30 cycles
 SCF Done:  E(UM062X) =  -94.2607631445     A.U. after   11 cycles
 SCF Done:  E(UM062X) =  -94.2607678211     A.U. after   13 cycles
 SCF Done:  E(UM062X) =  -94.2607750953     A.U. after   24 cycles
 SCF Done:  E(UM062X) =  -94.2607786887     A.U. after   11 cycles
 SCF Done:  E(UM062X) =  -94.2607825057     A.U. after    9 cycles
 SCF Done:  E(UM062X) =  -94.2607832479     A.U. after   13 cycles
 SCF Done:  E(UM062X) =  -94.2607834097     A.U. after   26 cycles
 SCF Done:  E(UM062X) =  -94.2607833955     A.U. after    8 cycles
 SCF Done:  E(UM062X) =  -94.2607835264     A.U. after   10 cycles
 SCF Done:  E(UM062X) =  -94.2607836151     A.U. after   11 cycles
 SCF Done:  E(UM062X) =  -94.2607836979     A.U. after   10 cycles
 Optimization completed.
    -- Stationary point found.

                          Input orientation:
 ---------------------------------------------------------------------
 Center     Atomic      Atomic             Coordinates (Angstroms)
 Number     Number       Type             X           Y           Z
 ---------------------------------------------------------------------
      1          6           0       -1.806461   -0.000000    0.000000
      2          7           0        1.806461   -0.000000    0.000000
      3          1           0       -2.495514   -0.862875   -0.067051
      4          1           0        0.764326   -0.000077   -0.000233
      5          1           0       -2.494928    0.863313    0.067394
 ---------------------------------------------------------------------

 Alpha  occ. eigenvalues --  -14.80904 -10.62969  -0.87302  -0.77652  -0.49792
 Alpha  occ. eigenvalues --   -0.44461  -0.33788  -0.31897
 Alpha virt. eigenvalues --   -0.10884  -0.10239   0.01104   0.05275   0.06718
 Alpha virt. eigenvalues --    0.07375   0.13597   0.14045   0.15866   0.17609
 Alpha virt. eigenvalues --    0.17990   0.18471   0.23300   0.42790   0.46695

  Beta  occ. eigenvalues --  -14.80904 -10.62969  -0.87302  -0.77652  -0.49792
  Beta  occ. eigenvalues --   -0.44461  -0.33788  -0.31897
  Beta virt. eigenvalues --   -0.10884  -0.10239   0.01104   0.05275   0.06718
  Beta virt. eigenvalues --    0.07375   0.13597   0.14045   0.15866   0.17609
  Beta virt. eigenvalues --    0.17990   0.18471   0.23300   0.42790   0.46695

 Mulliken charges and spin densities:
               1          2
     1  C   -0.314443   0.000000
     2  N   -0.255706  -0.000000
     3  H    0.147943   0.000000
     4  H    0.274277   0.000000
     5  H    0.147929  -0.000000
 Sum of Mulliken charges =  -0.00000  -0.00000

 Dipole moment (field-independent basis, Debye):
    X=             -4.2216    Y=              0.0005    Z=              0.0001  Tot=              4.2216
 Quadrupole moment (field-independent basis, Debye-Ang):
   XX=            -13.7522   YY=            -12.2321   ZZ=            -14.9036
   XY=             -0.0009   XZ=             -0.0005   YZ=              0.2004

 Normal termination of Gaussian 16 at Mon Apr 21 21:10:10 2025.
