 Gaussian 16, Revision A.03,
 Gaussian 16:  ES64L-G16RevA.03 25-Dec-2016

 --------------------------------------------
 #p opt UM062X/6-311+G** nosymm int=superfine
 --------------------------------------------

 -------------------
 Title Card Required
 -------------------
 Symbolic Z-matrix:
 Charge =  1 Multiplicity = 2

 SCF Done:  E(UM062X) =  -579.676871380     A.U. after   14 cycles
 SCF Done:  E(UM062X) =  -579.678180982     A.U. after   12 cycles
 SCF Done:  E(UM062X) =  -579.680269909     A.U. after   14 cycles
 SCF Done:  E(UM062X) =  -579.681574206     A.U. after   14 cycles
 SCF Done:  E(UM062X) =  -579.682070923     A.U. after   14 cycles
 SCF Done:  E(UM062X) =  -579.682288968     A.U. after   13 cycles
 SCF Done:  E(UM062X) =  -579.682317456     A.U. after   12 cycles
 SCF Done:  E(UM062X) =  -579.682323065     A.U. after   12 cycles
 SCF Done:  E(UM062X) =  -579.682330022     A.U. after   12 cycles
 SCF Done:  E(UM062X) =  -579.682337715     A.U. after   12 cycles
 SCF Done:  E(UM062X) =  -579.682344550     A.U. after   12 cycles
 SCF Done:  E(UM062X) =  -579.682344804     A.U. after    9 cycles
 Optimization completed.
    -- Stationary point found.

                          Input orientation:
 ---------------------------------------------------------------------
 Center     Atomic      Atomic             Coordinates (Angstroms)
 Number     Number       Type             X           Y           Z
 ---------------------------------------------------------------------
      1         14           0       -2.152975    0.000000    0.000000
      2         14           0        2.152975    0.000000    0.000000
      3          1           0       -2.240572   -1.505755    0.000000
      4          1           0        2.240675    1.505759    0.000000
 ---------------------------------------------------------------------

 Alpha  occ. eigenvalues --  -67.26496 -67.26496  -5.80662  -5.80661  -4.11758
 Alpha  occ. eigenvalues --   -4.11758  -4.11676  -4.11676  -4.11026  -4.11026
 Alpha  occ. eigenvalues --   -0.75618  -0.75005  -0.52243  -0.52063  -0.40493
 Alpha virt. eigenvalues --   -0.29125  -0.27570  -0.26668  -0.10809  -0.09489
 Alpha virt. eigenvalues --   -0.08534  -0.08179  -0.07712  -0.06670  -0.05588
 Alpha virt. eigenvalues --   -0.05511  -0.04905  -0.02598   0.12818   0.13697

  Beta  occ. eigenvalues --  -67.26244 -67.26244  -5.80591  -5.80588  -4.11615
  Beta  occ. eigenvalues --   -4.11615  -4.11084  -4.11083  -4.10921  -4.10921
  Beta  occ. eigenvalues --   -0.73738  -0.73399  -0.51615  -0.51369
  Beta virt. eigenvalues --   -0.27846  -0.27389  -0.26255  -0.23576  -0.13843
  Beta virt. eigenvalues --   -0.10672  -0.09068  -0.08386  -0.08376  -0.06632
  Beta virt. eigenvalues --   -0.05482  -0.05409  -0.05191  -0.02689   0.10853

 Mulliken charges and spin densities:
               1          2
     1  Si   0.581816   0.508989
     2  Si   0.581810   0.508994
     3  H   -0.081814  -0.008992
     4  H   -0.081812  -0.008991
 Sum of Mulliken charges =   1.00000   1.00000

 Dipole moment (field-independent basis, Debye):
    X=              0.0000    Y=             -0.0000    Z=              0.0000  Tot=              0.0000
 Quadrupole moment (field-independent basis, Debye-Ang):
   XX=              3.1265   YY=            -27.7414   ZZ=            -19.9637
   XY=              2.3410   XZ=             -0.0000   YZ=              0.0000

 Normal termination of Gaussian 16 at Mon Apr 21 20:43:22 2025.
