 Gaussian 16, Revision A.03,
 Gaussian 16:  ES64L-G16RevA.03 25-Dec-2016

 --------------------------------
 #p UM062X/6-311+G** Pop=NBO Read
 --------------------------------

 ------------
 NBO Analysis
 ------------
 Symbolic Z-matrix:
 Charge =  0 Multiplicity = 1

                         Standard orientation:
 ---------------------------------------------------------------------
 Center     Atomic      Atomic             Coordinates (Angstroms)
 Number     Number       Type             X           Y           Z
 ---------------------------------------------------------------------
      1          5           0       -0.000000    0.870607   -0.000001
      2          5           0       -0.000000   -0.870607   -0.000001
      3          1           0        1.013133    1.498584    0.002609
      4          1           0       -1.013133   -1.498584    0.002609
      5          1           0       -1.013129    1.498587   -0.002605
      6          1           0        1.013129   -1.498587   -0.002605
 ---------------------------------------------------------------------

 SCF Done:  E(UM062X) =  -51.9811648094     A.U. after    8 cycles

 The electronic state is 1-A.
 Alpha  occ. eigenvalues --   -7.05808  -7.05769  -0.61201  -0.53026  -0.43242
 Alpha  occ. eigenvalues --   -0.37732  -0.35602
 Alpha virt. eigenvalues --   -0.08972   0.02301   0.02945   0.03196   0.04677
 Alpha virt. eigenvalues --    0.05785   0.06793   0.07123   0.11120   0.12199
 Alpha virt. eigenvalues --    0.20367   0.22021   0.25867   0.26984   0.38419

  Beta  occ. eigenvalues --   -7.05808  -7.05769  -0.61201  -0.53026  -0.43242
  Beta  occ. eigenvalues --   -0.37732  -0.35602
  Beta virt. eigenvalues --   -0.08972   0.02301   0.02945   0.03196   0.04677
  Beta virt. eigenvalues --    0.05785   0.06793   0.07123   0.11120   0.12199
  Beta virt. eigenvalues --    0.20367   0.22021   0.25867   0.26984   0.38419

 Mulliken charges and spin densities:
               1          2
     1  B    0.036623  -0.000000
     2  B    0.036623  -0.000000
     3  H   -0.018312   0.000000
     4  H   -0.018312   0.000000
     5  H   -0.018312   0.000000
     6  H   -0.018312   0.000000
 Sum of Mulliken charges =   0.00000   0.00000

 Dipole moment (field-independent basis, Debye):
    X=             -0.0000    Y=              0.0000    Z=             -0.0000  Tot=              0.0000
 Quadrupole moment (field-independent basis, Debye-Ang):
   XX=            -16.8976   YY=            -17.8675   ZZ=            -12.3928
   XY=             -0.0000   XZ=              0.0000   YZ=              0.0000

 Summary of Natural Population Analysis:

                                       Natural Population
                Natural  -----------------------------------------------
    Atom  No    Charge         Core      Valence    Rydberg      Total
 -----------------------------------------------------------------------
      B    1    0.09416      0.99985     1.40365    0.00234     2.40584
      B    2    0.09416      0.99985     1.40365    0.00234     2.40584
      H    3   -0.04708      0.00000     0.54670    0.00038     0.54708
      H    4   -0.04708      0.00000     0.54670    0.00038     0.54708
      H    5   -0.04708      0.00000     0.54670    0.00038     0.54708
      H    6   -0.04708      0.00000     0.54670    0.00038     0.54708
 =======================================================================
   * Total *    0.00000      1.99970     4.99408    0.00622     7.00000

 Normal termination of Gaussian 16 at Tue Apr 15 23:56:31 2025.
