 Gaussian 16, Revision A.03,
 Gaussian 16:  ES64L-G16RevA.03 25-Dec-2016

 --------------------------------------------
 #p opt UM062X/6-311+G** nosymm int=superfine
 --------------------------------------------

 -------------------
 Title Card Required
 -------------------
 Symbolic Z-matrix:
 Charge =  0 Multiplicity = 1

 SCF Done:  E(UM062X) =  -382.217956333     A.U. after   18 cycles
 SCF Done:  E(UM062X) =  -382.228656551     A.U. after   13 cycles
 SCF Done:  E(UM062X) =  -382.235521998     A.U. after   14 cycles
 SCF Done:  E(UM062X) =  -382.235644250     A.U. after   12 cycles
 SCF Done:  E(UM062X) =  -382.235697932     A.U. after   12 cycles
 SCF Done:  E(UM062X) =  -382.235781555     A.U. after   11 cycles
 SCF Done:  E(UM062X) =  -382.235827178     A.U. after   11 cycles
 SCF Done:  E(UM062X) =  -382.235835682     A.U. after   11 cycles
 SCF Done:  E(UM062X) =  -382.235836313     A.U. after   10 cycles
 SCF Done:  E(UM062X) =  -382.235836733     A.U. after   10 cycles
 SCF Done:  E(UM062X) =  -382.235837668     A.U. after   10 cycles
 SCF Done:  E(UM062X) =  -382.235838331     A.U. after   10 cycles
 SCF Done:  E(UM062X) =  -382.235838604     A.U. after   10 cycles
 SCF Done:  E(UM062X) =  -382.235838719     A.U. after   10 cycles
 Optimization completed.
    -- Stationary point found.

                          Input orientation:
 ---------------------------------------------------------------------
 Center     Atomic      Atomic             Coordinates (Angstroms)
 Number     Number       Type             X           Y           Z
 ---------------------------------------------------------------------
      1          6           0       -2.306264    0.000000    0.000000
      2         15           0        2.306264    0.000000    0.000000
      3          1           0        2.218171   -1.416789    0.019430
      4          1           0       -2.316063    1.054811    0.232611
      5          1           0        2.216923    0.070049    1.415081
      6          1           0       -2.316323   -0.324386   -1.030295
      7          1           0       -2.360088   -0.728626    0.795719
 ---------------------------------------------------------------------

 Alpha  occ. eigenvalues --  -78.02909 -10.59815  -6.85348  -4.96868  -4.96797
 Alpha  occ. eigenvalues --   -4.96615  -0.79282  -0.69355  -0.51500  -0.51459
 Alpha  occ. eigenvalues --   -0.43524  -0.34619  -0.22394
 Alpha virt. eigenvalues --   -0.14302   0.02071   0.03727   0.03979   0.04481
 Alpha virt. eigenvalues --    0.06067   0.06511   0.07207   0.07336   0.10827
 Alpha virt. eigenvalues --    0.16102   0.17923   0.17959   0.22431   0.30608

  Beta  occ. eigenvalues --  -78.02909 -10.59815  -6.85348  -4.96868  -4.96797
  Beta  occ. eigenvalues --   -4.96615  -0.79282  -0.69355  -0.51500  -0.51459
  Beta  occ. eigenvalues --   -0.43524  -0.34619  -0.22394
  Beta virt. eigenvalues --   -0.14302   0.02071   0.03727   0.03979   0.04481
  Beta virt. eigenvalues --    0.06067   0.06511   0.07207   0.07336   0.10827
  Beta virt. eigenvalues --    0.16102   0.17923   0.17959   0.22431   0.30608

 Mulliken charges and spin densities:
               1          2
     1  C   -0.478581   0.000000
     2  P   -0.045423  -0.000000
     3  H   -0.011630   0.000000
     4  H    0.183184  -0.000000
     5  H   -0.011631   0.000000
     6  H    0.183144  -0.000000
     7  H    0.180937  -0.000000
 Sum of Mulliken charges =  -0.00000  -0.00000

 Dipole moment (field-independent basis, Debye):
    X=             -1.9003    Y=             -0.5841    Z=              0.6223  Tot=              2.0832
 Quadrupole moment (field-independent basis, Debye-Ang):
   XX=            -22.8229   YY=            -22.4375   ZZ=            -22.5267
   XY=             -1.4095   XZ=              1.4995   YZ=              0.7051

 Normal termination of Gaussian 16 at Mon Apr 21 19:11:35 2025.
