 Gaussian 16, Revision A.03,
 Gaussian 16:  ES64L-G16RevA.03 25-Dec-2016

 --------------------------------------------
 #p opt UM062X/6-311+G** nosymm int=superfine
 --------------------------------------------

 -------------------
 Title Card Required
 -------------------
 Symbolic Z-matrix:
 Charge =  1 Multiplicity = 2

 SCF Done:  E(UM062X) =  -80.1618313598     A.U. after   20 cycles
 SCF Done:  E(UM062X) =  -80.1626343093     A.U. after   10 cycles
 SCF Done:  E(UM062X) =  -80.1626368079     A.U. after    8 cycles
 Optimization completed.
    -- Stationary point found.

                          Input orientation:
 ---------------------------------------------------------------------
 Center     Atomic      Atomic             Coordinates (Angstroms)
 Number     Number       Type             X           Y           Z
 ---------------------------------------------------------------------
      1          5           0       -1.577734    0.000000    0.000000
      2          7           0        1.577734    0.000000    0.000000
      3          1           0       -2.781920   -0.000309    0.000000
      4          1           0        2.613472   -0.000075   -0.000000
 ---------------------------------------------------------------------

 Alpha  occ. eigenvalues --  -14.97897  -7.52764  -1.10753  -0.85465  -0.64933
 Alpha  occ. eigenvalues --   -0.57304  -0.57304
 Alpha virt. eigenvalues --   -0.41793  -0.33600  -0.33600  -0.14771  -0.11047
 Alpha virt. eigenvalues --   -0.09778  -0.09778  -0.06664  -0.01810   0.00344
 Alpha virt. eigenvalues --    0.00344   0.04887   0.08050   0.13601   0.13601

  Beta  occ. eigenvalues --  -14.95473  -7.54014  -0.98003  -0.89028  -0.67730
  Beta  occ. eigenvalues --   -0.58919
  Beta virt. eigenvalues --   -0.35368  -0.35368  -0.21892  -0.21892  -0.14338
  Beta virt. eigenvalues --   -0.10739  -0.09428  -0.09428  -0.07176  -0.01782
  Beta virt. eigenvalues --    0.02133   0.02133   0.05396   0.09015   0.16347

 Mulliken charges and spin densities:
               1          2
     1  B    0.731679  -0.831141
     2  N   -0.243503   2.045716
     3  H    0.220792  -0.142562
     4  H    0.291031  -0.072013
 Sum of Mulliken charges =   1.00000   1.00000

 Dipole moment (field-independent basis, Debye):
    X=             -5.7018    Y=             -0.0004    Z=             -0.0000  Tot=              5.7018
 Quadrupole moment (field-independent basis, Debye-Ang):
   XX=             12.2599   YY=            -10.2776   ZZ=            -10.2776
   XY=              0.0001   XZ=             -0.0000   YZ=              0.0000

 Normal termination of Gaussian 16 at Mon Apr 21 17:58:40 2025.
