 Gaussian 16, Revision A.03,
 Gaussian 16:  ES64L-G16RevA.03 25-Dec-2016

 ---------------------------------------
 #p UM062X/6-311+G** force int=superfine
 ---------------------------------------

 -------------------
 Title Card Required
 -------------------
 Symbolic Z-matrix:
 Charge =  1 Multiplicity = 2

                         Standard orientation:
 ---------------------------------------------------------------------
 Center     Atomic      Atomic             Coordinates (Angstroms)
 Number     Number       Type             X           Y           Z
 ---------------------------------------------------------------------
      1          6           0       -0.000000    0.551376    0.000000
      2          6           0       -0.000000   -0.551376    0.000000
      3          1           0       -0.843742    1.307473    0.000000
      4          1           0        0.857218    1.295671    0.000000
      5          1           0        0.843742   -1.307473    0.000000
      6          1           0       -0.857218   -1.295671    0.000000
 ---------------------------------------------------------------------

 SCF Done:  E(UM062X) =  -78.0530973430     A.U. after   10 cycles

 The electronic state is 2-AG.
 Alpha  occ. eigenvalues --  -10.82767 -10.82201  -1.21995  -0.97533  -0.86137
 Alpha  occ. eigenvalues --   -0.85384  -0.68187  -0.67722
 Alpha virt. eigenvalues --   -0.18950  -0.15842  -0.15106  -0.13804  -0.10218
 Alpha virt. eigenvalues --   -0.08680  -0.07413  -0.06897  -0.03184  -0.02974
 Alpha virt. eigenvalues --   -0.00291   0.02189   0.12085   0.16365   0.20652

  Beta  occ. eigenvalues --  -10.82759 -10.82178  -1.20721  -0.92753  -0.83166
  Beta  occ. eigenvalues --   -0.79779  -0.67805
  Beta virt. eigenvalues --   -0.46955  -0.18592  -0.15022  -0.14919  -0.13603
  Beta virt. eigenvalues --   -0.10069  -0.08581  -0.05360  -0.05355  -0.02711
  Beta virt. eigenvalues --   -0.02568   0.00082   0.02910   0.12470   0.16368

 Mulliken charges and spin densities:
               1          2
     1  C   -0.159697   0.122008
     2  C   -0.159697   0.122008
     3  H    0.329683   0.186177
     4  H    0.330014   0.191815
     5  H    0.329683   0.186177
     6  H    0.330014   0.191815
 Sum of Mulliken charges =   1.00000   1.00000

 Dipole moment (field-independent basis, Debye):
    X=              0.0000    Y=              0.0000    Z=              0.0000  Tot=              0.0000
 Quadrupole moment (field-independent basis, Debye-Ang):
   XX=             -7.4341   YY=             -2.2289   ZZ=            -12.8986
   XY=              0.0338   XZ=              0.0000   YZ=              0.0000

 Normal termination of Gaussian 16 at Tue Nov 19 11:52:51 2024.
