 Gaussian 16, Revision A.03,
 Gaussian 16:  ES64L-G16RevA.03 25-Dec-2016

 --------------------------------------------
 #p opt UM062X/6-311+G** nosymm int=superfine
 --------------------------------------------

 -------------------
 Title Card Required
 -------------------
 Symbolic Z-matrix:
 Charge =  0 Multiplicity = 1

 SCF Done:  E(UM062X) =  -79.5929020535     A.U. after   10 cycles
 SCF Done:  E(UM062X) =  -79.5957320858     A.U. after    9 cycles
 SCF Done:  E(UM062X) =  -79.5967067091     A.U. after    9 cycles
 SCF Done:  E(UM062X) =  -79.5967096348     A.U. after    7 cycles
 Optimization completed.
    -- Stationary point found.

                          Input orientation:
 ---------------------------------------------------------------------
 Center     Atomic      Atomic             Coordinates (Angstroms)
 Number     Number       Type             X           Y           Z
 ---------------------------------------------------------------------
      1          6           0       -1.721675    0.000000    0.000000
      2          6           0        1.721800    0.000000    0.000000
      3          1           0        1.810906   -0.931699    0.539123
      4          1           0       -1.810770   -0.932750   -0.537304
      5          1           0        1.810898    0.932751    0.537304
      6          1           0        1.810893   -0.001050   -1.076439
      7          1           0       -1.810781    0.931699   -0.539123
      8          1           0       -1.810771    0.001049    1.076439
 ---------------------------------------------------------------------

 Alpha  occ. eigenvalues --  -10.57095 -10.57093  -0.76996  -0.76347  -0.48991
 Alpha  occ. eigenvalues --   -0.48991  -0.48677  -0.48677  -0.22946
 Alpha virt. eigenvalues --   -0.09601   0.03045   0.05311   0.05344   0.05344
 Alpha virt. eigenvalues --    0.07633   0.07633   0.11339   0.12469   0.18502
 Alpha virt. eigenvalues --    0.18502   0.20746   0.20747   0.23443   0.25015

  Beta  occ. eigenvalues --  -10.57095 -10.57093  -0.76996  -0.76347  -0.48991
  Beta  occ. eigenvalues --   -0.48991  -0.48677  -0.48677  -0.22946
  Beta virt. eigenvalues --   -0.09601   0.03045   0.05311   0.05344   0.05344
  Beta virt. eigenvalues --    0.07633   0.07633   0.11339   0.12469   0.18502
  Beta virt. eigenvalues --    0.18502   0.20746   0.20747   0.23443   0.25015

 Mulliken charges and spin densities:
               1          2
     1  C   -0.526502  -0.000000
     2  C   -0.526503   0.000000
     3  H    0.175501  -0.000000
     4  H    0.175501   0.000000
     5  H    0.175501  -0.000000
     6  H    0.175501  -0.000000
     7  H    0.175500   0.000000
     8  H    0.175501   0.000000
 Sum of Mulliken charges =  -0.00000  -0.00000

 Dipole moment (field-independent basis, Debye):
    X=             -0.0000    Y=             -0.0000    Z=             -0.0000  Tot=              0.0000
 Quadrupole moment (field-independent basis, Debye-Ang):
   XX=            -15.4297   YY=            -14.8349   ZZ=            -14.8350
   XY=             -0.0000   XZ=              0.0000   YZ=              0.0000

 Normal termination of Gaussian 16 at Tue Dec  3 10:03:48 2024.
