 Gaussian 16, Revision A.03,
 Gaussian 16:  ES64L-G16RevA.03 25-Dec-2016

 ---------------------------------------------------------
 #p opt UM062X/6-311+G** nosymm int=superfine SCF=NoVarAcc
 ---------------------------------------------------------

 -------------------
 Title Card Required
 -------------------
 Symbolic Z-matrix:
 Charge =  1 Multiplicity = 2

 SCF Done:  E(UM062X) =  -76.5850050975     A.U. after   32 cycles
 SCF Done:  E(UM062X) =  -76.5853615255     A.U. after   10 cycles
 Optimization completed.
    -- Stationary point found.

                          Input orientation:
 ---------------------------------------------------------------------
 Center     Atomic      Atomic             Coordinates (Angstroms)
 Number     Number       Type             X           Y           Z
 ---------------------------------------------------------------------
      1          6           0       -8.882160    0.000000    0.000000
      2          6           0        8.882160    0.000000    0.000000
      3          1           0      -10.000229   -0.000000   -0.000000
      4          1           0       10.000228   -0.000000   -0.000000
 ---------------------------------------------------------------------

 Alpha  occ. eigenvalues --  -10.90583 -10.90583  -0.94385  -0.94384  -0.59387
 Alpha  occ. eigenvalues --   -0.59387  -0.41318
 Alpha virt. eigenvalues --   -0.39717  -0.29315  -0.29315  -0.08382  -0.08382
 Alpha virt. eigenvalues --   -0.03025  -0.03025  -0.02858  -0.02858  -0.02717
 Alpha virt. eigenvalues --   -0.02717   0.03052   0.03052   0.31313   0.31313

  Beta  occ. eigenvalues --  -10.90169 -10.90169  -0.92025  -0.92025  -0.57994
  Beta  occ. eigenvalues --   -0.57994
  Beta virt. eigenvalues --   -0.27433  -0.27433  -0.25801  -0.25801  -0.08578
  Beta virt. eigenvalues --   -0.08578  -0.02735  -0.02735  -0.02228  -0.02228
  Beta virt. eigenvalues --   -0.01301  -0.01301   0.04855   0.04855   0.30657

 Mulliken charges and spin densities:
               1          2
     1  C    0.299830   0.515417
     2  C    0.299830   0.515417
     3  H    0.200170  -0.015417
     4  H    0.200170  -0.015417
 Sum of Mulliken charges =   1.00000   1.00000

 Dipole moment (field-independent basis, Debye):
    X=             -0.0000    Y=              0.0000    Z=             -0.0000  Tot=              0.0000
 Quadrupole moment (field-independent basis, Debye-Ang):
   XX=            436.9621   YY=            -10.4652   ZZ=            -10.4467
   XY=              0.0000   XZ=              0.0000   YZ=             -0.9906

 Normal termination of Gaussian 16 at Tue Dec  3 17:45:42 2024.
