 Gaussian 16, Revision A.03,
 Gaussian 16:  ES64L-G16RevA.03 25-Dec-2016

 --------------------------------------------
 #p opt UM062X/6-311+G** nosymm int=superfine
 --------------------------------------------

 -------------------
 Title Card Required
 -------------------
 Symbolic Z-matrix:
 Charge =  0 Multiplicity = 1

 SCF Done:  E(UM062X) =  -111.622005530     A.U. after   16 cycles
 SCF Done:  E(UM062X) =  -111.628536210     A.U. after   14 cycles
 SCF Done:  E(UM062X) =  -111.633311631     A.U. after   15 cycles
 SCF Done:  E(UM062X) =  -111.635753466     A.U. after   15 cycles
 SCF Done:  E(UM062X) =  -111.637791397     A.U. after   15 cycles
 SCF Done:  E(UM062X) =  -111.638231538     A.U. after   15 cycles
 SCF Done:  E(UM062X) =  -111.638780574     A.U. after   16 cycles
 SCF Done:  E(UM062X) =  -111.639112965     A.U. after   16 cycles
 SCF Done:  E(UM062X) =  -111.639189325     A.U. after   15 cycles
 SCF Done:  E(UM062X) =  -111.639216572     A.U. after   14 cycles
 SCF Done:  E(UM062X) =  -111.639265054     A.U. after   15 cycles
 SCF Done:  E(UM062X) =  -111.639304970     A.U. after   15 cycles
 SCF Done:  E(UM062X) =  -111.639307291     A.U. after   12 cycles
 SCF Done:  E(UM062X) =  -111.639307710     A.U. after   12 cycles
 SCF Done:  E(UM062X) =  -111.639307722     A.U. after    9 cycles
 Optimization completed.
    -- Stationary point found.

                          Input orientation:
 ---------------------------------------------------------------------
 Center     Atomic      Atomic             Coordinates (Angstroms)
 Number     Number       Type             X           Y           Z
 ---------------------------------------------------------------------
      1          7           0       -1.761540    0.000000    0.000000
      2          7           0        1.761540    0.000000    0.000000
      3          1           0       -1.650528   -0.812830   -0.619019
      4          1           0        1.650263    0.405835   -0.937617
      5          1           0       -1.650226   -0.405915    0.937575
      6          1           0        1.650522    0.812888    0.618947
 ---------------------------------------------------------------------

 Alpha  occ. eigenvalues --  -14.80560 -14.80559  -0.95224  -0.94821  -0.55307
 Alpha  occ. eigenvalues --   -0.55063  -0.40851  -0.40503  -0.28939
 Alpha virt. eigenvalues --   -0.17972   0.04355   0.06185   0.08709   0.11503
 Alpha virt. eigenvalues --    0.12525   0.13636   0.15706   0.16194   0.18285
 Alpha virt. eigenvalues --    0.19143   0.25068   0.27678   0.51386   0.51403

  Beta  occ. eigenvalues --  -14.80560 -14.80559  -0.95224  -0.94821  -0.55307
  Beta  occ. eigenvalues --   -0.55063  -0.40851  -0.40503  -0.28939
  Beta virt. eigenvalues --   -0.17972   0.04355   0.06185   0.08709   0.11503
  Beta virt. eigenvalues --    0.12525   0.13636   0.15706   0.16194   0.18285
  Beta virt. eigenvalues --    0.19143   0.25068   0.27678   0.51386   0.51403

 Mulliken charges and spin densities:
               1          2
     1  N   -0.487350   0.000003
     2  N   -0.487356  -0.000003
     3  H    0.243674  -0.000000
     4  H    0.243677   0.000000
     5  H    0.243678  -0.000000
     6  H    0.243677   0.000000
 Sum of Mulliken charges =  -0.00000   0.00000

 Dipole moment (field-independent basis, Debye):
    X=              0.0000    Y=             -0.0000    Z=             -0.0002  Tot=              0.0002
 Quadrupole moment (field-independent basis, Debye-Ang):
   XX=            -16.5457   YY=            -14.3448   ZZ=            -11.5203
   XY=              7.3139   XZ=             -1.9114   YZ=              0.7927

 Normal termination of Gaussian 16 at Thu May 15 15:00:10 2025.
