 Gaussian 16, Revision A.03,
 Gaussian 16:  ES64L-G16RevA.03 25-Dec-2016

 ---------------------------------------------------
 #p UM062X/6-311+G** force int=superfine pop=saveNBO
 ---------------------------------------------------

 -------------------
 Title Card Required
 -------------------
 Symbolic Z-matrix:
 Charge =  0 Multiplicity = 1

                         Standard orientation:
 ---------------------------------------------------------------------
 Center     Atomic      Atomic             Coordinates (Angstroms)
 Number     Number       Type             X           Y           Z
 ---------------------------------------------------------------------
      1         15           0        0.000000    0.000000    1.238495
      2         15           0        0.000000    0.000000   -1.238495
 ---------------------------------------------------------------------

 SCF Done:  E(UM062X) =  -682.541388931     A.U. after    9 cycles

 The electronic state is 1-SGG.
 Alpha  occ. eigenvalues --  -78.10136 -78.10136  -6.91771  -6.91766  -5.03146
 Alpha  occ. eigenvalues --   -5.03146  -5.03145  -5.03145  -5.03004  -5.02995
 Alpha  occ. eigenvalues --   -0.69131  -0.58479  -0.33346  -0.29125  -0.29125
 Alpha virt. eigenvalues --   -0.12282  -0.12282  -0.02880   0.02508   0.04326
 Alpha virt. eigenvalues --    0.04463   0.04463   0.05939   0.06796   0.06796
 Alpha virt. eigenvalues --    0.12332   0.29630   0.30241   0.31087   0.31087

  Beta  occ. eigenvalues --  -78.10136 -78.10136  -6.91771  -6.91766  -5.03146
  Beta  occ. eigenvalues --   -5.03146  -5.03145  -5.03145  -5.03004  -5.02995
  Beta  occ. eigenvalues --   -0.69131  -0.58479  -0.33346  -0.29125  -0.29125
  Beta virt. eigenvalues --   -0.12282  -0.12282  -0.02880   0.02508   0.04326
  Beta virt. eigenvalues --    0.04463   0.04463   0.05939   0.06796   0.06796
  Beta virt. eigenvalues --    0.12332   0.29630   0.30241   0.31087   0.31087

 Mulliken charges and spin densities:
               1          2
     1  P   -0.000000   0.000000
     2  P    0.000000   0.000000
 Sum of Mulliken charges =  -0.00000   0.00000

 Dipole moment (field-independent basis, Debye):
    X=              0.0000    Y=              0.0000    Z=              0.0000  Tot=              0.0000
 Quadrupole moment (field-independent basis, Debye-Ang):
   XX=            -28.2916   YY=            -28.2916   ZZ=            -25.5985
   XY=              0.0000   XZ=             -0.0000   YZ=              0.0000

 Summary of Natural Population Analysis:

                                       Natural Population
                Natural  -----------------------------------------------
    Atom  No    Charge         Core      Valence    Rydberg      Total
 -----------------------------------------------------------------------
      P    1    0.00000      4.99993     2.49384    0.00623     7.50000
      P    2    0.00000      4.99993     2.49384    0.00623     7.50000
 =======================================================================
   * Total *    0.00000      9.99986     4.98769    0.01246    15.00000

 Normal termination of Gaussian 16 at Mon Apr 21 21:20:28 2025.
