 Gaussian 16, Revision A.03,
 Gaussian 16:  ES64L-G16RevA.03 25-Dec-2016

 --------------------------------------------
 #p opt UM062X/6-311+G** nosymm int=superfine
 --------------------------------------------

 -------------------
 Title Card Required
 -------------------
 Symbolic Z-matrix:
 Charge =  0 Multiplicity = 1

 SCF Done:  E(UM062X) =  -79.5691759855     A.U. after   10 cycles
 SCF Done:  E(UM062X) =  -79.5730725252     A.U. after    9 cycles
 SCF Done:  E(UM062X) =  -79.5747121295     A.U. after   10 cycles
 SCF Done:  E(UM062X) =  -79.5747242740     A.U. after   10 cycles
 Optimization completed.
    -- Stationary point found.

                          Input orientation:
 ---------------------------------------------------------------------
 Center     Atomic      Atomic             Coordinates (Angstroms)
 Number     Number       Type             X           Y           Z
 ---------------------------------------------------------------------
      1          6           0       -1.971675    0.000000    0.000000
      2          6           0        1.971800    0.000000    0.000000
      3          1           0        2.027779   -0.933442    0.540134
      4          1           0       -2.027638   -0.934495   -0.538312
      5          1           0        2.027766    0.934495    0.538311
      6          1           0        2.027781   -0.001052   -1.078452
      7          1           0       -2.027653    0.933442   -0.540134
      8          1           0       -2.027660    0.001051    1.078452
 ---------------------------------------------------------------------

 Alpha  occ. eigenvalues --  -10.57254 -10.57253  -0.77124  -0.76809  -0.49282
 Alpha  occ. eigenvalues --   -0.49282  -0.49154  -0.49154  -0.21650
 Alpha virt. eigenvalues --   -0.11409   0.03108   0.04975   0.05293   0.05293
 Alpha virt. eigenvalues --    0.07393   0.07394   0.11356   0.12621   0.18658
 Alpha virt. eigenvalues --    0.18658   0.20172   0.20172   0.21996   0.25063

  Beta  occ. eigenvalues --  -10.57254 -10.57253  -0.77124  -0.76809  -0.49282
  Beta  occ. eigenvalues --   -0.49282  -0.49154  -0.49154  -0.21650
  Beta virt. eigenvalues --   -0.11409   0.03108   0.04975   0.05293   0.05293
  Beta virt. eigenvalues --    0.07393   0.07394   0.11356   0.12621   0.18658
  Beta virt. eigenvalues --    0.18658   0.20172   0.20172   0.21996   0.25063

 Mulliken charges and spin densities:
               1          2
     1  C   -0.524510  -0.000000
     2  C   -0.524510   0.000000
     3  H    0.174837  -0.000000
     4  H    0.174837   0.000000
     5  H    0.174837  -0.000000
     6  H    0.174836  -0.000000
     7  H    0.174837   0.000000
     8  H    0.174836   0.000000
 Sum of Mulliken charges =  -0.00000  -0.00000

 Dipole moment (field-independent basis, Debye):
    X=             -0.0000    Y=             -0.0000    Z=             -0.0000  Tot=              0.0000
 Quadrupole moment (field-independent basis, Debye-Ang):
   XX=            -15.7813   YY=            -14.8700   ZZ=            -14.8701
   XY=             -0.0000   XZ=             -0.0000   YZ=             -0.0000

 Normal termination of Gaussian 16 at Tue Dec  3 10:07:54 2024.
