 Gaussian 16, Revision A.03,
 Gaussian 16:  ES64L-G16RevA.03 25-Dec-2016

 ----------------------------------------------------------------------
 #p opt UM062X/6-311+G** nosymm int=superfine SCF=(MaxCycle=200,NoVarAc
 c,noincfock) guess=read
 ----------------------------------------------------------------------

 -------------------
 Title Card Required
 -------------------
 Symbolic Z-matrix:
 Charge =  0 Multiplicity = 1

 SCF Done:  E(UM062X) =  -151.298219739     A.U. after   22 cycles
 SCF Done:  E(UM062X) =  -151.298581321     A.U. after   40 cycles
 SCF Done:  E(UM062X) =  -151.298913084     A.U. after   23 cycles
 SCF Done:  E(UM062X) =  -151.299303477     A.U. after   22 cycles
 SCF Done:  E(UM062X) =  -151.299552213     A.U. after   21 cycles
 SCF Done:  E(UM062X) =  -151.299835374     A.U. after   24 cycles
 SCF Done:  E(UM062X) =  -151.299960264     A.U. after   18 cycles
 SCF Done:  E(UM062X) =  -151.300018702     A.U. after   19 cycles
 SCF Done:  E(UM062X) =  -151.300055492     A.U. after   27 cycles
 SCF Done:  E(UM062X) =  -151.300064247     A.U. after   18 cycles
 SCF Done:  E(UM062X) =  -151.300064994     A.U. after   22 cycles
 SCF Done:  E(UM062X) =  -151.300065032     A.U. after   24 cycles
 Optimization completed.
    -- Stationary point found.

                          Input orientation:
 ---------------------------------------------------------------------
 Center     Atomic      Atomic             Coordinates (Angstroms)
 Number     Number       Type             X           Y           Z
 ---------------------------------------------------------------------
      1          8           0       -2.061938    0.000000    0.000000
      2          8           0        2.061938    0.000000    0.000000
      3          1           0       -1.872466   -0.756664   -0.582689
      4          1           0        1.873060    0.756293    0.583359
 ---------------------------------------------------------------------

 Alpha  occ. eigenvalues --  -19.72209 -19.72208  -1.12854  -1.12735  -0.56631
 Alpha  occ. eigenvalues --   -0.56587  -0.44049  -0.43985  -0.35486
 Alpha virt. eigenvalues --   -0.27730   0.05179   0.07228   0.15323   0.15403
 Alpha virt. eigenvalues --    0.16076   0.17969   0.19195   0.19793   0.20121
 Alpha virt. eigenvalues --    0.29941   0.49428   0.50362   0.99669   1.00978

  Beta  occ. eigenvalues --  -19.72209 -19.72208  -1.12854  -1.12735  -0.56631
  Beta  occ. eigenvalues --   -0.56587  -0.44049  -0.43985  -0.35486
  Beta virt. eigenvalues --   -0.27730   0.05179   0.07228   0.15323   0.15403
  Beta virt. eigenvalues --    0.16076   0.17969   0.19195   0.19793   0.20121
  Beta virt. eigenvalues --    0.29941   0.49428   0.50362   0.99669   1.00978

 Mulliken charges and spin densities:
               1          2
     1  O   -0.265946   0.000000
     2  O   -0.265977  -0.000000
     3  H    0.265965   0.000000
     4  H    0.265959  -0.000000
 Sum of Mulliken charges =  -0.00000  -0.00000

 Dipole moment (field-independent basis, Debye):
    X=              0.0009    Y=             -0.0008    Z=              0.0013  Tot=              0.0017
 Quadrupole moment (field-independent basis, Debye-Ang):
   XX=            -13.8576   YY=            -10.6032   ZZ=            -11.8866
   XY=              5.7163   XZ=              4.4055   YZ=              2.4361

 Normal termination of Gaussian 16 at Tue Apr 22 01:30:21 2025.
