 Gaussian 16, Revision A.03,
 Gaussian 16:  ES64L-G16RevA.03 25-Dec-2016

 --------------------------------------------
 #p opt UM062X/6-311+G** nosymm int=superfine
 --------------------------------------------

 -------------------
 Title Card Required
 -------------------
 Symbolic Z-matrix:
 Charge =  0 Multiplicity = 1

 SCF Done:  E(UM062X) =  -80.4094882539     A.U. after   16 cycles
 SCF Done:  E(UM062X) =  -80.4127716765     A.U. after    9 cycles
 SCF Done:  E(UM062X) =  -80.4128174772     A.U. after    9 cycles
 Optimization completed.
    -- Stationary point found.

                          Input orientation:
 ---------------------------------------------------------------------
 Center     Atomic      Atomic             Coordinates (Angstroms)
 Number     Number       Type             X           Y           Z
 ---------------------------------------------------------------------
      1          5           0       -2.117066    0.000000    0.000000
      2          7           0        2.117066    0.000000    0.000000
      3          1           0       -3.349358   -0.000654   -0.000000
      4          1           0        3.155965    0.000355    0.000000
 ---------------------------------------------------------------------

 Alpha  occ. eigenvalues --  -14.82713  -7.12156  -0.89197  -0.54363  -0.45732
 Alpha  occ. eigenvalues --   -0.33372  -0.27388
 Alpha virt. eigenvalues --   -0.12228  -0.04061  -0.04025   0.02571   0.04130
 Alpha virt. eigenvalues --    0.06619   0.06706   0.09485   0.13661   0.14678
 Alpha virt. eigenvalues --    0.16358   0.19053   0.24721   0.38110   0.42468

  Beta  occ. eigenvalues --  -14.82713  -7.12156  -0.89197  -0.54363  -0.45732
  Beta  occ. eigenvalues --   -0.33372  -0.27388
  Beta virt. eigenvalues --   -0.12228  -0.04061  -0.04025   0.02571   0.04130
  Beta virt. eigenvalues --    0.06619   0.06706   0.09485   0.13661   0.14678
  Beta virt. eigenvalues --    0.16358   0.19053   0.24721   0.38110   0.42468

 Mulliken charges and spin densities:
               1          2
     1  B   -0.002451   0.000000
     2  N   -0.196613   0.000000
     3  H   -0.010352  -0.000000
     4  H    0.209416  -0.000000
 Sum of Mulliken charges =  -0.00000  -0.00000

 Dipole moment (field-independent basis, Debye):
    X=              0.1858    Y=             -0.0003    Z=             -0.0000  Tot=              0.1858
 Quadrupole moment (field-independent basis, Debye-Ang):
   XX=             -2.1311   YY=            -11.8426   ZZ=            -15.1176
   XY=              0.0013   XZ=             -0.0000   YZ=              0.0000

 Normal termination of Gaussian 16 at Mon Apr 21 18:08:57 2025.
