 Gaussian 16, Revision A.03,
 Gaussian 16:  ES64L-G16RevA.03 25-Dec-2016

 --------------------------------------------
 #p opt UM062X/6-311+G** nosymm int=superfine
 --------------------------------------------

 -------------------
 Title Card Required
 -------------------
 Symbolic Z-matrix:
 Charge =  0 Multiplicity = 1

 SCF Done:  E(UM062X) =  -51.7926144996     A.U. after   10 cycles
 SCF Done:  E(UM062X) =  -51.7979726304     A.U. after    9 cycles
 SCF Done:  E(UM062X) =  -51.8011501162     A.U. after   11 cycles
 SCF Done:  E(UM062X) =  -51.8011531388     A.U. after    9 cycles
 SCF Done:  E(UM062X) =  -51.8011504382     A.U. after    9 cycles
 SCF Done:  E(UM062X) =  -51.8011519149     A.U. after   11 cycles
 SCF Done:  E(UM062X) =  -51.8011529858     A.U. after    9 cycles
 SCF Done:  E(UM062X) =  -51.8011531730     A.U. after   10 cycles
 Optimization completed.
    -- Stationary point found.

                          Input orientation:
 ---------------------------------------------------------------------
 Center     Atomic      Atomic             Coordinates (Angstroms)
 Number     Number       Type             X           Y           Z
 ---------------------------------------------------------------------
      1          5           0       -2.045607    0.000000    0.000000
      2          5           0        2.045607    0.000000    0.000000
      3          1           0       -2.504989   -1.086294   -0.000075
      4          1           0        2.504989    1.086278   -0.005913
      5          1           0       -2.504991    1.086293    0.000083
      6          1           0        2.504991   -1.086277    0.005914
 ---------------------------------------------------------------------

 Alpha  occ. eigenvalues --   -7.11512  -7.11511  -0.57941  -0.57661  -0.45223
 Alpha  occ. eigenvalues --   -0.45148  -0.19920
 Alpha virt. eigenvalues --   -0.07462  -0.05167  -0.04111   0.02267   0.03180
 Alpha virt. eigenvalues --    0.03849   0.05411   0.06204   0.07207   0.08362
 Alpha virt. eigenvalues --    0.10014   0.15322   0.15923   0.17138   0.23964

  Beta  occ. eigenvalues --   -7.11512  -7.11511  -0.57941  -0.57661  -0.45223
  Beta  occ. eigenvalues --   -0.45148  -0.19920
  Beta virt. eigenvalues --   -0.07462  -0.05167  -0.04111   0.02267   0.03180
  Beta virt. eigenvalues --    0.03849   0.05411   0.06204   0.07207   0.08362
  Beta virt. eigenvalues --    0.10014   0.15322   0.15923   0.17138   0.23964

 Mulliken charges and spin densities:
               1          2
     1  B   -0.059903   0.000000
     2  B   -0.059903  -0.000000
     3  H    0.029952   0.000000
     4  H    0.029952  -0.000000
     5  H    0.029952   0.000000
     6  H    0.029952  -0.000000
 Sum of Mulliken charges =  -0.00000  -0.00000

 Dipole moment (field-independent basis, Debye):
    X=              0.0000    Y=              0.0000    Z=              0.0000  Tot=              0.0000
 Quadrupole moment (field-independent basis, Debye-Ang):
   XX=            -10.8969   YY=            -16.9605   ZZ=            -14.5803
   XY=             -0.0000   XZ=              0.0000   YZ=              0.0064

 Normal termination of Gaussian 16 at Mon Apr 21 17:18:27 2025.
