 Gaussian 16, Revision A.03,
 Gaussian 16:  ES64L-G16RevA.03 25-Dec-2016

 --------------------------------------------
 #p opt UM062X/6-311+G** nosymm int=superfine
 --------------------------------------------

 -------------------
 Title Card Required
 -------------------
 Symbolic Z-matrix:
 Charge =  0 Multiplicity = 1

 SCF Done:  E(UM062X) =  -80.4046948142     A.U. after   17 cycles
 SCF Done:  E(UM062X) =  -80.4083878856     A.U. after   11 cycles
 SCF Done:  E(UM062X) =  -80.4084499005     A.U. after   13 cycles
 SCF Done:  E(UM062X) =  -80.4084619415     A.U. after   11 cycles
 SCF Done:  E(UM062X) =  -80.4140354617     A.U. after   16 cycles
 SCF Done:  E(UM062X) =  -80.4199286881     A.U. after   13 cycles
 SCF Done:  E(UM062X) =  -80.4256603291     A.U. after   16 cycles
 SCF Done:  E(UM062X) =  -80.4260104216     A.U. after   11 cycles
 SCF Done:  E(UM062X) =  -80.4262951691     A.U. after   18 cycles
 SCF Done:  E(UM062X) =  -80.4014740824     A.U. after   19 cycles
 SCF Done:  E(UM062X) =  -80.4302325104     A.U. after   15 cycles
 SCF Done:  E(UM062X) =  -80.4306349515     A.U. after   18 cycles
 SCF Done:  E(UM062X) =  -80.4307314943     A.U. after   15 cycles
 SCF Done:  E(UM062X) =  -80.4308986048     A.U. after   16 cycles
 SCF Done:  E(UM062X) =  -80.4309049135     A.U. after   13 cycles
 SCF Done:  E(UM062X) =  -80.4309053188     A.U. after   16 cycles
 Optimization completed.
    -- Stationary point found.

                          Input orientation:
 ---------------------------------------------------------------------
 Center     Atomic      Atomic             Coordinates (Angstroms)
 Number     Number       Type             X           Y           Z
 ---------------------------------------------------------------------
      1          5           0       -1.567440   -0.001072   -0.000000
      2          7           0        1.566856    0.000467    0.000000
      3          1           0       -2.740849   -0.301986   -0.137025
      4          1           0        1.381384    0.927313    0.424299
 ---------------------------------------------------------------------

 Alpha  occ. eigenvalues --  -14.79604  -7.16678  -0.86110  -0.58046  -0.42991
 Alpha  occ. eigenvalues --   -0.31318  -0.30382
 Alpha virt. eigenvalues --   -0.09414  -0.06762  -0.06500   0.01275   0.04266
 Alpha virt. eigenvalues --    0.05460   0.05486   0.11478   0.15180   0.16619
 Alpha virt. eigenvalues --    0.17508   0.20874   0.24863   0.35516   0.39768

  Beta  occ. eigenvalues --  -14.79604  -7.16678  -0.86110  -0.58046  -0.42991
  Beta  occ. eigenvalues --   -0.31318  -0.30382
  Beta virt. eigenvalues --   -0.09414  -0.06762  -0.06500   0.01275   0.04266
  Beta virt. eigenvalues --    0.05460   0.05486   0.11478   0.15180   0.16619
  Beta virt. eigenvalues --    0.17508   0.20874   0.24863   0.35516   0.39768

 Mulliken charges and spin densities:
               1          2
     1  B    0.037773  -0.000000
     2  N   -0.252331   0.000000
     3  H    0.024691   0.000000
     4  H    0.189867  -0.000000
 Sum of Mulliken charges =  -0.00000  -0.00000

 Dipole moment (field-independent basis, Debye):
    X=             -3.3974    Y=              1.0323    Z=              0.4739  Tot=              3.5823
 Quadrupole moment (field-independent basis, Debye-Ang):
   XX=             -9.8851   YY=            -13.0032   ZZ=            -14.6950
   XY=              2.5845   XZ=              1.1815   YZ=              0.9794

 Normal termination of Gaussian 16 at Mon Apr 21 18:07:37 2025.
