 Gaussian 16, Revision A.03,
 Gaussian 16:  ES64L-G16RevA.03 25-Dec-2016

 --------------------------------------------
 #p opt UM062X/6-311+G** nosymm int=superfine
 --------------------------------------------

 -------------------
 Title Card Required
 -------------------
 Symbolic Z-matrix:
 Charge =  0 Multiplicity = 1

 SCF Done:  E(UM062X) =  -115.536205216     A.U. after  118 cycles
 SCF Done:  E(UM062X) =  -115.543158304     A.U. after   11 cycles
 SCF Done:  E(UM062X) =  -115.547372277     A.U. after   13 cycles
 SCF Done:  E(UM062X) =  -115.547789655     A.U. after   12 cycles
 SCF Done:  E(UM062X) =  -115.547857702     A.U. after   12 cycles
 SCF Done:  E(UM062X) =  -115.547863914     A.U. after   10 cycles
 SCF Done:  E(UM062X) =  -115.547900490     A.U. after   11 cycles
 SCF Done:  E(UM062X) =  -115.547958273     A.U. after   11 cycles
 SCF Done:  E(UM062X) =  -115.548076965     A.U. after   13 cycles
 SCF Done:  E(UM062X) =  -115.548172094     A.U. after   12 cycles
 SCF Done:  E(UM062X) =  -115.548662238     A.U. after   12 cycles
 SCF Done:  E(UM062X) =  -115.548668329     A.U. after   11 cycles
 SCF Done:  E(UM062X) =  -115.548697551     A.U. after   11 cycles
 SCF Done:  E(UM062X) =  -115.548276020     A.U. after   14 cycles
 SCF Done:  E(UM062X) =  -115.548921197     A.U. after   13 cycles
 SCF Done:  E(UM062X) =  -115.548993203     A.U. after   11 cycles
 SCF Done:  E(UM062X) =  -115.549037055     A.U. after   12 cycles
 SCF Done:  E(UM062X) =  -115.549038440     A.U. after   10 cycles
 SCF Done:  E(UM062X) =  -115.549039390     A.U. after   10 cycles
 SCF Done:  E(UM062X) =  -115.549039404     A.U. after    8 cycles
 Optimization completed.
    -- Stationary point found.

                          Input orientation:
 ---------------------------------------------------------------------
 Center     Atomic      Atomic             Coordinates (Angstroms)
 Number     Number       Type             X           Y           Z
 ---------------------------------------------------------------------
      1          6           0       -2.157203   -0.000000    0.000000
      2          8           0        2.157203   -0.000000    0.000000
      3          1           0        1.183269   -0.000368   -0.000025
      4          1           0       -2.193443   -0.542137    0.932548
      5          1           0       -2.196958    1.078572    0.003422
      6          1           0       -2.192277   -0.536170   -0.936037
 ---------------------------------------------------------------------

 Alpha  occ. eigenvalues --  -19.67478 -10.55959  -1.06038  -0.79236  -0.53073
 Alpha  occ. eigenvalues --   -0.50454  -0.50450  -0.40112  -0.30279
 Alpha virt. eigenvalues --   -0.10359   0.02002   0.05204   0.05222   0.06786
 Alpha virt. eigenvalues --    0.13493   0.17977   0.18047   0.18064   0.18975
 Alpha virt. eigenvalues --    0.19073   0.19929   0.24587   0.42924   0.42943

  Beta  occ. eigenvalues --  -19.69075 -10.55278  -1.14317  -0.74453  -0.56262
  Beta  occ. eigenvalues --   -0.50195  -0.49169  -0.49163  -0.43767
  Beta virt. eigenvalues --   -0.07608  -0.00161   0.04470   0.04508   0.08615
  Beta virt. eigenvalues --    0.13026   0.17153   0.17421   0.17844   0.18856
  Beta virt. eigenvalues --    0.18941   0.19774   0.25387   0.42066   0.42082

 Mulliken charges and spin densities:
               1          2
     1  C   -0.513925   1.142357
     2  O   -0.258323  -1.009761
     3  H    0.260056   0.013140
     4  H    0.170872  -0.048583
     5  H    0.170455  -0.048565
     6  H    0.170865  -0.048587
 Sum of Mulliken charges =  -0.00000   0.00000

 Dipole moment (field-independent basis, Debye):
    X=             -2.0948    Y=             -0.0013    Z=             -0.0001  Tot=              2.0948
 Quadrupole moment (field-independent basis, Debye-Ang):
   XX=            -20.7741   YY=            -12.7607   ZZ=            -14.1031
   XY=             -0.0050   XZ=             -0.0011   YZ=             -0.0007

 Normal termination of Gaussian 16 at Mon Apr 21 18:51:51 2025.
