 Gaussian 16, Revision A.03,
 Gaussian 16:  ES64L-G16RevA.03 25-Dec-2016

 --------------------------------------------
 #p opt UM062X/6-311+G** nosymm int=superfine
 --------------------------------------------

 -------------------
 Title Card Required
 -------------------
 Symbolic Z-matrix:
 Charge =  1 Multiplicity = 2

 SCF Done:  E(UM062X) =  -582.137778045     A.U. after   11 cycles
 SCF Done:  E(UM062X) =  -582.138518426     A.U. after    9 cycles
 SCF Done:  E(UM062X) =  -582.138696465     A.U. after    9 cycles
 SCF Done:  E(UM062X) =  -582.138696772     A.U. after    7 cycles
 Optimization completed.
    -- Stationary point found.

                          Input orientation:
 ---------------------------------------------------------------------
 Center     Atomic      Atomic             Coordinates (Angstroms)
 Number     Number       Type             X           Y           Z
 ---------------------------------------------------------------------
      1         14           0       -2.276292    0.000000    0.000000
      2         14           0        2.276292    0.000000    0.000000
      3          1           0        2.393392   -1.459866   -0.000007
      4          1           0       -2.392697   -0.729808    1.264417
      5          1           0        2.393204    0.729964   -1.264279
      6          1           0        2.392506    0.729894    1.264385
      7          1           0       -2.393417    1.459863   -0.000127
      8          1           0       -2.392987   -0.730055   -1.264246
 ---------------------------------------------------------------------

 Alpha  occ. eigenvalues --  -67.22544 -67.22544  -5.77380  -5.77378  -4.09062
 Alpha  occ. eigenvalues --   -4.09062  -4.08251  -4.08251  -4.08251  -4.08251
 Alpha  occ. eigenvalues --   -0.81093  -0.80693  -0.61450  -0.61449  -0.61352
 Alpha  occ. eigenvalues --   -0.61351  -0.40722
 Alpha virt. eigenvalues --   -0.29778  -0.12206  -0.11794  -0.09962  -0.09660
 Alpha virt. eigenvalues --   -0.09657  -0.08431  -0.08431  -0.07705  -0.07370
 Alpha virt. eigenvalues --   -0.07369  -0.06166  -0.06161  -0.04730   0.00655

  Beta  occ. eigenvalues --  -67.22276 -67.22276  -5.77300  -5.77298  -4.08436
  Beta  occ. eigenvalues --   -4.08436  -4.08159  -4.08159  -4.08159  -4.08159
  Beta  occ. eigenvalues --   -0.79351  -0.79116  -0.61332  -0.61331  -0.61223
  Beta  occ. eigenvalues --   -0.61222
  Beta virt. eigenvalues --   -0.32080  -0.23132  -0.15223  -0.12710  -0.12708
  Beta virt. eigenvalues --   -0.10874  -0.10831  -0.08921  -0.08920  -0.07303
  Beta virt. eigenvalues --   -0.06949  -0.06949  -0.05797  -0.05797  -0.05603

 Mulliken charges and spin densities:
               1          2
     1  Si   0.501321   0.551670
     2  Si   0.501321   0.551669
     3  H   -0.000437  -0.017227
     4  H   -0.000444  -0.017221
     5  H   -0.000437  -0.017223
     6  H   -0.000447  -0.017220
     7  H   -0.000437  -0.017227
     8  H   -0.000440  -0.017222
 Sum of Mulliken charges =   1.00000   1.00000

 Dipole moment (field-independent basis, Debye):
    X=              0.0000    Y=             -0.0000    Z=              0.0001  Tot=              0.0001
 Quadrupole moment (field-independent basis, Debye-Ang):
   XX=              4.4844   YY=            -26.2227   ZZ=            -26.2225
   XY=              0.0007   XZ=              0.0001   YZ=             -0.0000

 Normal termination of Gaussian 16 at Mon Apr 21 20:11:05 2025.
