 Gaussian 16, Revision A.03,
 Gaussian 16:  ES64L-G16RevA.03 25-Dec-2016

 --------------------------------------------
 #p opt UM062X/6-311+G** nosymm int=superfine
 --------------------------------------------

 -------------------
 Title Card Required
 -------------------
 Symbolic Z-matrix:
 Charge =  0 Multiplicity = 1

 SCF Done:  E(UM062X) =  -437.173206571     A.U. after   17 cycles
 SCF Done:  E(UM062X) =  -437.174586482     A.U. after   14 cycles
 SCF Done:  E(UM062X) =  -437.175070323     A.U. after   14 cycles
 SCF Done:  E(UM062X) =  -437.175070506     A.U. after   11 cycles
 SCF Done:  E(UM062X) =  -437.175070355     A.U. after   14 cycles
 SCF Done:  E(UM062X) =  -437.175070647     A.U. after   17 cycles
 Optimization completed.
    -- Stationary point found.

                          Input orientation:
 ---------------------------------------------------------------------
 Center     Atomic      Atomic             Coordinates (Angstroms)
 Number     Number       Type             X           Y           Z
 ---------------------------------------------------------------------
      1          6           0       -1.702140    0.000000    0.000000
      2         16           0        1.702140    0.000000    0.000000
      3          1           0       -2.360869   -0.883436    0.000066
      4          1           0       -2.361682    0.882829   -0.000066
 ---------------------------------------------------------------------

 Alpha  occ. eigenvalues --  -89.92511 -10.65503  -8.28516  -6.21256  -6.19756
 Alpha  occ. eigenvalues --   -6.19750  -0.79178  -0.72722  -0.52062  -0.35055
 Alpha  occ. eigenvalues --   -0.30173  -0.30151
 Alpha virt. eigenvalues --   -0.14739  -0.11497   0.00886   0.05298   0.05311
 Alpha virt. eigenvalues --    0.06644   0.08325   0.08880   0.09323   0.14123
 Alpha virt. eigenvalues --    0.16801   0.17483   0.36515   0.36908   0.37165

  Beta  occ. eigenvalues --  -89.92511 -10.65503  -8.28516  -6.21256  -6.19756
  Beta  occ. eigenvalues --   -6.19750  -0.79178  -0.72722  -0.52062  -0.35055
  Beta  occ. eigenvalues --   -0.30173  -0.30151
  Beta virt. eigenvalues --   -0.14739  -0.11497   0.00886   0.05298   0.05311
  Beta virt. eigenvalues --    0.06644   0.08325   0.08880   0.09323   0.14123
  Beta virt. eigenvalues --    0.16801   0.17483   0.36515   0.36908   0.37165

 Mulliken charges and spin densities:
               1          2
     1  C   -0.265819  -0.000000
     2  S   -0.058672   0.000000
     3  H    0.162240   0.000000
     4  H    0.162251  -0.000000
 Sum of Mulliken charges =  -0.00000   0.00000

 Dipole moment (field-independent basis, Debye):
    X=             -3.6746    Y=             -0.0009    Z=              0.0000  Tot=              3.6746
 Quadrupole moment (field-independent basis, Debye-Ang):
   XX=            -11.6625   YY=            -22.2963   ZZ=            -21.9423
   XY=              0.0000   XZ=             -0.0000   YZ=              0.0000

 Normal termination of Gaussian 16 at Mon Apr 21 19:45:28 2025.
