 Gaussian 16, Revision A.03,
 Gaussian 16:  ES64L-G16RevA.03 25-Dec-2016

 --------------------------------------------
 #p opt UM062X/6-311+G** nosymm int=superfine
 --------------------------------------------

 -------------------
 Title Card Required
 -------------------
 Symbolic Z-matrix:
 Charge =  0 Multiplicity = 1

 SCF Done:  E(UM062X) =  -437.155410556     A.U. after   16 cycles
 SCF Done:  E(UM062X) =  -437.158415057     A.U. after   16 cycles
 SCF Done:  E(UM062X) =  -437.159389668     A.U. after   18 cycles
 SCF Done:  E(UM062X) =  -437.159391038     A.U. after   16 cycles
 Optimization completed.
    -- Stationary point found.

                          Input orientation:
 ---------------------------------------------------------------------
 Center     Atomic      Atomic             Coordinates (Angstroms)
 Number     Number       Type             X           Y           Z
 ---------------------------------------------------------------------
      1          6           0       -2.277140    0.000000    0.000000
      2         16           0        2.277140    0.000000    0.000000
      3          1           0       -2.969925   -0.864428    0.000055
      4          1           0       -2.970924    0.863626   -0.000068
 ---------------------------------------------------------------------

 Alpha  occ. eigenvalues --  -89.94842 -10.61883  -8.30897  -6.23692  -6.22097
 Alpha  occ. eigenvalues --   -6.22096  -0.76615  -0.75004  -0.48638  -0.32490
 Alpha  occ. eigenvalues --   -0.32296  -0.32291
 Alpha virt. eigenvalues --   -0.17322  -0.09150   0.01627   0.04448   0.05367
 Alpha virt. eigenvalues --    0.06287   0.07873   0.08133   0.08873   0.13742
 Alpha virt. eigenvalues --    0.17450   0.18917   0.35455   0.36466   0.36508

  Beta  occ. eigenvalues --  -89.94842 -10.61883  -8.30897  -6.23692  -6.22097
  Beta  occ. eigenvalues --   -6.22096  -0.76615  -0.75004  -0.48638  -0.32490
  Beta  occ. eigenvalues --   -0.32296  -0.32291
  Beta virt. eigenvalues --   -0.17322  -0.09150   0.01627   0.04448   0.05367
  Beta virt. eigenvalues --    0.06287   0.07873   0.08133   0.08873   0.13742
  Beta virt. eigenvalues --    0.17450   0.18917   0.35455   0.36466   0.36508

 Mulliken charges and spin densities:
               1          2
     1  C   -0.274798  -0.000000
     2  S    0.004142  -0.000000
     3  H    0.135324   0.000000
     4  H    0.135331  -0.000000
 Sum of Mulliken charges =  -0.00000  -0.00000

 Dipole moment (field-independent basis, Debye):
    X=             -2.3255    Y=             -0.0012    Z=             -0.0000  Tot=              2.3255
 Quadrupole moment (field-independent basis, Debye-Ang):
   XX=             -9.2895   YY=            -22.3874   ZZ=            -21.6743
   XY=              0.0007   XZ=              0.0000   YZ=              0.0001

 Normal termination of Gaussian 16 at Mon Apr 21 19:41:06 2025.
