 Gaussian 16, Revision A.03,
 Gaussian 16:  ES64L-G16RevA.03 25-Dec-2016

 --------------------------------------------
 #p opt UM062X/6-311+G** nosymm int=superfine
 --------------------------------------------

 -------------------
 Title Card Required
 -------------------
 Symbolic Z-matrix:
 Charge =  1 Multiplicity = 2

 SCF Done:  E(UM062X) =  -80.1594892758     A.U. after   20 cycles
 SCF Done:  E(UM062X) =  -80.1603087380     A.U. after   10 cycles
 SCF Done:  E(UM062X) =  -80.1603113274     A.U. after    8 cycles
 Optimization completed.
    -- Stationary point found.

                          Input orientation:
 ---------------------------------------------------------------------
 Center     Atomic      Atomic             Coordinates (Angstroms)
 Number     Number       Type             X           Y           Z
 ---------------------------------------------------------------------
      1          5           0       -1.677734    0.000000    0.000000
      2          7           0        1.677734    0.000000    0.000000
      3          1           0       -2.882572   -0.000271    0.000000
      4          1           0        2.713309   -0.000003    0.000000
 ---------------------------------------------------------------------

 Alpha  occ. eigenvalues --  -14.96892  -7.53210  -1.09841  -0.85787  -0.63890
 Alpha  occ. eigenvalues --   -0.56350  -0.56350
 Alpha virt. eigenvalues --   -0.43024  -0.34218  -0.34218  -0.15021  -0.11266
 Alpha virt. eigenvalues --   -0.09871  -0.09871  -0.06666  -0.02901   0.00689
 Alpha virt. eigenvalues --    0.00689   0.04074   0.07920   0.13152   0.13152

  Beta  occ. eigenvalues --  -14.94442  -7.54453  -0.97045  -0.89373  -0.67866
  Beta  occ. eigenvalues --   -0.58140
  Beta virt. eigenvalues --   -0.35621  -0.35621  -0.21014  -0.21014  -0.14448
  Beta virt. eigenvalues --   -0.10676  -0.09535  -0.09535  -0.07156  -0.02235
  Beta virt. eigenvalues --    0.02585   0.02585   0.05830   0.08577   0.16340

 Mulliken charges and spin densities:
               1          2
     1  B    0.741587  -0.835964
     2  N   -0.245852   2.048673
     3  H    0.222696  -0.143109
     4  H    0.281570  -0.069600
 Sum of Mulliken charges =   1.00000   1.00000

 Dipole moment (field-independent basis, Debye):
    X=             -6.3223    Y=             -0.0002    Z=              0.0000  Tot=              6.3223
 Quadrupole moment (field-independent basis, Debye-Ang):
   XX=             14.3763   YY=            -10.2804   ZZ=            -10.2804
   XY=              0.0004   XZ=              0.0000   YZ=             -0.0000

 Normal termination of Gaussian 16 at Mon Apr 21 17:59:01 2025.
