 Gaussian 16, Revision A.03,
 Gaussian 16:  ES64L-G16RevA.03 25-Dec-2016

 --------------------------------------------
 #p opt UM062X/6-311+G** nosymm int=superfine
 --------------------------------------------

 -------------------
 Title Card Required
 -------------------
 Symbolic Z-matrix:
 Charge =  1 Multiplicity = 2

 SCF Done:  E(UM062X) =  -379.419805844     A.U. after   23 cycles
 SCF Done:  E(UM062X) =  -379.420071938     A.U. after   15 cycles
 Optimization completed.
    -- Stationary point found.

                          Input orientation:
 ---------------------------------------------------------------------
 Center     Atomic      Atomic             Coordinates (Angstroms)
 Number     Number       Type             X           Y           Z
 ---------------------------------------------------------------------
      1          6           0       -1.144427    0.000000    0.000000
      2         15           0        1.144427    0.000000    0.000000
      3          1           0       -2.249725   -0.000000    0.000000
 ---------------------------------------------------------------------

 Alpha  occ. eigenvalues --  -78.40013 -10.96897  -7.21076  -5.33094  -5.32467
 Alpha  occ. eigenvalues --   -5.32062  -1.01548  -0.91482  -0.69321  -0.56487
 Alpha  occ. eigenvalues --   -0.54312
 Alpha virt. eigenvalues --   -0.37244  -0.36541  -0.31131  -0.13610  -0.10553
 Alpha virt. eigenvalues --   -0.09281  -0.09108  -0.08748  -0.05461  -0.05295
 Alpha virt. eigenvalues --   -0.00369   0.03816   0.11323   0.14180   0.14334

  Beta  occ. eigenvalues --  -78.39451 -10.96815  -7.20933  -5.32311  -5.32049
  Beta  occ. eigenvalues --   -5.31345  -0.99605  -0.88115  -0.68362  -0.52989
  Beta virt. eigenvalues --   -0.37818  -0.35370  -0.31317  -0.29422  -0.14683
  Beta virt. eigenvalues --   -0.11053  -0.09143  -0.09095  -0.08896  -0.05430
  Beta virt. eigenvalues --   -0.05406  -0.01132   0.03956   0.10996   0.11477

 Mulliken charges and spin densities:
               1          2
     1  C   -0.008462   0.268874
     2  P    0.689755   0.744103
     3  H    0.318708  -0.012978
 Sum of Mulliken charges =   1.00000   1.00000

 Dipole moment (field-independent basis, Debye):
    X=              0.0340    Y=             -0.0000    Z=              0.0000  Tot=              0.0340
 Quadrupole moment (field-independent basis, Debye-Ang):
   XX=             -2.0721   YY=            -18.3077   ZZ=            -16.6261
   XY=              0.0000   XZ=             -0.0000   YZ=              1.0189

 Normal termination of Gaussian 16 at Mon Apr 21 19:19:36 2025.
