 Gaussian 16, Revision A.03,
 Gaussian 16:  ES64L-G16RevA.03 25-Dec-2016

 ---------------------------------------
 #p UM062X/6-311+G** force int=superfine
 ---------------------------------------

 -------------------
 Title Card Required
 -------------------
 Symbolic Z-matrix:
 Charge =  0 Multiplicity = 1

                         Standard orientation:
 ---------------------------------------------------------------------
 Center     Atomic      Atomic             Coordinates (Angstroms)
 Number     Number       Type             X           Y           Z
 ---------------------------------------------------------------------
      1          6           0       -0.000000    0.437496    0.000000
      2          6           0       -0.000000   -0.437496    0.000000
      3          1           0        0.868411    1.119614    0.000000
      4          1           0       -0.868364    1.119633   -0.000000
      5          1           0       -0.868411   -1.119614    0.000000
      6          1           0        0.868364   -1.119633   -0.000000
 ---------------------------------------------------------------------

 SCF Done:  E(UM062X) =  -77.9686902708     A.U. after    9 cycles

 The electronic state is 1-AG.
 Alpha  occ. eigenvalues --  -10.50156 -10.46209  -0.95316  -0.61586  -0.60497
 Alpha  occ. eigenvalues --   -0.53624  -0.46467  -0.31589
 Alpha virt. eigenvalues --    0.03167   0.03815   0.04254   0.06281   0.07704
 Alpha virt. eigenvalues --    0.09073   0.09854   0.16062   0.16599   0.18528
 Alpha virt. eigenvalues --    0.22196   0.25239   0.35623   0.42355   0.42806

  Beta  occ. eigenvalues --  -10.50156 -10.46209  -0.95316  -0.61586  -0.60497
  Beta  occ. eigenvalues --   -0.53624  -0.46467  -0.31589
  Beta virt. eigenvalues --    0.03167   0.03815   0.04254   0.06281   0.07704
  Beta virt. eigenvalues --    0.09073   0.09854   0.16062   0.16599   0.18528
  Beta virt. eigenvalues --    0.22196   0.25239   0.35623   0.42355   0.42806

 Mulliken charges and spin densities:
               1          2
     1  C   -0.246764   0.000000
     2  C   -0.246764   0.000000
     3  H    0.123378  -0.000000
     4  H    0.123386   0.000000
     5  H    0.123378  -0.000000
     6  H    0.123386   0.000000
 Sum of Mulliken charges =  -0.00000   0.00000

 Dipole moment (field-independent basis, Debye):
    X=             -0.0000    Y=             -0.0000    Z=             -0.0000  Tot=              0.0000
 Quadrupole moment (field-independent basis, Debye-Ang):
   XX=            -12.4597   YY=            -12.6003   ZZ=            -13.7243
   XY=             -0.0001   XZ=             -0.0000   YZ=             -0.0000

 Normal termination of Gaussian 16 at Tue Nov 19 11:40:28 2024.
