 Gaussian 16, Revision A.03,
 Gaussian 16:  ES64L-G16RevA.03 25-Dec-2016

 --------------------------------------------
 #p opt UM062X/6-311+G** nosymm int=superfine
 --------------------------------------------

 -------------------
 Title Card Required
 -------------------
 Symbolic Z-matrix:
 Charge =  0 Multiplicity = 1

 SCF Done:  E(UM062X) =  -114.088900278     A.U. after   17 cycles
 SCF Done:  E(UM062X) =  -114.091122499     A.U. after   10 cycles
 SCF Done:  E(UM062X) =  -114.091826603     A.U. after    9 cycles
 SCF Done:  E(UM062X) =  -114.091831069     A.U. after    8 cycles
 Optimization completed.
    -- Stationary point found.

                          Input orientation:
 ---------------------------------------------------------------------
 Center     Atomic      Atomic             Coordinates (Angstroms)
 Number     Number       Type             X           Y           Z
 ---------------------------------------------------------------------
      1          6           0       -1.723311    0.000000    0.000000
      2          8           0        1.723311    0.000000    0.000000
      3          1           0       -2.400516   -0.873277    0.000002
      4          1           0       -2.400521    0.873273    0.000002
 ---------------------------------------------------------------------

 Alpha  occ. eigenvalues --  -19.73628 -10.63375  -1.03465  -0.77613  -0.50057
 Alpha  occ. eigenvalues --   -0.42353  -0.42347  -0.33258
 Alpha virt. eigenvalues --   -0.16635  -0.10008   0.01576   0.05915   0.07786
 Alpha virt. eigenvalues --    0.08233   0.15731   0.17008   0.18221   0.19976
 Alpha virt. eigenvalues --    0.22259   0.26315   0.43375   0.46754   0.57285

  Beta  occ. eigenvalues --  -19.73628 -10.63375  -1.03465  -0.77613  -0.50057
  Beta  occ. eigenvalues --   -0.42353  -0.42347  -0.33258
  Beta virt. eigenvalues --   -0.16635  -0.10008   0.01576   0.05915   0.07786
  Beta virt. eigenvalues --    0.08233   0.15731   0.17008   0.18221   0.19976
  Beta virt. eigenvalues --    0.22259   0.26315   0.43375   0.46754   0.57285

 Mulliken charges and spin densities:
               1          2
     1  C   -0.261079   0.000000
     2  O   -0.034175  -0.000000
     3  H    0.147627   0.000000
     4  H    0.147627  -0.000000
 Sum of Mulliken charges =  -0.00000  -0.00000

 Dipole moment (field-independent basis, Debye):
    X=             -3.0026    Y=             -0.0000    Z=              0.0000  Tot=              3.0026
 Quadrupole moment (field-independent basis, Debye-Ang):
   XX=             -5.5747   YY=            -13.0554   ZZ=            -12.4993
   XY=              0.0000   XZ=             -0.0000   YZ=             -0.0000

 Normal termination of Gaussian 16 at Mon Apr 21 18:50:34 2025.
