 Gaussian 16, Revision A.03,
 Gaussian 16:  ES64L-G16RevA.03 25-Dec-2016

 ---------------------------------------
 #p UM062X/6-311+G** force int=superfine
 ---------------------------------------

 -------------------
 Title Card Required
 -------------------
 Symbolic Z-matrix:
 Charge =  1 Multiplicity = 2

                         Standard orientation:
 ---------------------------------------------------------------------
 Center     Atomic      Atomic             Coordinates (Angstroms)
 Number     Number       Type             X           Y           Z
 ---------------------------------------------------------------------
      1          6           0        0.344527    0.453183   -0.889105
      2          6           0       -0.344532   -0.453173    0.889108
      3          1           0       -1.289973   -0.804235    0.488469
      4          1           0        0.336293   -0.447027   -1.495060
      5          1           0       -0.336245    0.446873    1.495307
      6          1           0        0.473779   -1.158650    0.990594
      7          1           0        1.289932    0.804327   -0.488454
      8          1           0       -0.473754    1.158653   -0.990873
 ---------------------------------------------------------------------

 SCF Done:  E(UM062X) =  -79.3679084492     A.U. after    9 cycles

 The electronic state is 2-A.
 Alpha  occ. eigenvalues --  -10.86033 -10.86024  -1.09712  -1.01725  -0.78271
 Alpha  occ. eigenvalues --   -0.78270  -0.73872  -0.73872  -0.61919
 Alpha virt. eigenvalues --   -0.25667  -0.16307  -0.11073  -0.11073  -0.09894
 Alpha virt. eigenvalues --   -0.07105  -0.06362  -0.06361  -0.05262  -0.05260
 Alpha virt. eigenvalues --   -0.02125   0.01647   0.01650   0.04524   0.07343

  Beta  occ. eigenvalues --  -10.85818 -10.85818  -1.06282  -0.98858  -0.77335
  Beta  occ. eigenvalues --   -0.77334  -0.73109  -0.73108
  Beta virt. eigenvalues --   -0.38703  -0.18540  -0.16023  -0.11107  -0.11107
  Beta virt. eigenvalues --   -0.08519  -0.07253  -0.06619  -0.06618  -0.04854
  Beta virt. eigenvalues --   -0.04852  -0.01257   0.02261   0.02263   0.05002

 Mulliken charges and spin densities:
               1          2
     1  C   -0.313937   0.554313
     2  C   -0.313937   0.554313
     3  H    0.271319  -0.018126
     4  H    0.271301  -0.018093
     5  H    0.271312  -0.018098
     6  H    0.271305  -0.018090
     7  H    0.271320  -0.018126
     8  H    0.271316  -0.018094
 Sum of Mulliken charges =   1.00000   1.00000

 Dipole moment (field-independent basis, Debye):
    X=              0.0000    Y=             -0.0000    Z=             -0.0000  Tot=              0.0000
 Quadrupole moment (field-independent basis, Debye-Ang):
   XX=            -10.2865   YY=             -9.9124   ZZ=             -7.3871
   XY=              0.6743   XZ=             -1.3227   YZ=             -1.7394

 Normal termination of Gaussian 16 at Wed Nov 13 13:44:17 2024.
