 Gaussian 16, Revision A.03,
 Gaussian 16:  ES64L-G16RevA.03 25-Dec-2016

 --------------------------------------------
 #p opt UM062X/6-311+G** nosymm int=superfine
 --------------------------------------------

 -------------------
 Title Card Required
 -------------------
 Symbolic Z-matrix:
 Charge =  1 Multiplicity = 2

 SCF Done:  E(UM062X) =  -92.7352023413     A.U. after   20 cycles
 SCF Done:  E(UM062X) =  -92.7354215847     A.U. after   14 cycles
 Optimization completed.
    -- Stationary point found.

                          Input orientation:
 ---------------------------------------------------------------------
 Center     Atomic      Atomic             Coordinates (Angstroms)
 Number     Number       Type             X           Y           Z
 ---------------------------------------------------------------------
      1          6           0       -0.851540    0.000000    0.000000
      2          7           0        0.851540    0.000000    0.000000
      3          1           0       -1.964533    0.000000   -0.000000
 ---------------------------------------------------------------------

 Alpha  occ. eigenvalues --  -15.24626 -11.09104  -1.24495  -1.06698  -0.80776
 Alpha  occ. eigenvalues --   -0.72699  -0.67889
 Alpha virt. eigenvalues --   -0.43951  -0.41444  -0.31615  -0.16173  -0.10894
 Alpha virt. eigenvalues --   -0.10681  -0.10230  -0.05228  -0.01761  -0.01392
 Alpha virt. eigenvalues --    0.02217   0.07538   0.24986   0.29026   0.29257

  Beta  occ. eigenvalues --  -15.24041 -11.08900  -1.19781  -1.04737  -0.79047
  Beta  occ. eigenvalues --   -0.67101
  Beta virt. eigenvalues --   -0.46538  -0.40010  -0.34307  -0.29699  -0.16849
  Beta virt. eigenvalues --   -0.11184  -0.10607  -0.10591  -0.05563  -0.02366
  Beta virt. eigenvalues --   -0.01899   0.02318   0.06192   0.24983   0.27824

 Mulliken charges and spin densities:
               1          2
     1  C    0.265406   0.400903
     2  N    0.368818   0.614866
     3  H    0.365776  -0.015769
 Sum of Mulliken charges =   1.00000   1.00000

 Dipole moment (field-independent basis, Debye):
    X=             -4.0822    Y=              0.0000    Z=             -0.0000  Tot=              4.0822
 Quadrupole moment (field-independent basis, Debye-Ang):
   XX=             -0.7942   YY=            -10.3191   ZZ=             -9.9470
   XY=             -0.0000   XZ=              0.0000   YZ=              0.8875

 Normal termination of Gaussian 16 at Mon Apr 21 18:33:18 2025.
