 Gaussian 16, Revision A.03,
 Gaussian 16:  ES64L-G16RevA.03 25-Dec-2016

 --------------------------------------------
 #p opt UM062X/6-311+G** nosymm int=superfine
 --------------------------------------------

 -------------------
 Title Card Required
 -------------------
 Symbolic Z-matrix:
 Charge =  0 Multiplicity = 1

 SCF Done:  E(UM062X) =  -80.4040070069     A.U. after   17 cycles
 SCF Done:  E(UM062X) =  -80.4077463664     A.U. after   11 cycles
 SCF Done:  E(UM062X) =  -80.4078107213     A.U. after   11 cycles
 SCF Done:  E(UM062X) =  -80.4078415119     A.U. after   13 cycles
 SCF Done:  E(UM062X) =  -80.4137016005     A.U. after   14 cycles
 SCF Done:  E(UM062X) =  -80.4159008331     A.U. after   13 cycles
 SCF Done:  E(UM062X) =  -80.4233344513     A.U. after   14 cycles
 SCF Done:  E(UM062X) =  -80.4272686582     A.U. after   18 cycles
 SCF Done:  E(UM062X) =  -80.4297316188     A.U. after   17 cycles
 SCF Done:  E(UM062X) =  -80.4281592031     A.U. after   15 cycles
 SCF Done:  E(UM062X) =  -80.4319444835     A.U. after   17 cycles
 SCF Done:  E(UM062X) =  -80.4322165630     A.U. after   15 cycles
 SCF Done:  E(UM062X) =  -80.4323211019     A.U. after   18 cycles
 SCF Done:  E(UM062X) =  -80.4323582323     A.U. after   14 cycles
 SCF Done:  E(UM062X) =  -80.4323585042     A.U. after   14 cycles
 Optimization completed.
    -- Stationary point found.

                          Input orientation:
 ---------------------------------------------------------------------
 Center     Atomic      Atomic             Coordinates (Angstroms)
 Number     Number       Type             X           Y           Z
 ---------------------------------------------------------------------
      1          5           0       -1.542066    0.000000    0.000000
      2          7           0        1.542066    0.000000    0.000000
      3          1           0       -2.715011   -0.279235   -0.176299
      4          1           0        1.372141    0.865073    0.544156
 ---------------------------------------------------------------------

 Alpha  occ. eigenvalues --  -14.79404  -7.16857  -0.85934  -0.58177  -0.42816
 Alpha  occ. eigenvalues --   -0.31451  -0.30194
 Alpha virt. eigenvalues --   -0.09241  -0.06833  -0.06514   0.01243   0.04251
 Alpha virt. eigenvalues --    0.05431   0.05462   0.11551   0.15255   0.16717
 Alpha virt. eigenvalues --    0.17641   0.20910   0.25008   0.35522   0.39698

  Beta  occ. eigenvalues --  -14.79404  -7.16857  -0.85934  -0.58177  -0.42816
  Beta  occ. eigenvalues --   -0.31451  -0.30194
  Beta virt. eigenvalues --   -0.09241  -0.06833  -0.06514   0.01243   0.04251
  Beta virt. eigenvalues --    0.05431   0.05462   0.11551   0.15255   0.16717
  Beta virt. eigenvalues --    0.17641   0.20910   0.25008   0.35522   0.39698

 Mulliken charges and spin densities:
               1          2
     1  B    0.041243  -0.000000
     2  N   -0.255848   0.000000
     3  H    0.026214  -0.000000
     4  H    0.188391  -0.000000
 Sum of Mulliken charges =  -0.00000  -0.00000

 Dipole moment (field-independent basis, Debye):
    X=             -3.4511    Y=              0.9588    Z=              0.6023  Tot=              3.6321
 Quadrupole moment (field-independent basis, Debye-Ang):
   XX=             -9.8771   YY=            -13.2905   ZZ=            -14.4117
   XY=              2.3600   XZ=              1.4841   YZ=              1.1662

 Normal termination of Gaussian 16 at Mon Apr 21 18:03:26 2025.
