 Gaussian 16, Revision A.03,
 Gaussian 16:  ES64L-G16RevA.03 25-Dec-2016

 --------------------------------------------
 #p opt UM062X/6-311+G** nosymm int=superfine
 --------------------------------------------

 -------------------
 Title Card Required
 -------------------
 Symbolic Z-matrix:
 Charge =  0 Multiplicity = 1

 SCF Done:  E(UM062X) =  -79.6250157598     A.U. after   10 cycles
 SCF Done:  E(UM062X) =  -79.6264537665     A.U. after    9 cycles
 SCF Done:  E(UM062X) =  -79.6268327152     A.U. after    8 cycles
 Optimization completed.
    -- Stationary point found.

                          Input orientation:
 ---------------------------------------------------------------------
 Center     Atomic      Atomic             Coordinates (Angstroms)
 Number     Number       Type             X           Y           Z
 ---------------------------------------------------------------------
      1          6           0       -1.496675    0.000000    0.000000
      2          6           0        1.496800    0.000000    0.000000
      3          1           0        1.629002   -0.928001    0.536978
      4          1           0       -1.628866   -0.929048   -0.535166
      5          1           0        1.628994    0.929048    0.535165
      6          1           0        1.628981   -0.001046   -1.072166
      7          1           0       -1.628876    0.928001   -0.536978
      8          1           0       -1.628859    0.001045    1.072166
 ---------------------------------------------------------------------

 Alpha  occ. eigenvalues --  -10.56681 -10.56678  -0.76958  -0.75634  -0.48654
 Alpha  occ. eigenvalues --   -0.48654  -0.47941  -0.47941  -0.24658
 Alpha virt. eigenvalues --   -0.06985   0.02860   0.05389   0.05389   0.05776
 Alpha virt. eigenvalues --    0.07883   0.07883   0.10907   0.12540   0.18340
 Alpha virt. eigenvalues --    0.18341   0.21381   0.21381   0.24154   0.25308

  Beta  occ. eigenvalues --  -10.56681 -10.56678  -0.76958  -0.75634  -0.48654
  Beta  occ. eigenvalues --   -0.48654  -0.47941  -0.47941  -0.24658
  Beta virt. eigenvalues --   -0.06985   0.02860   0.05389   0.05389   0.05776
  Beta virt. eigenvalues --    0.07883   0.07883   0.10907   0.12540   0.18340
  Beta virt. eigenvalues --    0.18341   0.21381   0.21381   0.24154   0.25308

 Mulliken charges and spin densities:
               1          2
     1  C   -0.522562   0.000000
     2  C   -0.522563  -0.000000
     3  H    0.174187   0.000000
     4  H    0.174188  -0.000000
     5  H    0.174188   0.000000
     6  H    0.174188   0.000000
     7  H    0.174187  -0.000000
     8  H    0.174188  -0.000000
 Sum of Mulliken charges =  -0.00000  -0.00000

 Dipole moment (field-independent basis, Debye):
    X=             -0.0000    Y=             -0.0000    Z=             -0.0000  Tot=              0.0000
 Quadrupole moment (field-independent basis, Debye-Ang):
   XX=            -15.4185   YY=            -14.8020   ZZ=            -14.8021
   XY=             -0.0000   XZ=              0.0000   YZ=              0.0000

 Normal termination of Gaussian 16 at Tue Dec  3 10:00:29 2024.
