 Gaussian 16, Revision A.03,
 Gaussian 16:  ES64L-G16RevA.03 25-Dec-2016

 --------------------------------------------
 #p opt UM062X/6-311+G** nosymm int=superfine
 --------------------------------------------

 -------------------
 Title Card Required
 -------------------
 Symbolic Z-matrix:
 Charge =  1 Multiplicity = 2

 SCF Done:  E(UM062X) =  -582.131594918     A.U. after   11 cycles
 SCF Done:  E(UM062X) =  -582.132413608     A.U. after    9 cycles
 SCF Done:  E(UM062X) =  -582.132683289     A.U. after    9 cycles
 SCF Done:  E(UM062X) =  -582.132684037     A.U. after    8 cycles
 Optimization completed.
    -- Stationary point found.

                          Input orientation:
 ---------------------------------------------------------------------
 Center     Atomic      Atomic             Coordinates (Angstroms)
 Number     Number       Type             X           Y           Z
 ---------------------------------------------------------------------
      1         14           0       -2.501292    0.000000    0.000000
      2         14           0        2.501292    0.000000    0.000000
      3          1           0        2.604735   -1.460593   -0.000012
      4          1           0       -2.604063   -0.730160    1.265042
      5          1           0        2.604594    0.730325   -1.264903
      6          1           0        2.603853    0.730245    1.265011
      7          1           0       -2.604762    1.460590   -0.000137
      8          1           0       -2.604358   -0.730414   -1.264871
 ---------------------------------------------------------------------

 Alpha  occ. eigenvalues --  -67.22043 -67.22043  -5.76892  -5.76892  -4.08582
 Alpha  occ. eigenvalues --   -4.08582  -4.07766  -4.07766  -4.07766  -4.07766
 Alpha  occ. eigenvalues --   -0.80589  -0.80341  -0.61023  -0.61022  -0.60978
 Alpha  occ. eigenvalues --   -0.60977  -0.39138
 Alpha virt. eigenvalues --   -0.30281  -0.11681  -0.11544  -0.09895  -0.09132
 Alpha virt. eigenvalues --   -0.09131  -0.07983  -0.07982  -0.07557  -0.07054
 Alpha virt. eigenvalues --   -0.07054  -0.06012  -0.06011  -0.04835   0.00409

  Beta  occ. eigenvalues --  -67.21767 -67.21767  -5.76810  -5.76809  -4.07936
  Beta  occ. eigenvalues --   -4.07936  -4.07671  -4.07671  -4.07671  -4.07671
  Beta  occ. eigenvalues --   -0.78868  -0.78742  -0.60931  -0.60930  -0.60881
  Beta  occ. eigenvalues --   -0.60880
  Beta virt. eigenvalues --   -0.32171  -0.23445  -0.16074  -0.12047  -0.12044
  Beta virt. eigenvalues --   -0.10669  -0.10311  -0.08534  -0.08534  -0.07407
  Beta virt. eigenvalues --   -0.06581  -0.06580  -0.05600  -0.05584  -0.05584

 Mulliken charges and spin densities:
               1          2
     1  Si   0.510071   0.557413
     2  Si   0.510071   0.557413
     3  H   -0.003356  -0.019140
     4  H   -0.003359  -0.019136
     5  H   -0.003354  -0.019139
     6  H   -0.003362  -0.019135
     7  H   -0.003356  -0.019140
     8  H   -0.003357  -0.019138
 Sum of Mulliken charges =   1.00000   1.00000

 Dipole moment (field-independent basis, Debye):
    X=              0.0000    Y=             -0.0000    Z=              0.0001  Tot=              0.0001
 Quadrupole moment (field-independent basis, Debye-Ang):
   XX=              9.3841   YY=            -26.2530   ZZ=            -26.2527
   XY=              0.0007   XZ=              0.0001   YZ=             -0.0000

 Normal termination of Gaussian 16 at Mon Apr 21 20:17:23 2025.
