 Gaussian 16, Revision A.03,
 Gaussian 16:  ES64L-G16RevA.03 25-Dec-2016

 --------------------------------------------
 #p opt UM062X/6-311+G** nosymm int=superfine
 --------------------------------------------

 -------------------
 Title Card Required
 -------------------
 Symbolic Z-matrix:
 Charge =  0 Multiplicity = 1

 SCF Done:  E(UM062X) =  -79.6619080661     A.U. after    9 cycles
 SCF Done:  E(UM062X) =  -79.6856988043     A.U. after    8 cycles
 SCF Done:  E(UM062X) =  -79.6921352471     A.U. after    8 cycles
 SCF Done:  E(UM062X) =  -79.6921499268     A.U. after    7 cycles
 Optimization completed.
    -- Stationary point found.

                          Input orientation:
 ---------------------------------------------------------------------
 Center     Atomic      Atomic             Coordinates (Angstroms)
 Number     Number       Type             X           Y           Z
 ---------------------------------------------------------------------
      1          6           0       -0.595567    0.000000    0.000000
      2          6           0        0.595628    0.000000    0.000000
      3          1           0        1.071697   -0.860910    0.498172
      4          1           0       -1.071635   -0.861897   -0.496482
      5          1           0        1.071696    0.861898    0.496480
      6          1           0        1.071703   -0.000953   -0.994662
      7          1           0       -1.071636    0.860909   -0.498174
      8          1           0       -1.071643    0.000952    0.994661
 ---------------------------------------------------------------------

 Alpha  occ. eigenvalues --  -10.50116 -10.49838  -0.93296  -0.68043  -0.54050
 Alpha  occ. eigenvalues --   -0.54050  -0.50370  -0.35788  -0.35788
 Alpha virt. eigenvalues --    0.02077   0.04197   0.04881   0.04881   0.08654
 Alpha virt. eigenvalues --    0.08955   0.08955   0.14238   0.19260   0.19261
 Alpha virt. eigenvalues --    0.19749   0.19749   0.24033   0.27918   0.38258

  Beta  occ. eigenvalues --  -10.50116 -10.49838  -0.93296  -0.68043  -0.54050
  Beta  occ. eigenvalues --   -0.54050  -0.50370  -0.35788  -0.35788
  Beta virt. eigenvalues --    0.02077   0.04197   0.04881   0.04881   0.08654
  Beta virt. eigenvalues --    0.08955   0.08955   0.14238   0.19260   0.19261
  Beta virt. eigenvalues --    0.19749   0.19749   0.24033   0.27918   0.38258

 Mulliken charges and spin densities:
               1          2
     1  C   -0.432300  -0.000000
     2  C   -0.432300   0.000000
     3  H    0.144101  -0.000000
     4  H    0.144100   0.000000
     5  H    0.144100  -0.000000
     6  H    0.144099  -0.000000
     7  H    0.144101   0.000000
     8  H    0.144099   0.000000
 Sum of Mulliken charges =  -0.00000   0.00000

 Dipole moment (field-independent basis, Debye):
    X=              0.0000    Y=             -0.0000    Z=             -0.0000  Tot=              0.0000
 Quadrupole moment (field-independent basis, Debye-Ang):
   XX=            -15.6428   YY=            -14.9492   ZZ=            -14.9492
   XY=              0.0000   XZ=             -0.0000   YZ=             -0.0001

 Normal termination of Gaussian 16 at Tue Nov 19 11:44:18 2024.
