 Gaussian 16, Revision A.03,
 Gaussian 16:  ES64L-G16RevA.03 25-Dec-2016

 --------------------------------------------
 #p opt UM062X/6-311+G** nosymm int=superfine
 --------------------------------------------

 -------------------
 Title Card Required
 -------------------
 Symbolic Z-matrix:
 Charge =  1 Multiplicity = 2

 SCF Done:  E(UM062X) =  -79.3168161699     A.U. after   10 cycles
 SCF Done:  E(UM062X) =  -79.3180132338     A.U. after    9 cycles
 SCF Done:  E(UM062X) =  -79.3180215495     A.U. after    9 cycles
 Optimization completed.
    -- Stationary point found.

                          Input orientation:
 ---------------------------------------------------------------------
 Center     Atomic      Atomic             Coordinates (Angstroms)
 Number     Number       Type             X           Y           Z
 ---------------------------------------------------------------------
      1          6           0       -1.983074    0.000000    0.000000
      2          6           0        1.983074    0.000000    0.000000
      3          1           0        2.010333   -0.937561    0.542642
      4          1           0       -2.008595   -0.938659   -0.540821
      5          1           0        2.009589    0.938752    0.540612
      6          1           0        2.008669   -0.001168   -1.083308
      7          1           0       -2.010387    0.937665   -0.542459
      8          1           0       -2.009608    0.000946    1.083286
 ---------------------------------------------------------------------

 Alpha  occ. eigenvalues --  -10.83526 -10.83525  -1.02092  -1.01759  -0.73145
 Alpha  occ. eigenvalues --   -0.73145  -0.73033  -0.73032  -0.47476
 Alpha virt. eigenvalues --   -0.37608  -0.12739  -0.10156  -0.09421  -0.09421
 Alpha virt. eigenvalues --   -0.06218  -0.06218  -0.04387  -0.02917  -0.00058
 Alpha virt. eigenvalues --   -0.00055   0.01372   0.01374   0.02687   0.08722

  Beta  occ. eigenvalues --  -10.83306 -10.83306  -0.99436  -0.99229  -0.72622
  Beta  occ. eigenvalues --   -0.72622  -0.72492  -0.72491
  Beta virt. eigenvalues --   -0.32562  -0.26644  -0.16632  -0.10859  -0.10858
  Beta virt. eigenvalues --   -0.10222  -0.06209  -0.06208  -0.05264  -0.01964
  Beta virt. eigenvalues --   -0.00292  -0.00289   0.01633   0.01636   0.02456

 Mulliken charges and spin densities:
               1          2
     1  C   -0.249960   0.557177
     2  C   -0.249961   0.557177
     3  H    0.250008  -0.019054
     4  H    0.249969  -0.019057
     5  H    0.249989  -0.019059
     6  H    0.249964  -0.019063
     7  H    0.250009  -0.019054
     8  H    0.249983  -0.019066
 Sum of Mulliken charges =   1.00000   1.00000

 Dipole moment (field-independent basis, Debye):
    X=             -0.0000    Y=             -0.0000    Z=             -0.0001  Tot=              0.0001
 Quadrupole moment (field-independent basis, Debye-Ang):
   XX=              7.5115   YY=            -11.1146   ZZ=            -11.1147
   XY=             -0.0019   XZ=              0.0010   YZ=              0.0000

 Normal termination of Gaussian 16 at Wed Nov 13 12:55:34 2024.
