 Gaussian 16, Revision A.03,
 Gaussian 16:  ES64L-G16RevA.03 25-Dec-2016

 ---------------------------------------
 #p UM062X/6-311+G** force int=superfine
 ---------------------------------------

 -------------------
 Title Card Required
 -------------------
 Symbolic Z-matrix:
 Charge =  1 Multiplicity = 2

                         Standard orientation:
 ---------------------------------------------------------------------
 Center     Atomic      Atomic             Coordinates (Angstroms)
 Number     Number       Type             X           Y           Z
 ---------------------------------------------------------------------
      1          6           0        0.000000    1.003787    0.000000
      2          6           0       -0.000000   -1.003787    0.000000
      3          1           0       -0.980641    1.467689    0.000000
      4          1           0        0.980673    1.467685    0.000000
      5          1           0        0.980641   -1.467689    0.000000
      6          1           0       -0.980673   -1.467685    0.000000
 ---------------------------------------------------------------------

 SCF Done:  E(UM062X) =  -78.0663818829     A.U. after    9 cycles

 The electronic state is 2-AU.
 Alpha  occ. eigenvalues --  -10.92163 -10.92148  -1.07044  -1.00007  -0.80796
 Alpha  occ. eigenvalues --   -0.77386  -0.67664  -0.56598
 Alpha virt. eigenvalues --   -0.36314  -0.23627  -0.14155  -0.11050  -0.10025
 Alpha virt. eigenvalues --   -0.08430  -0.07455  -0.07203  -0.04753  -0.04178
 Alpha virt. eigenvalues --   -0.02650  -0.00634   0.02162   0.09390   0.17998

  Beta  occ. eigenvalues --  -10.91929 -10.91919  -1.03934  -0.97787  -0.80245
  Beta  occ. eigenvalues --   -0.77033  -0.66142
  Beta virt. eigenvalues --   -0.35635  -0.27656  -0.21222  -0.15504  -0.11390
  Beta virt. eigenvalues --   -0.10039  -0.07928  -0.07640  -0.07376  -0.04232
  Beta virt. eigenvalues --   -0.03928  -0.02192  -0.00050   0.01371   0.10102

 Mulliken charges and spin densities:
               1          2
     1  C   -0.067008   0.541145
     2  C   -0.067008   0.541145
     3  H    0.283503  -0.020572
     4  H    0.283506  -0.020573
     5  H    0.283503  -0.020572
     6  H    0.283506  -0.020573
 Sum of Mulliken charges =   1.00000   1.00000

 Dipole moment (field-independent basis, Debye):
    X=             -0.0000    Y=             -0.0000    Z=              0.0000  Tot=              0.0000
 Quadrupole moment (field-independent basis, Debye-Ang):
   XX=             -8.1542   YY=             -2.1721   ZZ=            -12.4841
   XY=              0.0001   XZ=              0.0000   YZ=              0.0000

 Normal termination of Gaussian 16 at Tue Nov 19 11:56:27 2024.
