 Gaussian 16, Revision A.03,
 Gaussian 16:  ES64L-G16RevA.03 25-Dec-2016

 ---------------------------------------
 #p UM062X/6-311+G** force int=superfine
 ---------------------------------------

 -------------------
 Title Card Required
 -------------------
 Symbolic Z-matrix:
 Charge =  1 Multiplicity = 2

                         Standard orientation:
 ---------------------------------------------------------------------
 Center     Atomic      Atomic             Coordinates (Angstroms)
 Number     Number       Type             X           Y           Z
 ---------------------------------------------------------------------
      1          6           0       -0.580214   -0.074175   -0.000086
      2          6           0        0.580214    0.074173    0.000047
      3          1           0        1.034449    1.065287   -0.000062
      4          1           0       -1.166948    0.582601    0.737266
      5          1           0        1.166997   -0.582759   -0.737092
      6          1           0        1.166966   -0.582812    0.737058
      7          1           0       -1.034450   -1.065288   -0.000071
      8          1           0       -1.167019    0.582981   -0.736870
 ---------------------------------------------------------------------

 SCF Done:  E(UM062X) =  -79.2864577487     A.U. after   10 cycles

 The electronic state is 2-A.
 Alpha  occ. eigenvalues --  -10.80772 -10.80445  -1.23638  -0.99619  -0.85103
 Alpha  occ. eigenvalues --   -0.82186  -0.80533  -0.67487  -0.61289
 Alpha virt. eigenvalues --   -0.16193  -0.14458  -0.13778  -0.12216  -0.08789
 Alpha virt. eigenvalues --   -0.07146  -0.07019  -0.06586  -0.04401  -0.02909
 Alpha virt. eigenvalues --   -0.00912  -0.00738   0.06409   0.06505   0.14647

  Beta  occ. eigenvalues --  -10.80719 -10.80380  -1.22239  -0.95798  -0.84313
  Beta  occ. eigenvalues --   -0.80252  -0.75536  -0.65959
  Beta virt. eigenvalues --   -0.41303  -0.16292  -0.14482  -0.13273  -0.12299
  Beta virt. eigenvalues --   -0.08833  -0.06855  -0.06555  -0.04974  -0.04329
  Beta virt. eigenvalues --   -0.02369  -0.00793  -0.00537   0.06601   0.07019

 Mulliken charges and spin densities:
               1          2
     1  C   -0.393052   0.141701
     2  C   -0.393068   0.141692
     3  H    0.250390  -0.009192
     4  H    0.321362   0.183888
     5  H    0.321354   0.183823
     6  H    0.321316   0.183672
     7  H    0.250391  -0.009192
     8  H    0.321307   0.183608
 Sum of Mulliken charges =   1.00000   1.00000

 Dipole moment (field-independent basis, Debye):
    X=             -0.0000    Y=              0.0000    Z=              0.0004  Tot=              0.0004
 Quadrupole moment (field-independent basis, Debye-Ang):
   XX=             -6.5555   YY=            -10.0469   ZZ=            -11.1401
   XY=             -1.7440   XZ=             -0.0013   YZ=              0.0003

 Normal termination of Gaussian 16 at Tue Nov 19 08:40:45 2024.
