 Gaussian 16, Revision A.03,
 Gaussian 16:  ES64L-G16RevA.03 25-Dec-2016

 ---------------------------------------
 #p UM062X/6-311+G** force int=superfine
 ---------------------------------------

 -------------------
 Title Card Required
 -------------------
 Symbolic Z-matrix:
 Charge =  1 Multiplicity = 2

                         Standard orientation:
 ---------------------------------------------------------------------
 Center     Atomic      Atomic             Coordinates (Angstroms)
 Number     Number       Type             X           Y           Z
 ---------------------------------------------------------------------
      1          7           0        0.000000    0.000000    1.805391
      2          7           0        0.000000    0.000000   -1.805391
 ---------------------------------------------------------------------

 SCF Done:  E(UM062X) =  -108.337175446     A.U. after   10 cycles

 Unable to determine electronic state:  partially filled degenerate orbitals.
 Alpha  occ. eigenvalues --  -15.30799 -15.30796  -1.19476  -1.18921  -0.65166
 Alpha  occ. eigenvalues --   -0.63433  -0.62539
 Alpha virt. eigenvalues --   -0.57217  -0.54573  -0.53868  -0.12934  -0.08072
 Alpha virt. eigenvalues --   -0.07800  -0.07639  -0.04193  -0.02911  -0.02725
 Alpha virt. eigenvalues --    0.03657   0.51583   0.52762   0.52793   0.53205

  Beta  occ. eigenvalues --  -15.30309 -15.30307  -1.15736  -1.15256  -0.61681
  Beta  occ. eigenvalues --   -0.60762
  Beta virt. eigenvalues --   -0.52779  -0.52000  -0.43656  -0.43336  -0.13791
  Beta virt. eigenvalues --   -0.08869  -0.08010  -0.07681  -0.04426  -0.03229
  Beta virt. eigenvalues --   -0.02946   0.02505   0.52584   0.52945   0.53451

 Mulliken charges and spin densities:
               1          2
     1  N    0.500000   0.500000
     2  N    0.500000   0.500000
 Sum of Mulliken charges =   1.00000   1.00000

 Dipole moment (field-independent basis, Debye):
    X=              0.0000    Y=             -0.0000    Z=              0.0000  Tot=              0.0000
 Quadrupole moment (field-independent basis, Debye-Ang):
   XX=             -8.5646   YY=            -10.0071   ZZ=              7.0781
   XY=             -0.0000   XZ=             -0.0000   YZ=              0.0000

 Optimization completed.
    -- Stationary point found.
 Normal termination of Gaussian 16 at Wed Feb 26 14:02:01 2025.
