 Gaussian 16, Revision A.03,
 Gaussian 16:  ES64L-G16RevA.03 25-Dec-2016

 --------------------------------------------
 #p opt UM062X/6-311+G** nosymm int=superfine
 --------------------------------------------

 -------------------
 Title Card Required
 -------------------
 Symbolic Z-matrix:
 Charge =  0 Multiplicity = 1

 SCF Done:  E(UM062X) =  -382.231616710     A.U. after   15 cycles
 SCF Done:  E(UM062X) =  -382.242214842     A.U. after   11 cycles
 SCF Done:  E(UM062X) =  -382.248705008     A.U. after   13 cycles
 SCF Done:  E(UM062X) =  -382.248822455     A.U. after   10 cycles
 SCF Done:  E(UM062X) =  -382.248881703     A.U. after   11 cycles
 SCF Done:  E(UM062X) =  -382.248938482     A.U. after   12 cycles
 SCF Done:  E(UM062X) =  -382.248957742     A.U. after   12 cycles
 SCF Done:  E(UM062X) =  -382.248960236     A.U. after    9 cycles
 SCF Done:  E(UM062X) =  -382.248960974     A.U. after   10 cycles
 SCF Done:  E(UM062X) =  -382.248962241     A.U. after    9 cycles
 SCF Done:  E(UM062X) =  -382.248962955     A.U. after   10 cycles
 SCF Done:  E(UM062X) =  -382.248963192     A.U. after    8 cycles
 Optimization completed.
    -- Stationary point found.

                          Input orientation:
 ---------------------------------------------------------------------
 Center     Atomic      Atomic             Coordinates (Angstroms)
 Number     Number       Type             X           Y           Z
 ---------------------------------------------------------------------
      1          6           0       -2.081264    0.000000    0.000000
      2         15           0        2.081264    0.000000    0.000000
      3          1           0        2.004137   -1.417265    0.024247
      4          1           0       -2.109481    1.054037    0.234615
      5          1           0        2.003842    0.074353    1.415477
      6          1           0       -2.109502   -0.321957   -1.030720
      7          1           0       -2.144633   -0.730014    0.793841
 ---------------------------------------------------------------------

 Alpha  occ. eigenvalues --  -78.03065 -10.59764  -6.85477  -4.97001  -4.96925
 Alpha  occ. eigenvalues --   -4.96742  -0.79100  -0.69376  -0.51287  -0.51244
 Alpha  occ. eigenvalues --   -0.43540  -0.34636  -0.23205
 Alpha virt. eigenvalues --   -0.13342   0.02134   0.03798   0.03978   0.04509
 Alpha virt. eigenvalues --    0.06183   0.06670   0.07237   0.07320   0.11156
 Alpha virt. eigenvalues --    0.16729   0.18074   0.18129   0.22713   0.30473

  Beta  occ. eigenvalues --  -78.03065 -10.59764  -6.85477  -4.97001  -4.96925
  Beta  occ. eigenvalues --   -4.96742  -0.79100  -0.69376  -0.51287  -0.51244
  Beta  occ. eigenvalues --   -0.43540  -0.34636  -0.23205
  Beta virt. eigenvalues --   -0.13342   0.02134   0.03798   0.03978   0.04509
  Beta virt. eigenvalues --    0.06183   0.06670   0.07237   0.07320   0.11156
  Beta virt. eigenvalues --    0.16729   0.18074   0.18129   0.22713   0.30473

 Mulliken charges and spin densities:
               1          2
     1  C   -0.493870   0.000000
     2  P   -0.049418  -0.000000
     3  H   -0.006114   0.000000
     4  H    0.185954  -0.000000
     5  H   -0.006114   0.000000
     6  H    0.185926  -0.000000
     7  H    0.183638  -0.000000
 Sum of Mulliken charges =  -0.00000   0.00000

 Dipole moment (field-independent basis, Debye):
    X=             -1.6984    Y=             -0.5770    Z=              0.6187  Tot=              1.8975
 Quadrupole moment (field-independent basis, Debye-Ang):
   XX=            -22.4067   YY=            -22.4339   ZZ=            -22.5321
   XY=             -1.3116   XZ=              1.4055   YZ=              0.7041

 Normal termination of Gaussian 16 at Mon Apr 21 19:10:32 2025.
