 Gaussian 16, Revision A.03,
 Gaussian 16:  ES64L-G16RevA.03 25-Dec-2016

 --------------------------------------------
 #p opt UM062X/6-311+G** nosymm int=superfine
 --------------------------------------------

 -------------------
 Title Card Required
 -------------------
 Symbolic Z-matrix:
 Charge =  1 Multiplicity = 2

 SCF Done:  E(UM062X) =  -579.692187762     A.U. after   18 cycles
 SCF Done:  E(UM062X) =  -579.692857625     A.U. after   17 cycles
 SCF Done:  E(UM062X) =  -579.694945550     A.U. after   17 cycles
 SCF Done:  E(UM062X) =  -579.696374382     A.U. after   24 cycles
 SCF Done:  E(UM062X) =  -579.697392078     A.U. after   21 cycles
 SCF Done:  E(UM062X) =  -579.699883542     A.U. after   18 cycles
 SCF Done:  E(UM062X) =  -579.700248487     A.U. after   17 cycles
 SCF Done:  E(UM062X) =  -579.700265366     A.U. after   17 cycles
 SCF Done:  E(UM062X) =  -579.700270345     A.U. after   14 cycles
 SCF Done:  E(UM062X) =  -579.700270575     A.U. after   15 cycles
 SCF Done:  E(UM062X) =  -579.700275141     A.U. after   16 cycles
 SCF Done:  E(UM062X) =  -579.686988663     A.U. after   19 cycles
 SCF Done:  E(UM062X) =  -579.702221588     A.U. after   20 cycles
 SCF Done:  E(UM062X) =  -579.711882397     A.U. after   21 cycles
 SCF Done:  E(UM062X) =  -579.713537796     A.U. after   20 cycles
 SCF Done:  E(UM062X) =  -579.714928697     A.U. after   20 cycles
 SCF Done:  E(UM062X) =  -579.715113855     A.U. after   17 cycles
 SCF Done:  E(UM062X) =  -579.715149126     A.U. after   16 cycles
 SCF Done:  E(UM062X) =  -579.715158198     A.U. after   15 cycles
 SCF Done:  E(UM062X) =  -579.715159239     A.U. after   14 cycles
 Optimization completed.
    -- Stationary point found.

                          Input orientation:
 ---------------------------------------------------------------------
 Center     Atomic      Atomic             Coordinates (Angstroms)
 Number     Number       Type             X           Y           Z
 ---------------------------------------------------------------------
      1         14           0       -1.502975    0.000000    0.000000
      2         14           0        1.502975    0.000000    0.000000
      3          1           0       -1.718931   -1.035563   -1.070160
      4          1           0        1.710594    1.328560   -0.675492
 ---------------------------------------------------------------------

 Alpha  occ. eigenvalues --  -67.27697 -67.27694  -5.81881  -5.81878  -4.13017
 Alpha  occ. eigenvalues --   -4.13012  -4.12937  -4.12933  -4.12297  -4.12293
 Alpha  occ. eigenvalues --   -0.79234  -0.75425  -0.55474  -0.53478  -0.46346
 Alpha virt. eigenvalues --   -0.29304  -0.28269  -0.23169  -0.12842  -0.10705
 Alpha virt. eigenvalues --   -0.09084  -0.09052  -0.08344  -0.08182  -0.05943
 Alpha virt. eigenvalues --   -0.05855  -0.05714  -0.03153   0.12280   0.12740

  Beta  occ. eigenvalues --  -67.27400 -67.27399  -5.81768  -5.81765  -4.12865
  Beta  occ. eigenvalues --   -4.12861  -4.12310  -4.12307  -4.12077  -4.12075
  Beta  occ. eigenvalues --   -0.77330  -0.73481  -0.55174  -0.51368
  Beta virt. eigenvalues --   -0.31069  -0.28680  -0.27253  -0.19471  -0.13178
  Beta virt. eigenvalues --   -0.10338  -0.09360  -0.08706  -0.07989  -0.07651
  Beta virt. eigenvalues --   -0.05763  -0.05274  -0.05265  -0.02356   0.11360

 Mulliken charges and spin densities:
               1          2
     1  Si   0.561328   0.511439
     2  Si   0.562508   0.508420
     3  H   -0.061630  -0.009921
     4  H   -0.062205  -0.009939
 Sum of Mulliken charges =   1.00000   1.00000

 Dipole moment (field-independent basis, Debye):
    X=             -0.0039    Y=              0.0887    Z=             -0.5294  Tot=              0.5368
 Quadrupole moment (field-independent basis, Debye-Ang):
   XX=             -9.3162   YY=            -24.2076   ZZ=            -22.2071
   XY=              1.1413   XZ=              0.1855   YZ=             -0.3412

 Normal termination of Gaussian 16 at Mon Apr 21 20:42:25 2025.
