 Gaussian 16, Revision A.03,
 Gaussian 16:  ES64L-G16RevA.03 25-Dec-2016

 --------------------------------------------
 #p opt UM062X/6-311+G** nosymm int=superfine
 --------------------------------------------

 -------------------
 Title Card Required
 -------------------
 Symbolic Z-matrix:
 Charge =  0 Multiplicity = 1

 SCF Done:  E(UM062X) =  -79.7700355932     A.U. after    8 cycles
 SCF Done:  E(UM062X) =  -79.7784821362     A.U. after    8 cycles
 SCF Done:  E(UM062X) =  -79.7794027412     A.U. after    8 cycles
 Optimization completed.
    -- Stationary point found.

                          Input orientation:
 ---------------------------------------------------------------------
 Center     Atomic      Atomic             Coordinates (Angstroms)
 Number     Number       Type             X           Y           Z
 ---------------------------------------------------------------------
      1          6           0       -0.878079    0.000000    0.000000
      2          6           0        0.878169    0.000000    0.000000
      3          1           0        1.223043   -0.892937    0.516684
      4          1           0       -1.222964   -0.893938   -0.514939
      5          1           0        1.223055    0.893938    0.514937
      6          1           0        1.222995   -0.001008   -1.031661
      7          1           0       -1.222953    0.892937   -0.516684
      8          1           0       -1.222907    0.001007    1.031660
 ---------------------------------------------------------------------

 Alpha  occ. eigenvalues --  -10.53435 -10.53418  -0.81404  -0.71282  -0.49044
 Alpha  occ. eigenvalues --   -0.49044  -0.42453  -0.42453  -0.37888
 Alpha virt. eigenvalues --    0.02239   0.03749   0.05615   0.05615   0.08645
 Alpha virt. eigenvalues --    0.08645   0.09167   0.13554   0.18409   0.18410
 Alpha virt. eigenvalues --    0.19595   0.21682   0.21682   0.24215   0.27605

  Beta  occ. eigenvalues --  -10.53435 -10.53418  -0.81404  -0.71282  -0.49044
  Beta  occ. eigenvalues --   -0.49044  -0.42453  -0.42453  -0.37888
  Beta virt. eigenvalues --    0.02239   0.03749   0.05615   0.05615   0.08645
  Beta virt. eigenvalues --    0.08645   0.09167   0.13554   0.18409   0.18410
  Beta virt. eigenvalues --    0.19595   0.21682   0.21682   0.24215   0.27605

 Mulliken charges and spin densities:
               1          2
     1  C   -0.486052   0.000000
     2  C   -0.486052  -0.000000
     3  H    0.162018   0.000000
     4  H    0.162018  -0.000000
     5  H    0.162018   0.000000
     6  H    0.162017   0.000000
     7  H    0.162018  -0.000000
     8  H    0.162017  -0.000000
 Sum of Mulliken charges =  -0.00000  -0.00000

 Dipole moment (field-independent basis, Debye):
    X=             -0.0000    Y=             -0.0000    Z=             -0.0000  Tot=              0.0000
 Quadrupole moment (field-independent basis, Debye-Ang):
   XX=            -15.6154   YY=            -14.9382   ZZ=            -14.9382
   XY=              0.0000   XZ=              0.0001   YZ=             -0.0000

 Normal termination of Gaussian 16 at Tue Nov 19 11:58:55 2024.
