 Gaussian 16, Revision A.03,
 Gaussian 16:  ES64L-G16RevA.03 25-Dec-2016

 ---------------------------------------
 #p UM062X/6-311+G** force int=superfine
 ---------------------------------------

 -------------------
 Title Card Required
 -------------------
 Symbolic Z-matrix:
 Charge =  1 Multiplicity = 2

                         Standard orientation:
 ---------------------------------------------------------------------
 Center     Atomic      Atomic             Coordinates (Angstroms)
 Number     Number       Type             X           Y           Z
 ---------------------------------------------------------------------
      1          7           0        0.000000    0.000000    0.930391
      2          7           0        0.000000    0.000000   -0.930391
 ---------------------------------------------------------------------

 SCF Done:  E(UM062X) =  -108.627341333     A.U. after   10 cycles

 Unable to determine electronic state:  an orbital has unidentified symmetry.
 Alpha  occ. eigenvalues --  -15.37792 -15.37767  -1.34010  -1.18862  -0.80900
 Alpha  occ. eigenvalues --   -0.77808  -0.75168
 Alpha virt. eigenvalues --   -0.56090  -0.53396  -0.42226  -0.13903  -0.09288
 Alpha virt. eigenvalues --   -0.09038  -0.08839  -0.04088  -0.03072  -0.02796
 Alpha virt. eigenvalues --    0.06126   0.43264   0.45015   0.50172   0.53475

  Beta  occ. eigenvalues --  -15.37359 -15.37341  -1.30095  -1.15514  -0.79120
  Beta  occ. eigenvalues --   -0.73377
  Beta virt. eigenvalues --   -0.53111  -0.51630  -0.45245  -0.40367  -0.15536
  Beta virt. eigenvalues --   -0.09931  -0.09462  -0.09205  -0.04849  -0.03323
  Beta virt. eigenvalues --   -0.03121   0.04770   0.44930   0.45268   0.49988

 Mulliken charges and spin densities:
               1          2
     1  N    0.500000   0.500000
     2  N    0.500000   0.500000
 Sum of Mulliken charges =   1.00000   1.00000

 Dipole moment (field-independent basis, Debye):
    X=              0.0000    Y=              0.0000    Z=             -0.0000  Tot=              0.0000
 Quadrupole moment (field-independent basis, Debye-Ang):
   XX=             -8.3511   YY=             -9.7899   ZZ=             -4.8849
   XY=              0.0000   XZ=             -0.0000   YZ=              0.0000

 Optimization completed.
    -- Stationary point found.
 Normal termination of Gaussian 16 at Wed Feb 26 13:43:44 2025.
