 Gaussian 16, Revision A.03,
 Gaussian 16:  ES64L-G16RevA.03 25-Dec-2016

 ---------------------------------------------------
 #p UM062X/6-311+G** force int=superfine pop=saveNBO
 ---------------------------------------------------

 -------------------
 Title Card Required
 -------------------
 Symbolic Z-matrix:
 Charge =  0 Multiplicity = 1

                         Standard orientation:
 ---------------------------------------------------------------------
 Center     Atomic      Atomic             Coordinates (Angstroms)
 Number     Number       Type             X           Y           Z
 ---------------------------------------------------------------------
      1         15           0        0.000000    0.000000    1.013495
      2         15           0        0.000000    0.000000   -1.013495
 ---------------------------------------------------------------------

 SCF Done:  E(UM062X) =  -682.648074166     A.U. after    9 cycles

 The electronic state is 1-SGG.
 Alpha  occ. eigenvalues --  -78.06489 -78.06489  -6.88719  -6.88695  -5.00138
 Alpha  occ. eigenvalues --   -5.00138  -5.00128  -5.00128  -4.99990  -4.99902
 Alpha  occ. eigenvalues --   -0.74648  -0.54289  -0.34718  -0.32237  -0.32237
 Alpha virt. eigenvalues --   -0.08212  -0.08212   0.01936   0.02694   0.04177
 Alpha virt. eigenvalues --    0.04177   0.05875   0.07085   0.07085   0.09147
 Alpha virt. eigenvalues --    0.13266   0.25885   0.30955   0.30955   0.33831

  Beta  occ. eigenvalues --  -78.06489 -78.06489  -6.88719  -6.88695  -5.00138
  Beta  occ. eigenvalues --   -5.00138  -5.00128  -5.00128  -4.99990  -4.99902
  Beta  occ. eigenvalues --   -0.74648  -0.54289  -0.34718  -0.32237  -0.32237
  Beta virt. eigenvalues --   -0.08212  -0.08212   0.01936   0.02694   0.04177
  Beta virt. eigenvalues --    0.04177   0.05875   0.07085   0.07085   0.09147
  Beta virt. eigenvalues --    0.13266   0.25885   0.30955   0.30955   0.33831

 Mulliken charges and spin densities:
               1          2
     1  P    0.000000   0.000000
     2  P    0.000000   0.000000
 Sum of Mulliken charges =   0.00000   0.00000

 Dipole moment (field-independent basis, Debye):
    X=             -0.0000    Y=              0.0000    Z=              0.0000  Tot=              0.0000
 Quadrupole moment (field-independent basis, Debye-Ang):
   XX=            -26.8625   YY=            -26.8625   ZZ=            -26.3639
   XY=              0.0000   XZ=             -0.0000   YZ=             -0.0000

 Summary of Natural Population Analysis:

                                       Natural Population
                Natural  -----------------------------------------------
    Atom  No    Charge         Core      Valence    Rydberg      Total
 -----------------------------------------------------------------------
      P    1    0.00000      4.99970     2.48256    0.01773     7.50000
      P    2   -0.00000      4.99970     2.48256    0.01773     7.50000
 =======================================================================
   * Total *    0.00000      9.99941     4.96513    0.03546    15.00000

 Normal termination of Gaussian 16 at Mon Apr 21 21:19:35 2025.
