 Gaussian 16, Revision A.03,
 Gaussian 16:  ES64L-G16RevA.03 25-Dec-2016

 --------------------------------------------
 #p opt UM062X/6-311+G** nosymm int=superfine
 --------------------------------------------

 -------------------
 Title Card Required
 -------------------
 Symbolic Z-matrix:
 Charge =  0 Multiplicity = 1

 SCF Done:  E(UM062X) =  -94.2992463286     A.U. after   17 cycles
 SCF Done:  E(UM062X) =  -94.3070843337     A.U. after   12 cycles
 SCF Done:  E(UM062X) =  -94.3087991105     A.U. after   16 cycles
 SCF Done:  E(UM062X) =  -94.3088003642     A.U. after   14 cycles
 SCF Done:  E(UM062X) =  -94.3087971670     A.U. after   22 cycles
 SCF Done:  E(UM062X) =  -94.3088030778     A.U. after   15 cycles
 Optimization completed.
    -- Stationary point found.

                          Input orientation:
 ---------------------------------------------------------------------
 Center     Atomic      Atomic             Coordinates (Angstroms)
 Number     Number       Type             X           Y           Z
 ---------------------------------------------------------------------
      1          6           0       -1.181637    0.000000    0.000000
      2          7           0        1.181637    0.000000    0.000000
      3          1           0       -1.854713   -0.861320    0.000400
      4          1           0        1.117688   -1.033155    0.000011
      5          1           0       -1.664802    0.977830    0.000544
 ---------------------------------------------------------------------

 Alpha  occ. eigenvalues --  -14.79802 -10.67199  -0.86164  -0.79063  -0.54293
 Alpha  occ. eigenvalues --   -0.42143  -0.35619  -0.28551
 Alpha virt. eigenvalues --   -0.11978  -0.06192   0.01577   0.04853   0.06386
 Alpha virt. eigenvalues --    0.07608   0.12842   0.15129   0.16329   0.17528
 Alpha virt. eigenvalues --    0.20306   0.20730   0.27154   0.41889   0.42712

  Beta  occ. eigenvalues --  -14.79802 -10.67199  -0.86164  -0.79063  -0.54293
  Beta  occ. eigenvalues --   -0.42143  -0.35619  -0.28551
  Beta virt. eigenvalues --   -0.11978  -0.06192   0.01577   0.04853   0.06386
  Beta virt. eigenvalues --    0.07608   0.12842   0.15129   0.16329   0.17528
  Beta virt. eigenvalues --    0.20306   0.20730   0.27154   0.41889   0.42712

 Mulliken charges and spin densities:
               1          2
     1  C   -0.288908   0.000001
     2  N   -0.271066  -0.000001
     3  H    0.183949  -0.000000
     4  H    0.185740   0.000000
     5  H    0.190285  -0.000000
 Sum of Mulliken charges =  -0.00000  -0.00000

 Dipole moment (field-independent basis, Debye):
    X=             -3.5958    Y=             -1.3464    Z=              0.0013  Tot=              3.8396
 Quadrupole moment (field-independent basis, Debye-Ang):
   XX=            -10.3401   YY=            -12.1412   ZZ=            -15.5104
   XY=             -2.0953   XZ=              0.0006   YZ=             -0.0002

 Normal termination of Gaussian 16 at Mon Apr 21 18:17:55 2025.
