 Gaussian 16, Revision A.03,
 Gaussian 16:  ES64L-G16RevA.03 25-Dec-2016

 --------------------------------------------
 #p opt UM062X/6-311+G** nosymm int=superfine
 --------------------------------------------

 -------------------
 Title Card Required
 -------------------
 Symbolic Z-matrix:
 Charge =  0 Multiplicity = 1

 SCF Done:  E(UM062X) =  -81.8450953056     A.U. after   12 cycles
 SCF Done:  E(UM062X) =  -81.8493623145     A.U. after   10 cycles
 SCF Done:  E(UM062X) =  -81.8513000793     A.U. after   11 cycles
 SCF Done:  E(UM062X) =  -81.8447904897     A.U. after   12 cycles
 SCF Done:  E(UM062X) =  -81.8514150450     A.U. after   10 cycles
 SCF Done:  E(UM062X) =  -81.8513535100     A.U. after   13 cycles
 SCF Done:  E(UM062X) =  -81.8544297299     A.U. after   12 cycles
 SCF Done:  E(UM062X) =  -81.8510545399     A.U. after   13 cycles
 SCF Done:  E(UM062X) =  -81.8587029116     A.U. after   11 cycles
 SCF Done:  E(UM062X) =  -81.8643491268     A.U. after   12 cycles
 SCF Done:  E(UM062X) =  -81.8619962790     A.U. after   12 cycles
 SCF Done:  E(UM062X) =  -81.8645194243     A.U. after   10 cycles
 SCF Done:  E(UM062X) =  -81.8645232857     A.U. after    9 cycles
 Optimization completed.
    -- Stationary point found.

                          Input orientation:
 ---------------------------------------------------------------------
 Center     Atomic      Atomic             Coordinates (Angstroms)
 Number     Number       Type             X           Y           Z
 ---------------------------------------------------------------------
      1          5           0       -1.145399    0.000000    0.000000
      2          7           0        1.145399    0.000000    0.000000
      3          1           0       -1.590090   -1.087697   -0.035569
      4          1           0        1.315189    0.814078    0.591819
      5          1           0       -1.590105    1.087680   -0.035890
      6          1           0        1.315184   -0.813905    0.592058
 ---------------------------------------------------------------------

 Alpha  occ. eigenvalues --  -14.72606  -7.14444  -0.88957  -0.59942  -0.50518
 Alpha  occ. eigenvalues --   -0.46921  -0.35930  -0.29888
 Alpha virt. eigenvalues --   -0.05677  -0.00435   0.01453   0.03341   0.05265
 Alpha virt. eigenvalues --    0.06389   0.11457   0.13825   0.14320   0.16804
 Alpha virt. eigenvalues --    0.20396   0.20766   0.21488   0.29371   0.33916

  Beta  occ. eigenvalues --  -14.72606  -7.14444  -0.88957  -0.59942  -0.50518
  Beta  occ. eigenvalues --   -0.46921  -0.35930  -0.29888
  Beta virt. eigenvalues --   -0.05677  -0.00435   0.01453   0.03341   0.05265
  Beta virt. eigenvalues --    0.06389   0.11457   0.13825   0.14320   0.16804
  Beta virt. eigenvalues --    0.20396   0.20766   0.21488   0.29371   0.33916

 Mulliken charges and spin densities:
               1          2
     1  B    0.197741  -0.000000
     2  N   -0.745883   0.000000
     3  H    0.039650   0.000000
     4  H    0.234422  -0.000000
     5  H    0.039650   0.000000
     6  H    0.234421   0.000000
 Sum of Mulliken charges =  -0.00000   0.00000

 Dipole moment (field-independent basis, Debye):
    X=             -2.5107    Y=              0.0002    Z=              1.6054  Tot=              2.9801
 Quadrupole moment (field-independent basis, Debye-Ang):
   XX=            -14.8658   YY=            -13.3283   ZZ=            -14.4778
   XY=              0.0004   XZ=              2.5516   YZ=             -0.0002

 Normal termination of Gaussian 16 at Mon Apr 21 17:42:31 2025.
