 Gaussian 16, Revision A.03,
 Gaussian 16:  ES64L-G16RevA.03 25-Dec-2016

 --------------------------------------------
 #p opt UM062X/6-311+G** nosymm int=superfine
 --------------------------------------------

 -------------------
 Title Card Required
 -------------------
 Symbolic Z-matrix:
 Charge =  0 Multiplicity = 1

 SCF Done:  E(UM062X) =  -114.089791452     A.U. after   17 cycles
 SCF Done:  E(UM062X) =  -114.091920040     A.U. after   10 cycles
 SCF Done:  E(UM062X) =  -114.092593694     A.U. after    9 cycles
 SCF Done:  E(UM062X) =  -114.092598294     A.U. after    8 cycles
 Optimization completed.
    -- Stationary point found.

                          Input orientation:
 ---------------------------------------------------------------------
 Center     Atomic      Atomic             Coordinates (Angstroms)
 Number     Number       Type             X           Y           Z
 ---------------------------------------------------------------------
      1          6           0       -1.698311    0.000000    0.000000
      2          8           0        1.698311    0.000000    0.000000
      3          1           0       -2.373424   -0.874465    0.000001
      4          1           0       -2.373428    0.874462    0.000002
 ---------------------------------------------------------------------

 Alpha  occ. eigenvalues --  -19.73369 -10.63589  -1.03229  -0.77760  -0.50257
 Alpha  occ. eigenvalues --   -0.42112  -0.42106  -0.33386
 Alpha virt. eigenvalues --   -0.16441  -0.10138   0.01533   0.05883   0.07748
 Alpha virt. eigenvalues --    0.08206   0.15704   0.17113   0.18136   0.20099
 Alpha virt. eigenvalues --    0.22426   0.26549   0.43291   0.46593   0.57165

  Beta  occ. eigenvalues --  -19.73369 -10.63589  -1.03229  -0.77760  -0.50257
  Beta  occ. eigenvalues --   -0.42112  -0.42106  -0.33386
  Beta virt. eigenvalues --   -0.16441  -0.10138   0.01533   0.05883   0.07748
  Beta virt. eigenvalues --    0.08206   0.15704   0.17113   0.18136   0.20099
  Beta virt. eigenvalues --    0.22426   0.26549   0.43291   0.46593   0.57165

 Mulliken charges and spin densities:
               1          2
     1  C   -0.259254  -0.000000
     2  O   -0.038988  -0.000000
     3  H    0.149121  -0.000000
     4  H    0.149121   0.000000
 Sum of Mulliken charges =  -0.00000  -0.00000

 Dipole moment (field-independent basis, Debye):
    X=             -3.0855    Y=             -0.0000    Z=              0.0000  Tot=              3.0855
 Quadrupole moment (field-independent basis, Debye-Ang):
   XX=             -5.6721   YY=            -13.0363   ZZ=            -12.5007
   XY=              0.0000   XZ=             -0.0000   YZ=             -0.0000

 Normal termination of Gaussian 16 at Mon Apr 21 18:45:42 2025.
