 Gaussian 16, Revision A.03,
 Gaussian 16:  ES64L-G16RevA.03 25-Dec-2016

 --------------------------------------------
 #p opt UM062X/6-311+G** nosymm int=superfine
 --------------------------------------------

 -------------------
 Title Card Required
 -------------------
 Symbolic Z-matrix:
 Charge =  0 Multiplicity = 1

 SCF Done:  E(UM062X) =  -79.7528335941     A.U. after    8 cycles
 SCF Done:  E(UM062X) =  -79.7635234113     A.U. after    8 cycles
 SCF Done:  E(UM062X) =  -79.7638087716     A.U. after    7 cycles
 Optimization completed.
    -- Stationary point found.

                          Input orientation:
 ---------------------------------------------------------------------
 Center     Atomic      Atomic             Coordinates (Angstroms)
 Number     Number       Type             X           Y           Z
 ---------------------------------------------------------------------
      1          6           0       -0.656650    0.000000    0.000000
      2          6           0        0.656718    0.000000    0.000000
      3          1           0        1.101818   -0.868315    0.502473
      4          1           0       -1.101730   -0.869323   -0.500766
      5          1           0        1.101798    0.869324    0.500762
      6          1           0        1.101840   -0.000953   -1.003224
      7          1           0       -1.101751    0.868313   -0.502478
      8          1           0       -1.101775    0.000951    1.003222
 ---------------------------------------------------------------------

 Alpha  occ. eigenvalues --  -10.50784 -10.50667  -0.89767  -0.68782  -0.52293
 Alpha  occ. eigenvalues --   -0.52292  -0.47605  -0.37633  -0.37632
 Alpha virt. eigenvalues --    0.02128   0.04197   0.05176   0.05176   0.08740
 Alpha virt. eigenvalues --    0.08892   0.08892   0.14158   0.19299   0.19299
 Alpha virt. eigenvalues --    0.20107   0.20107   0.24082   0.27936   0.35570

  Beta  occ. eigenvalues --  -10.50784 -10.50667  -0.89767  -0.68782  -0.52293
  Beta  occ. eigenvalues --   -0.52292  -0.47605  -0.37633  -0.37632
  Beta virt. eigenvalues --    0.02128   0.04197   0.05176   0.05176   0.08740
  Beta virt. eigenvalues --    0.08892   0.08892   0.14158   0.19299   0.19299
  Beta virt. eigenvalues --    0.20107   0.20107   0.24082   0.27936   0.35570

 Mulliken charges and spin densities:
               1          2
     1  C   -0.447460   0.000000
     2  C   -0.447460  -0.000000
     3  H    0.149154   0.000000
     4  H    0.149153  -0.000000
     5  H    0.149153   0.000000
     6  H    0.149153   0.000000
     7  H    0.149154  -0.000000
     8  H    0.149153  -0.000000
 Sum of Mulliken charges =  -0.00000   0.00000

 Dipole moment (field-independent basis, Debye):
    X=              0.0000    Y=             -0.0000    Z=             -0.0000  Tot=              0.0000
 Quadrupole moment (field-independent basis, Debye-Ang):
   XX=            -15.6304   YY=            -14.9621   ZZ=            -14.9621
   XY=             -0.0000   XZ=             -0.0000   YZ=             -0.0001

 Normal termination of Gaussian 16 at Tue Nov 19 11:48:23 2024.
