 Gaussian 16, Revision A.03,
 Gaussian 16:  ES64L-G16RevA.03 25-Dec-2016

 ---------------------------------------------------------
 #p opt UM062X/6-311+G** nosymm int=superfine SCF=NoVarAcc
 ---------------------------------------------------------

 -------------------
 Title Card Required
 -------------------
 Symbolic Z-matrix:
 Charge =  1 Multiplicity = 2

 SCF Done:  E(UM062X) =  -77.8962727528     A.U. after   10 cycles
 SCF Done:  E(UM062X) =  -77.9002389293     A.U. after    9 cycles
 SCF Done:  E(UM062X) =  -77.9028649448     A.U. after   10 cycles
 SCF Done:  E(UM062X) =  -77.9028684196     A.U. after    8 cycles
 Optimization completed.
    -- Stationary point found.

                          Input orientation:
 ---------------------------------------------------------------------
 Center     Atomic      Atomic             Coordinates (Angstroms)
 Number     Number       Type             X           Y           Z
 ---------------------------------------------------------------------
      1          6           0       -2.206027    0.000000    0.000000
      2          6           0        2.206027    0.000000    0.000000
      3          1           0       -2.765807   -0.942363    0.000000
      4          1           0       -2.765748    0.942398    0.000000
      5          1           0        2.765807    0.942363   -0.000000
      6          1           0        2.765748   -0.942398   -0.000000
 ---------------------------------------------------------------------

 Alpha  occ. eigenvalues --  -10.87990 -10.87990  -0.99368  -0.99347  -0.74044
 Alpha  occ. eigenvalues --   -0.74030  -0.57313  -0.56649
 Alpha virt. eigenvalues --   -0.31213  -0.31032  -0.12417  -0.10710  -0.08667
 Alpha virt. eigenvalues --   -0.06786  -0.06166  -0.06096  -0.04038  -0.01164
 Alpha virt. eigenvalues --    0.00018   0.00675   0.02445   0.04781   0.27747

  Beta  occ. eigenvalues --  -10.87222 -10.87222  -0.97210  -0.97091  -0.73024
  Beta  occ. eigenvalues --   -0.73004  -0.45460
  Beta virt. eigenvalues --   -0.36754  -0.29459  -0.29221  -0.12151  -0.10865
  Beta virt. eigenvalues --   -0.08505  -0.06614  -0.06342  -0.04363  -0.04204
  Beta virt. eigenvalues --   -0.01009   0.00790   0.00987   0.02581   0.05465

 Mulliken charges and spin densities:
               1          2
     1  C    0.026072   0.486136
     2  C    0.026072   0.486136
     3  H    0.236964   0.006932
     4  H    0.236964   0.006932
     5  H    0.236964   0.006932
     6  H    0.236964   0.006932
 Sum of Mulliken charges =   1.00000   1.00000

 Dipole moment (field-independent basis, Debye):
    X=             -0.0000    Y=             -0.0000    Z=              0.0000  Tot=              0.0000
 Quadrupole moment (field-independent basis, Debye-Ang):
   XX=             25.6145   YY=             -9.4555   ZZ=            -10.7271
   XY=             -0.0001   XZ=             -0.0000   YZ=             -0.0000

 Normal termination of Gaussian 16 at Tue Dec  3 13:36:31 2024.
