 Gaussian 16, Revision A.03,
 Gaussian 16:  ES64L-G16RevA.03 25-Dec-2016

 ---------------------------------------
 #p UM062X/6-311+G** force int=superfine
 ---------------------------------------

 -------------------
 Title Card Required
 -------------------
 Symbolic Z-matrix:
 Charge =  0 Multiplicity = 1

                         Standard orientation:
 ---------------------------------------------------------------------
 Center     Atomic      Atomic             Coordinates (Angstroms)
 Number     Number       Type             X           Y           Z
 ---------------------------------------------------------------------
      1          7           0        0.000000    0.000000    1.370048
      2          7           0        0.000000    0.000000   -1.370048
 ---------------------------------------------------------------------

 SCF Done:  E(UM062X) =  -108.814631277     A.U. after   10 cycles

 The electronic state is 1-SGG.
 Alpha  occ. eigenvalues --  -14.97393 -14.97386  -0.88506  -0.85963  -0.36895
 Alpha  occ. eigenvalues --   -0.34197  -0.34197
 Alpha virt. eigenvalues --   -0.22729  -0.22729  -0.19516   0.07305   0.09326
 Alpha virt. eigenvalues --    0.11408   0.11408   0.15200   0.15200   0.16189
 Alpha virt. eigenvalues --    0.23084   0.70497   0.75375   0.75375   0.80733

  Beta  occ. eigenvalues --  -14.97393 -14.97386  -0.88506  -0.85963  -0.36895
  Beta  occ. eigenvalues --   -0.34197  -0.34197
  Beta virt. eigenvalues --   -0.22729  -0.22729  -0.19516   0.07305   0.09326
  Beta virt. eigenvalues --    0.11408   0.11408   0.15200   0.15200   0.16189
  Beta virt. eigenvalues --    0.23084   0.70497   0.75375   0.75375   0.80733

 Mulliken charges and spin densities:
               1          2
     1  N   -0.000000   0.000000
     2  N   -0.000000   0.000000
 Sum of Mulliken charges =  -0.00000   0.00000

 Dipole moment (field-independent basis, Debye):
    X=             -0.0000    Y=              0.0000    Z=              0.0000  Tot=              0.0000
 Quadrupole moment (field-independent basis, Debye-Ang):
   XX=            -12.4242   YY=            -12.4242   ZZ=            -10.5784
   XY=              0.0000   XZ=             -0.0000   YZ=              0.0000

 Optimization completed.
    -- Stationary point found.
 Normal termination of Gaussian 16 at Wed Feb 26 13:55:49 2025.
