 Gaussian 16, Revision A.03,
 Gaussian 16:  ES64L-G16RevA.03 25-Dec-2016

 --------------------------------------------
 #p opt UM062X/6-311+G** nosymm int=superfine
 --------------------------------------------

 -------------------
 Title Card Required
 -------------------
 Symbolic Z-matrix:
 Charge =  0 Multiplicity = 1

 SCF Done:  E(UM062X) =  -80.5195957949     A.U. after   16 cycles
 SCF Done:  E(UM062X) =  -80.5209423607     A.U. after   12 cycles
 SCF Done:  E(UM062X) =  -80.5219630984     A.U. after   12 cycles
 SCF Done:  E(UM062X) =  -80.5225393711     A.U. after   12 cycles
 SCF Done:  E(UM062X) =  -80.5225540181     A.U. after   11 cycles
 SCF Done:  E(UM062X) =  -80.5225545608     A.U. after   10 cycles
 Optimization completed.
    -- Stationary point found.

                          Input orientation:
 ---------------------------------------------------------------------
 Center     Atomic      Atomic             Coordinates (Angstroms)
 Number     Number       Type             X           Y           Z
 ---------------------------------------------------------------------
      1          5           0       -1.068556   -0.003715    0.000000
      2          7           0        1.066107    0.002292    0.000000
      3          1           0       -2.239809   -0.216923    0.000153
      4          1           0        1.094358    1.038444   -0.000756
 ---------------------------------------------------------------------

 Alpha  occ. eigenvalues --  -14.77462  -7.20806  -0.84769  -0.60914  -0.41874
 Alpha  occ. eigenvalues --   -0.35379  -0.27498
 Alpha virt. eigenvalues --   -0.08258  -0.07353  -0.02639   0.00681   0.04030
 Alpha virt. eigenvalues --    0.04779   0.05550   0.13290   0.16119   0.18520
 Alpha virt. eigenvalues --    0.20148   0.21966   0.25722   0.36149   0.38383

  Beta  occ. eigenvalues --  -14.77462  -7.20806  -0.84769  -0.60914  -0.41874
  Beta  occ. eigenvalues --   -0.35379  -0.27498
  Beta virt. eigenvalues --   -0.08258  -0.07353  -0.02639   0.00681   0.04030
  Beta virt. eigenvalues --    0.04779   0.05550   0.13290   0.16119   0.18520
  Beta virt. eigenvalues --    0.20148   0.21966   0.25722   0.36149   0.38383

 Mulliken charges and spin densities:
               1          2
     1  B    0.155347   0.000000
     2  N   -0.408781  -0.000000
     3  H    0.072607   0.000000
     4  H    0.180827   0.000000
 Sum of Mulliken charges =  -0.00000  -0.00000

 Dipole moment (field-independent basis, Debye):
    X=             -4.2427    Y=              1.1837    Z=             -0.0009  Tot=              4.4048
 Quadrupole moment (field-independent basis, Debye-Ang):
   XX=            -10.9710   YY=            -12.0977   ZZ=            -15.5495
   XY=              1.9793   XZ=             -0.0014   YZ=             -0.0025

 Normal termination of Gaussian 16 at Mon Apr 21 22:20:21 2025.
