 Gaussian 16, Revision A.03,
 Gaussian 16:  ES64L-G16RevA.03 25-Dec-2016

 ---------------------------------------
 #p UM062X/6-311+G** force int=superfine
 ---------------------------------------

 -------------------
 Title Card Required
 -------------------
 Symbolic Z-matrix:
 Charge =  1 Multiplicity = 2

                         Standard orientation:
 ---------------------------------------------------------------------
 Center     Atomic      Atomic             Coordinates (Angstroms)
 Number     Number       Type             X           Y           Z
 ---------------------------------------------------------------------
      1          7           0        0.000000    0.000000    1.730391
      2          7           0        0.000000    0.000000   -1.730391
 ---------------------------------------------------------------------

 SCF Done:  E(UM062X) =  -108.344805139     A.U. after   10 cycles

 Unable to determine electronic state:  partially filled degenerate orbitals.
 Alpha  occ. eigenvalues --  -15.31262 -15.31259  -1.19899  -1.19223  -0.65710
 Alpha  occ. eigenvalues --   -0.64138  -0.63084
 Alpha virt. eigenvalues --   -0.57370  -0.54724  -0.53855  -0.12915  -0.08134
 Alpha virt. eigenvalues --   -0.07982  -0.07825  -0.04010  -0.02904  -0.02716
 Alpha virt. eigenvalues --    0.03781   0.51036   0.51208   0.52422   0.52626

  Beta  occ. eigenvalues --  -15.30772 -15.30770  -1.16158  -1.15561  -0.62397
  Beta  occ. eigenvalues --   -0.61306
  Beta virt. eigenvalues --   -0.52925  -0.51968  -0.44053  -0.43639  -0.13844
  Beta virt. eigenvalues --   -0.08907  -0.08236  -0.07881  -0.04269  -0.03222
  Beta virt. eigenvalues --   -0.02945   0.02545   0.51232   0.52221   0.52580

 Mulliken charges and spin densities:
               1          2
     1  N    0.500000   0.500000
     2  N    0.500000   0.500000
 Sum of Mulliken charges =   1.00000   1.00000

 Dipole moment (field-independent basis, Debye):
    X=              0.0000    Y=              0.0000    Z=              0.0000  Tot=              0.0000
 Quadrupole moment (field-independent basis, Debye-Ang):
   XX=            -10.0111   YY=             -8.5668   ZZ=              5.8837
   XY=             -0.0000   XZ=             -0.0000   YZ=             -0.0000

 Optimization completed.
    -- Stationary point found.
 Normal termination of Gaussian 16 at Wed Feb 26 14:02:00 2025.
