 Gaussian 16, Revision A.03,
 Gaussian 16:  ES64L-G16RevA.03 25-Dec-2016

 --------------------------------------------
 #p opt UM062X/6-311+G** nosymm int=superfine
 --------------------------------------------

 -------------------
 Title Card Required
 -------------------
 Symbolic Z-matrix:
 Charge =  0 Multiplicity = 1

 SCF Done:  E(UM062X) =  -474.442015834     A.U. after   17 cycles
 SCF Done:  E(UM062X) =  -474.443089225     A.U. after   13 cycles
 SCF Done:  E(UM062X) =  -474.444067694     A.U. after   15 cycles
 SCF Done:  E(UM062X) =  -474.444184795     A.U. after   14 cycles
 SCF Done:  E(UM062X) =  -474.410254116     A.U. after   23 cycles
 SCF Done:  E(UM062X) =  -474.437218190     A.U. after   18 cycles
 SCF Done:  E(UM062X) =  -474.444097611     A.U. after   16 cycles
 SCF Done:  E(UM062X) =  -474.444303902     A.U. after   13 cycles
 SCF Done:  E(UM062X) =  -474.444973727     A.U. after   15 cycles
 SCF Done:  E(UM062X) =  -474.444674054     A.U. after   23 cycles
 SCF Done:  E(UM062X) =  -474.445852007     A.U. after   17 cycles
 SCF Done:  E(UM062X) =  -474.446273487     A.U. after   14 cycles
 SCF Done:  E(UM062X) =  -474.447214713     A.U. after   17 cycles
 SCF Done:  E(UM062X) =  -474.447848314     A.U. after   15 cycles
 SCF Done:  E(UM062X) =  -474.447908631     A.U. after   16 cycles
 SCF Done:  E(UM062X) =  -474.447939011     A.U. after   14 cycles
 SCF Done:  E(UM062X) =  -474.447948355     A.U. after   16 cycles
 SCF Done:  E(UM062X) =  -474.447948682     A.U. after   13 cycles
 Optimization completed.
    -- Stationary point found.

                          Input orientation:
 ---------------------------------------------------------------------
 Center     Atomic      Atomic             Coordinates (Angstroms)
 Number     Number       Type             X           Y           Z
 ---------------------------------------------------------------------
      1          8           0       -1.310342   -0.023165   -0.025314
      2         16           0        1.311105    0.014918    0.018659
      3          1           0       -1.318146   -0.310517   -0.951064
      4          1           0        1.188959   -0.888315    1.008219
 ---------------------------------------------------------------------

 Alpha  occ. eigenvalues --  -89.97567 -19.67484  -8.33609  -6.25829  -6.25457
 Alpha  occ. eigenvalues --   -6.24904  -1.08799  -0.83286  -0.52775  -0.49230
 Alpha  occ. eigenvalues --   -0.39922  -0.38549  -0.35046
 Alpha virt. eigenvalues --   -0.17096   0.01595   0.04055   0.04729   0.05642
 Alpha virt. eigenvalues --    0.07403   0.14830   0.19496   0.20004   0.21437
 Alpha virt. eigenvalues --    0.26582   0.31268   0.34037   0.35490   0.40084

  Beta  occ. eigenvalues --  -89.97567 -19.67484  -8.33609  -6.25829  -6.25457
  Beta  occ. eigenvalues --   -6.24904  -1.08799  -0.83286  -0.52775  -0.49230
  Beta  occ. eigenvalues --   -0.39922  -0.38549  -0.35046
  Beta virt. eigenvalues --   -0.17096   0.01595   0.04055   0.04729   0.05642
  Beta virt. eigenvalues --    0.07403   0.14830   0.19496   0.20004   0.21437
  Beta virt. eigenvalues --    0.26582   0.31268   0.34037   0.35490   0.40084

 Mulliken charges and spin densities:
               1          2
     1  O   -0.429418  -0.000001
     2  S    0.068734   0.000001
     3  H    0.249426   0.000000
     4  H    0.111258  -0.000000
 Sum of Mulliken charges =  -0.00000  -0.00000

 Dipole moment (field-independent basis, Debye):
    X=              1.9336    Y=             -1.2451    Z=             -0.7245  Tot=              2.4112
 Quadrupole moment (field-independent basis, Debye-Ang):
   XX=            -18.3719   YY=            -20.5030   ZZ=            -17.8980
   XY=             -0.2754   XZ=              3.6736   YZ=             -1.2895

 Normal termination of Gaussian 16 at Mon Apr 21 22:44:38 2025.
