 Gaussian 16, Revision A.03,
 Gaussian 16:  ES64L-G16RevA.03 25-Dec-2016

 --------------------------------------------
 #p opt UM062X/6-311+G** nosymm int=superfine
 --------------------------------------------

 -------------------
 Title Card Required
 -------------------
 Symbolic Z-matrix:
 Charge =  0 Multiplicity = 1

 SCF Done:  E(UM062X) =  -94.2508919987     A.U. after   12 cycles
 SCF Done:  E(UM062X) =  -94.2544279410     A.U. after   11 cycles
 SCF Done:  E(UM062X) =  -94.2558179887     A.U. after   17 cycles
 SCF Done:  E(UM062X) =  -94.2560112319     A.U. after    9 cycles
 SCF Done:  E(UM062X) =  -94.2567735419     A.U. after   17 cycles
 SCF Done:  E(UM062X) =  -94.2580081482     A.U. after   20 cycles
 SCF Done:  E(UM062X) =  -94.2588215355     A.U. after   20 cycles
 SCF Done:  E(UM062X) =  -94.2592161412     A.U. after   29 cycles
 SCF Done:  E(UM062X) =  -94.2595063305     A.U. after   66 cycles
 SCF Done:  E(UM062X) =  -94.2595356434     A.U. after   40 cycles
 SCF Done:  E(UM062X) =  -94.2595741512     A.U. after   39 cycles
 SCF Done:  E(UM062X) =  -94.2597288942     A.U. after  106 cycles
 SCF Done:  E(UM062X) =  -94.2598514161     A.U. after   44 cycles
 SCF Done:  E(UM062X) =  -94.2599328449     A.U. after   83 cycles
 SCF Done:  E(UM062X) =  -94.2600037087     A.U. after   14 cycles
 SCF Done:  E(UM062X) =  -94.2600243777     A.U. after   32 cycles
 SCF Done:  E(UM062X) =  -94.2600500408     A.U. after   13 cycles
 SCF Done:  E(UM062X) =  -94.2600508143     A.U. after   14 cycles
 SCF Done:  E(UM062X) =  -94.2600508241     A.U. after    9 cycles
 Optimization completed.
    -- Stationary point found.

                          Input orientation:
 ---------------------------------------------------------------------
 Center     Atomic      Atomic             Coordinates (Angstroms)
 Number     Number       Type             X           Y           Z
 ---------------------------------------------------------------------
      1          6           0       -1.881637   -0.000000   -0.000000
      2          7           0        1.881637    0.000000   -0.000000
      3          1           0       -2.571889   -0.864125   -0.035447
      4          1           0        0.839756   -0.000379    0.000013
      5          1           0       -2.570846    0.864909    0.036552
 ---------------------------------------------------------------------

 Alpha  occ. eigenvalues --  -14.81211 -10.62813  -0.87577  -0.77504  -0.49620
 Alpha  occ. eigenvalues --   -0.44618  -0.33634  -0.32142
 Alpha virt. eigenvalues --   -0.11099  -0.10085   0.01149   0.05294   0.06543
 Alpha virt. eigenvalues --    0.07388   0.13559   0.13921   0.15695   0.17472
 Alpha virt. eigenvalues --    0.17930   0.18300   0.22339   0.42952   0.47092

  Beta  occ. eigenvalues --  -14.81211 -10.62813  -0.87577  -0.77504  -0.49620
  Beta  occ. eigenvalues --   -0.44618  -0.33634  -0.32142
  Beta virt. eigenvalues --   -0.11099  -0.10085   0.01149   0.05294   0.06543
  Beta virt. eigenvalues --    0.07388   0.13559   0.13921   0.15695   0.17472
  Beta virt. eigenvalues --    0.17930   0.18300   0.22339   0.42952   0.47092

 Mulliken charges and spin densities:
               1          2
     1  C   -0.307148   0.000000
     2  N   -0.249451   0.000000
     3  H    0.145728  -0.000000
     4  H    0.265161  -0.000000
     5  H    0.145709  -0.000000
 Sum of Mulliken charges =  -0.00000  -0.00000

 Dipole moment (field-independent basis, Debye):
    X=             -4.1756    Y=              0.0005    Z=              0.0016  Tot=              4.1756
 Quadrupole moment (field-independent basis, Debye-Ang):
   XX=            -13.6271   YY=            -12.2384   ZZ=            -14.9010
   XY=             -0.0026   XZ=             -0.0013   YZ=              0.1132

 Normal termination of Gaussian 16 at Mon Apr 21 18:37:12 2025.
