 Gaussian 16, Revision A.03,
 Gaussian 16:  ES64L-G16RevA.03 25-Dec-2016

 ---------------------------------------------------------
 #p opt UM062X/6-311+G** nosymm int=superfine SCF=NoVarAcc
 ---------------------------------------------------------

 -------------------
 Title Card Required
 -------------------
 Symbolic Z-matrix:
 Charge =  0 Multiplicity = 1

 SCF Done:  E(UM062X) =  -78.2065707190     A.U. after    9 cycles
 SCF Done:  E(UM062X) =  -78.2231301131     A.U. after    9 cycles
 SCF Done:  E(UM062X) =  -78.2374385251     A.U. after    8 cycles
 SCF Done:  E(UM062X) =  -78.2377023632     A.U. after    8 cycles
 Optimization completed.
    -- Stationary point found.

                          Input orientation:
 ---------------------------------------------------------------------
 Center     Atomic      Atomic             Coordinates (Angstroms)
 Number     Number       Type             X           Y           Z
 ---------------------------------------------------------------------
      1          6           0       -8.035595    0.000000    0.000000
      2          6           0        8.035595    0.000000    0.000000
      3          1           0       -8.734070   -0.861061   -0.000000
      4          1           0       -8.734041    0.861078   -0.000000
      5          1           0        8.734070    0.861061    0.000000
      6          1           0        8.734041   -0.861078    0.000000
 ---------------------------------------------------------------------

 Alpha  occ. eigenvalues --  -10.60844 -10.60844  -0.75768  -0.75768  -0.47651
 Alpha  occ. eigenvalues --   -0.47651  -0.31471  -0.31471
 Alpha virt. eigenvalues --   -0.08287  -0.08287   0.02342   0.02342   0.06573
 Alpha virt. eigenvalues --    0.06573   0.08518   0.08518   0.09159   0.09159
 Alpha virt. eigenvalues --    0.17593   0.17593   0.19470   0.19470   0.44092

  Beta  occ. eigenvalues --  -10.60844 -10.60844  -0.75768  -0.75768  -0.47651
  Beta  occ. eigenvalues --   -0.47651  -0.31471  -0.31471
  Beta virt. eigenvalues --   -0.08287  -0.08287   0.02342   0.02342   0.06573
  Beta virt. eigenvalues --    0.06573   0.08518   0.08518   0.09159   0.09159
  Beta virt. eigenvalues --    0.17593   0.17593   0.19470   0.19470   0.44092

 Mulliken charges and spin densities:
               1          2
     1  C   -0.254872  -0.000000
     2  C   -0.254872  -0.000000
     3  H    0.127436   0.000000
     4  H    0.127436  -0.000000
     5  H    0.127436   0.000000
     6  H    0.127436   0.000000
 Sum of Mulliken charges =  -0.00000  -0.00000

 Dipole moment (field-independent basis, Debye):
    X=              0.0000    Y=              0.0000    Z=              0.0000  Tot=              0.0000
 Quadrupole moment (field-independent basis, Debye-Ang):
   XX=             48.9853   YY=            -14.4532   ZZ=            -12.8733
   XY=             -0.0005   XZ=              0.0000   YZ=             -0.0000

 Normal termination of Gaussian 16 at Tue Dec  3 17:41:54 2024.
