 Gaussian 16, Revision A.03,
 Gaussian 16:  ES64L-G16RevA.03 25-Dec-2016

 ---------------------------------------------------
 #p UM062X/6-311+G** force int=superfine pop=saveNBO
 ---------------------------------------------------

 -------------------
 Title Card Required
 -------------------
 Symbolic Z-matrix:
 Charge =  0 Multiplicity = 1

                         Standard orientation:
 ---------------------------------------------------------------------
 Center     Atomic      Atomic             Coordinates (Angstroms)
 Number     Number       Type             X           Y           Z
 ---------------------------------------------------------------------
      1          6           0        0.000000    0.000000   -1.293521
      2         16           0        0.000000    0.000000    0.485071
 ---------------------------------------------------------------------

 SCF Done:  E(UM062X) =  -436.154409631     A.U. after   11 cycles

 The electronic state is 1-SG.
 Alpha  occ. eigenvalues --  -89.95611 -10.71025  -8.31755  -6.23606  -6.23542
 Alpha  occ. eigenvalues --   -6.23542  -0.86831  -0.61482  -0.39068  -0.37866
 Alpha  occ. eigenvalues --   -0.37866
 Alpha virt. eigenvalues --   -0.08597  -0.08597   0.02777   0.03451   0.05286
 Alpha virt. eigenvalues --    0.05286   0.08920   0.10488   0.10488   0.11580
 Alpha virt. eigenvalues --    0.16914   0.34529   0.34529   0.35045   0.54898

  Beta  occ. eigenvalues --  -89.95611 -10.71025  -8.31755  -6.23606  -6.23542
  Beta  occ. eigenvalues --   -6.23542  -0.86831  -0.61482  -0.39068  -0.37866
  Beta  occ. eigenvalues --   -0.37866
  Beta virt. eigenvalues --   -0.08597  -0.08597   0.02777   0.03451   0.05286
  Beta virt. eigenvalues --    0.05286   0.08920   0.10488   0.10488   0.11580
  Beta virt. eigenvalues --    0.16914   0.34529   0.34529   0.35045   0.54898

 Mulliken charges and spin densities:
               1          2
     1  C   -0.033202   0.000000
     2  S    0.033202  -0.000000
 Sum of Mulliken charges =   0.00000   0.00000

 Dipole moment (field-independent basis, Debye):
    X=              0.0000    Y=              0.0000    Z=              0.7174  Tot=              0.7174
 Quadrupole moment (field-independent basis, Debye-Ang):
   XX=            -19.1362   YY=            -19.1362   ZZ=            -20.0892
   XY=              0.0000   XZ=              0.0000   YZ=              0.0000

 Summary of Natural Population Analysis:

                                       Natural Population
                Natural  -----------------------------------------------
    Atom  No    Charge         Core      Valence    Rydberg      Total
 -----------------------------------------------------------------------
      C    1    0.00624      0.99995     1.98251    0.01131     2.99376
      S    2   -0.00624      4.99976     2.99059    0.01589     8.00624
 =======================================================================
   * Total *   -0.00000      5.99971     4.97309    0.02720    11.00000

 Normal termination of Gaussian 16 at Mon Apr 21 19:46:05 2025.
