 Gaussian 16, Revision A.03,
 Gaussian 16:  ES64L-G16RevA.03 25-Dec-2016

 --------------------------------------------
 #p opt UM062X/6-311+G** nosymm int=superfine
 --------------------------------------------

 -------------------
 Title Card Required
 -------------------
 Symbolic Z-matrix:
 Charge =  0 Multiplicity = 1

 SCF Done:  E(UM062X) =  -151.314473981     A.U. after   23 cycles
 SCF Done:  E(UM062X) =  -151.315262374     A.U. after   43 cycles
 SCF Done:  E(UM062X) =  -151.316785034     A.U. after   18 cycles
 SCF Done:  E(UM062X) =  -151.317579331     A.U. after   42 cycles
 SCF Done:  E(UM062X) =  -151.317955434     A.U. after   24 cycles
 SCF Done:  E(UM062X) =  -151.318003344     A.U. after   26 cycles
 SCF Done:  E(UM062X) =  -151.318006997     A.U. after   18 cycles
 SCF Done:  E(UM062X) =  -151.318007699     A.U. after   16 cycles
 SCF Done:  E(UM062X) =  -151.318007796     A.U. after   18 cycles
 Optimization completed.
    -- Stationary point found.

                          Input orientation:
 ---------------------------------------------------------------------
 Center     Atomic      Atomic             Coordinates (Angstroms)
 Number     Number       Type             X           Y           Z
 ---------------------------------------------------------------------
      1          8           0       -1.736938    0.000000    0.000000
      2          8           0        1.736938    0.000000    0.000000
      3          1           0       -1.536704   -0.763017   -0.571380
      4          1           0        1.536945    0.762630    0.571979
 ---------------------------------------------------------------------

 Alpha  occ. eigenvalues --  -19.72562 -19.72561  -1.13092  -1.12803  -0.56869
 Alpha  occ. eigenvalues --   -0.56674  -0.44308  -0.44077  -0.36796
 Alpha virt. eigenvalues --   -0.26659   0.05089   0.07747   0.14906   0.15026
 Alpha virt. eigenvalues --    0.17471   0.18520   0.20105   0.20808   0.20933
 Alpha virt. eigenvalues --    0.31069   0.48774   0.51843   0.99735   1.00948

  Beta  occ. eigenvalues --  -19.72562 -19.72561  -1.13092  -1.12803  -0.56869
  Beta  occ. eigenvalues --   -0.56674  -0.44308  -0.44077  -0.36796
  Beta virt. eigenvalues --   -0.26659   0.05089   0.07747   0.14906   0.15026
  Beta virt. eigenvalues --    0.17471   0.18520   0.20105   0.20808   0.20933
  Beta virt. eigenvalues --    0.31069   0.48774   0.51843   0.99735   1.00948

 Mulliken charges and spin densities:
               1          2
     1  O   -0.268168   0.000000
     2  O   -0.268189  -0.000000
     3  H    0.268181  -0.000000
     4  H    0.268177   0.000000
 Sum of Mulliken charges =  -0.00000  -0.00000

 Dipole moment (field-independent basis, Debye):
    X=              0.0003    Y=             -0.0008    Z=              0.0012  Tot=              0.0014
 Quadrupole moment (field-independent basis, Debye-Ang):
   XX=            -13.2808   YY=            -10.5384   ZZ=            -11.9556
   XY=              4.8079   XZ=              3.6031   YZ=              2.4228

 Normal termination of Gaussian 16 at Mon Apr 21 21:33:20 2025.
