 Gaussian 16, Revision A.03,
 Gaussian 16:  ES64L-G16RevA.03 25-Dec-2016

 --------------------------------------------
 #p opt UM062X/6-311+G** nosymm int=superfine
 --------------------------------------------

 -------------------
 Title Card Required
 -------------------
 Symbolic Z-matrix:
 Charge =  0 Multiplicity = 1

 SCF Done:  E(UM062X) =  -582.370898322     A.U. after   10 cycles
 SCF Done:  E(UM062X) =  -582.373220901     A.U. after    9 cycles
 SCF Done:  E(UM062X) =  -582.373879184     A.U. after    9 cycles
 SCF Done:  E(UM062X) =  -582.373879530     A.U. after    6 cycles
 Optimization completed.
    -- Stationary point found.

                          Input orientation:
 ---------------------------------------------------------------------
 Center     Atomic      Atomic             Coordinates (Angstroms)
 Number     Number       Type             X           Y           Z
 ---------------------------------------------------------------------
      1         14           0       -2.369819    0.000000    0.000000
      2         14           0        2.369819    0.000000    0.000000
      3          1           0        2.771097   -1.420246   -0.000055
      4          1           0       -2.770878   -0.710100    1.230058
      5          1           0        2.771005    0.710276   -1.229915
      6          1           0        2.770886    0.710153    1.230025
      7          1           0       -2.771101    1.420245   -0.000113
      8          1           0       -2.771010   -0.710330   -1.229882
 ---------------------------------------------------------------------

 Alpha  occ. eigenvalues --  -67.01910 -67.01910  -5.56816  -5.56816  -3.88052
 Alpha  occ. eigenvalues --   -3.88051  -3.87808  -3.87808  -3.87808  -3.87808
 Alpha  occ. eigenvalues --   -0.61171  -0.60924  -0.42147  -0.42146  -0.42099
 Alpha  occ. eigenvalues --   -0.42098  -0.21533
 Alpha virt. eigenvalues --   -0.11198   0.02008   0.02952   0.02952   0.03243
 Alpha virt. eigenvalues --    0.05013   0.05013   0.06195   0.06677   0.07522
 Alpha virt. eigenvalues --    0.07522   0.08522   0.08523   0.11527   0.15659

  Beta  occ. eigenvalues --  -67.01910 -67.01910  -5.56816  -5.56816  -3.88052
  Beta  occ. eigenvalues --   -3.88051  -3.87808  -3.87808  -3.87808  -3.87808
  Beta  occ. eigenvalues --   -0.61171  -0.60924  -0.42147  -0.42146  -0.42099
  Beta  occ. eigenvalues --   -0.42098  -0.21533
  Beta virt. eigenvalues --   -0.11198   0.02008   0.02952   0.02952   0.03243
  Beta virt. eigenvalues --    0.05013   0.05013   0.06195   0.06677   0.07522
  Beta virt. eigenvalues --    0.07522   0.08522   0.08523   0.11527   0.15659

 Mulliken charges and spin densities:
               1          2
     1  Si   0.265294  -0.000000
     2  Si   0.265296   0.000000
     3  H   -0.088430   0.000000
     4  H   -0.088433  -0.000000
     5  H   -0.088433   0.000000
     6  H   -0.088433   0.000000
     7  H   -0.088430  -0.000000
     8  H   -0.088433  -0.000000
 Sum of Mulliken charges =  -0.00000  -0.00000

 Dipole moment (field-independent basis, Debye):
    X=              0.0000    Y=             -0.0000    Z=              0.0000  Tot=              0.0000
 Quadrupole moment (field-independent basis, Debye-Ang):
   XX=            -27.9124   YY=            -32.1916   ZZ=            -32.1918
   XY=             -0.0007   XZ=              0.0000   YZ=              0.0000

 Normal termination of Gaussian 16 at Mon Apr 21 20:16:22 2025.
