 Gaussian 16, Revision A.03,
 Gaussian 16:  ES64L-G16RevA.03 25-Dec-2016

 ---------------------------------------
 #p UM062X/6-311+G** force int=superfine
 ---------------------------------------

 -------------------
 Title Card Required
 -------------------
 Symbolic Z-matrix:
 Charge =  0 Multiplicity = 1

                         Standard orientation:
 ---------------------------------------------------------------------
 Center     Atomic      Atomic             Coordinates (Angstroms)
 Number     Number       Type             X           Y           Z
 ---------------------------------------------------------------------
      1          7           0        0.000000    0.000000    0.845048
      2          7           0        0.000000    0.000000   -0.845048
 ---------------------------------------------------------------------

 SCF Done:  E(UM062X) =  -109.181047255     A.U. after    9 cycles

 The electronic state is 1-SGG.
 Alpha  occ. eigenvalues --  -14.96168 -14.96138  -0.98821  -0.78358  -0.46324
 Alpha  occ. eigenvalues --   -0.41070  -0.41070
 Alpha virt. eigenvalues --   -0.14875  -0.14875   0.00755   0.07590   0.11400
 Alpha virt. eigenvalues --    0.11400   0.11472   0.15478   0.15954   0.15954
 Alpha virt. eigenvalues --    0.25627   0.76186   0.76186   0.76804   0.81894

  Beta  occ. eigenvalues --  -14.96168 -14.96138  -0.98821  -0.78358  -0.46324
  Beta  occ. eigenvalues --   -0.41070  -0.41070
  Beta virt. eigenvalues --   -0.14875  -0.14875   0.00755   0.07590   0.11400
  Beta virt. eigenvalues --    0.11400   0.11472   0.15478   0.15954   0.15954
  Beta virt. eigenvalues --    0.25627   0.76186   0.76186   0.76804   0.81894

 Mulliken charges and spin densities:
               1          2
     1  N   -0.000000   0.000000
     2  N   -0.000000   0.000000
 Sum of Mulliken charges =  -0.00000   0.00000

 Dipole moment (field-independent basis, Debye):
    X=              0.0000    Y=              0.0000    Z=             -0.0000  Tot=              0.0000
 Quadrupole moment (field-independent basis, Debye-Ang):
   XX=            -11.7769   YY=            -11.7769   ZZ=            -11.6291
   XY=              0.0000   XZ=             -0.0000   YZ=              0.0000

 Optimization completed.
    -- Stationary point found.
 Normal termination of Gaussian 16 at Wed Feb 26 13:45:19 2025.
