 Gaussian 16, Revision A.03,
 Gaussian 16:  ES64L-G16RevA.03 25-Dec-2016

 --------------------------------------------
 #p opt UM062X/6-311+G** nosymm int=superfine
 --------------------------------------------

 -------------------
 Title Card Required
 -------------------
 Symbolic Z-matrix:
 Charge =  0 Multiplicity = 1

 SCF Done:  E(UM062X) =  -437.382152144     A.U. after   11 cycles
 SCF Done:  E(UM062X) =  -437.383083415     A.U. after   10 cycles
 SCF Done:  E(UM062X) =  -437.383289853     A.U. after   10 cycles
 SCF Done:  E(UM062X) =  -437.381371256     A.U. after   11 cycles
 SCF Done:  E(UM062X) =  -437.383310408     A.U. after    8 cycles
 Optimization completed.
    -- Stationary point found.

                          Input orientation:
 ---------------------------------------------------------------------
 Center     Atomic      Atomic             Coordinates (Angstroms)
 Number     Number       Type             X           Y           Z
 ---------------------------------------------------------------------
      1          6           0       -0.977140    0.000000    0.000000
      2         16           0        0.977140    0.000000    0.000000
      3          1           0       -1.487456   -0.954818    0.000775
      4          1           0       -1.488539    0.954236   -0.002175
 ---------------------------------------------------------------------

 Alpha  occ. eigenvalues --  -89.91878 -10.65701  -8.27799  -6.19849  -6.19803
 Alpha  occ. eigenvalues --   -6.19175  -0.83556  -0.71039  -0.55110  -0.42585
 Alpha  occ. eigenvalues --   -0.33479  -0.30027
 Alpha virt. eigenvalues --   -0.10490   0.00448   0.03736   0.05033   0.06091
 Alpha virt. eigenvalues --    0.08085   0.08391   0.08593   0.09813   0.14887
 Alpha virt. eigenvalues --    0.16805   0.20818   0.34933   0.36615   0.36654

  Beta  occ. eigenvalues --  -89.91878 -10.65701  -8.27799  -6.19849  -6.19803
  Beta  occ. eigenvalues --   -6.19175  -0.83556  -0.71039  -0.55110  -0.42585
  Beta  occ. eigenvalues --   -0.33479  -0.30027
  Beta virt. eigenvalues --   -0.10490   0.00448   0.03736   0.05033   0.06091
  Beta virt. eigenvalues --    0.08085   0.08391   0.08593   0.09813   0.14887
  Beta virt. eigenvalues --    0.16805   0.20818   0.34933   0.36615   0.36654

 Mulliken charges and spin densities:
               1          2
     1  C   -0.360004   0.000000
     2  S   -0.055725   0.000000
     3  H    0.207869  -0.000000
     4  H    0.207861  -0.000000
 Sum of Mulliken charges =  -0.00000  -0.00000

 Dipole moment (field-independent basis, Debye):
    X=             -2.4146    Y=             -0.0004    Z=             -0.0013  Tot=              2.4146
 Quadrupole moment (field-independent basis, Debye-Ang):
   XX=            -17.3876   YY=            -20.8780   ZZ=            -21.0532
   XY=             -0.0013   XZ=              0.0010   YZ=             -0.0003

 Normal termination of Gaussian 16 at Mon Apr 21 19:41:32 2025.
