 Gaussian 16, Revision A.03,
 Gaussian 16:  ES64L-G16RevA.03 25-Dec-2016

 ----------------------------------------------------------------------
 #p opt UM062X/6-311+G** nosymm int=superfine SCF=(MaxCycle=200,NoVarAc
 c,noincfock) guess=read
 ----------------------------------------------------------------------

 -------------------
 Title Card Required
 -------------------
 Symbolic Z-matrix:
 Charge =  1 Multiplicity = 2

 SCF Done:  E(UM062X) =  -379.301644601     A.U. after   31 cycles
 SCF Done:  E(UM062X) =  -379.302347242     A.U. after   19 cycles
 SCF Done:  E(UM062X) =  -379.302347711     A.U. after  143 cycles
 Optimization completed.
    -- Stationary point found.

                          Input orientation:
 ---------------------------------------------------------------------
 Center     Atomic      Atomic             Coordinates (Angstroms)
 Number     Number       Type             X           Y           Z
 ---------------------------------------------------------------------
      1          6           0       -1.644427    0.000000    0.000000
      2         15           0        1.644427    0.000000    0.000000
      3          1           0       -2.763740   -0.000012    0.000005
 ---------------------------------------------------------------------

 Alpha  occ. eigenvalues --  -78.34049 -10.98849  -7.15532  -5.27526  -5.27302
 Alpha  occ. eigenvalues --   -5.26149  -1.01288  -0.86397  -0.67269  -0.49930
 Alpha  occ. eigenvalues --   -0.48058
 Alpha virt. eigenvalues --   -0.40312  -0.37869  -0.34623  -0.13543  -0.09854
 Alpha virt. eigenvalues --   -0.08417  -0.08387  -0.06840  -0.05553  -0.05349
 Alpha virt. eigenvalues --   -0.02017   0.00593   0.15783   0.16100   0.17114

  Beta  occ. eigenvalues --  -78.33519 -10.98685  -7.15407  -5.27163  -5.26036
  Beta  occ. eigenvalues --   -5.25981  -0.99727  -0.82570  -0.66522  -0.46874
  Beta virt. eigenvalues --   -0.36570  -0.34681  -0.33443  -0.31188  -0.14268
  Beta virt. eigenvalues --   -0.10903  -0.08689  -0.08587  -0.07179  -0.05453
  Beta virt. eigenvalues --   -0.05116  -0.02903   0.01192   0.13389   0.15668

 Mulliken charges and spin densities:
               1          2
     1  C    0.208045   0.305320
     2  P    0.526147   0.704048
     3  H    0.265808  -0.009368
 Sum of Mulliken charges =   1.00000   1.00000

 Dipole moment (field-independent basis, Debye):
    X=             -1.8615    Y=             -0.0000    Z=              0.0000  Tot=              1.8615
 Quadrupole moment (field-independent basis, Debye-Ang):
   XX=              7.5428   YY=            -19.8162   ZZ=            -16.9802
   XY=             -0.0001   XZ=              0.0001   YZ=              1.0381

 Normal termination of Gaussian 16 at Mon Apr 21 23:54:48 2025.
