 Gaussian 16, Revision A.03,
 Gaussian 16:  ES64L-G16RevA.03 25-Dec-2016

 --------------------------------------------
 #p opt UM062X/6-311+G** nosymm int=superfine
 --------------------------------------------

 -------------------
 Title Card Required
 -------------------
 Symbolic Z-matrix:
 Charge =  1 Multiplicity = 2

 SCF Done:  E(UM062X) =  -92.8444661385     A.U. after   15 cycles
 SCF Done:  E(UM062X) =  -92.8445287426     A.U. after   13 cycles
 Optimization completed.
    -- Stationary point found.

                          Input orientation:
 ---------------------------------------------------------------------
 Center     Atomic      Atomic             Coordinates (Angstroms)
 Number     Number       Type             X           Y           Z
 ---------------------------------------------------------------------
      1          6           0       -0.726540    0.000000    0.000000
      2          7           0        0.726540    0.000000    0.000000
      3          1           0       -1.830875   -0.000000    0.000000
 ---------------------------------------------------------------------

 Alpha  occ. eigenvalues --  -15.24321 -11.07371  -1.33278  -1.05225  -0.83679
 Alpha  occ. eigenvalues --   -0.76995  -0.74097
 Alpha virt. eigenvalues --   -0.40242  -0.37856  -0.23850  -0.16327  -0.11134
 Alpha virt. eigenvalues --   -0.10816  -0.08555  -0.04058  -0.01484  -0.01267
 Alpha virt. eigenvalues --    0.04522   0.08849   0.28475   0.28938   0.29592

  Beta  occ. eigenvalues --  -15.23590 -11.07373  -1.27832  -1.03823  -0.81188
  Beta  occ. eigenvalues --   -0.71444
  Beta virt. eigenvalues --   -0.50308  -0.36159  -0.31595  -0.22549  -0.16895
  Beta virt. eigenvalues --   -0.11076  -0.10914  -0.08408  -0.04475  -0.02102
  Beta virt. eigenvalues --   -0.01518   0.03754   0.08311   0.26651   0.28419

 Mulliken charges and spin densities:
               1          2
     1  C    0.298696   0.229485
     2  N    0.333714   0.780488
     3  H    0.367590  -0.009973
 Sum of Mulliken charges =   1.00000   1.00000

 Dipole moment (field-independent basis, Debye):
    X=             -3.9215    Y=             -0.0000    Z=              0.0000  Tot=              3.9215
 Quadrupole moment (field-independent basis, Debye-Ang):
   XX=             -2.6294   YY=            -10.2415   ZZ=             -9.1957
   XY=              0.0000   XZ=             -0.0000   YZ=              0.6316

 Normal termination of Gaussian 16 at Mon Apr 21 18:31:43 2025.
