 Gaussian 16, Revision A.03,
 Gaussian 16:  ES64L-G16RevA.03 25-Dec-2016

 --------------------------------------------
 #p opt UM062X/6-311+G** nosymm int=superfine
 --------------------------------------------

 -------------------
 Title Card Required
 -------------------
 Symbolic Z-matrix:
 Charge =  0 Multiplicity = 1

 SCF Done:  E(UM062X) =  -79.6266874500     A.U. after    8 cycles
 SCF Done:  E(UM062X) =  -79.6624147724     A.U. after    9 cycles
 SCF Done:  E(UM062X) =  -79.6946902069     A.U. after   10 cycles
 SCF Done:  E(UM062X) =  -79.7039752800     A.U. after   10 cycles
 SCF Done:  E(UM062X) =  -79.7041337715     A.U. after    8 cycles
 SCF Done:  E(UM062X) =  -79.7041369099     A.U. after    7 cycles
 Optimization completed.
    -- Stationary point found.

                          Input orientation:
 ---------------------------------------------------------------------
 Center     Atomic      Atomic             Coordinates (Angstroms)
 Number     Number       Type             X           Y           Z
 ---------------------------------------------------------------------
      1          6           0       -1.137685    0.000000    0.000000
      2          6           0        1.137801    0.000000    0.000000
      3          1           0        1.377860   -0.913951    0.528857
      4          1           0       -1.377736   -0.914985   -0.527072
      5          1           0        1.377855    0.914985    0.527070
      6          1           0        1.377851   -0.001029   -1.055936
      7          1           0       -1.377743    0.913951   -0.528857
      8          1           0       -1.377738    0.001028    1.055935
 ---------------------------------------------------------------------

 Alpha  occ. eigenvalues --  -10.55334 -10.55328  -0.77888  -0.73604  -0.48261
 Alpha  occ. eigenvalues --   -0.48261  -0.45661  -0.45661  -0.29963
 Alpha virt. eigenvalues --    0.00220   0.02455   0.05577   0.05577   0.07900
 Alpha virt. eigenvalues --    0.08337   0.08337   0.09874   0.13195   0.18162
 Alpha virt. eigenvalues --    0.18162   0.22097   0.22097   0.24362   0.26467

  Beta  occ. eigenvalues --  -10.55334 -10.55328  -0.77888  -0.73604  -0.48261
  Beta  occ. eigenvalues --   -0.48261  -0.45661  -0.45661  -0.29963
  Beta virt. eigenvalues --    0.00220   0.02455   0.05577   0.05577   0.07900
  Beta virt. eigenvalues --    0.08337   0.08337   0.09874   0.13195   0.18162
  Beta virt. eigenvalues --    0.18162   0.22097   0.22097   0.24362   0.26467

 Mulliken charges and spin densities:
               1          2
     1  C   -0.506068   0.000000
     2  C   -0.506068  -0.000000
     3  H    0.168689   0.000000
     4  H    0.168689  -0.000000
     5  H    0.168690   0.000000
     6  H    0.168690   0.000000
     7  H    0.168689   0.000000
     8  H    0.168690  -0.000000
 Sum of Mulliken charges =  -0.00000   0.00000

 Dipole moment (field-independent basis, Debye):
    X=             -0.0000    Y=             -0.0000    Z=             -0.0000  Tot=              0.0000
 Quadrupole moment (field-independent basis, Debye-Ang):
   XX=            -15.5473   YY=            -14.8273   ZZ=            -14.8274
   XY=             -0.0000   XZ=             -0.0000   YZ=             -0.0000

 Normal termination of Gaussian 16 at Tue Nov 19 12:16:22 2024.
