 Gaussian 16, Revision A.03,
 Gaussian 16:  ES64L-G16RevA.03 25-Dec-2016

 --------------------------------------------
 #p opt UM062X/6-311+G** nosymm int=superfine
 --------------------------------------------

 -------------------
 Title Card Required
 -------------------
 Symbolic Z-matrix:
 Charge =  0 Multiplicity = 1

 SCF Done:  E(UM062X) =  -76.5567001180     A.U. after   10 cycles
 SCF Done:  E(UM062X) =  -76.7313990664     A.U. after    9 cycles
 SCF Done:  E(UM062X) =  -76.8067281061     A.U. after   10 cycles
 SCF Done:  E(UM062X) =  -76.8084536933     A.U. after    9 cycles
 SCF Done:  E(UM062X) =  -76.8084576848     A.U. after    7 cycles
 Optimization completed.
    -- Stationary point found.

                          Input orientation:
 ---------------------------------------------------------------------
 Center     Atomic      Atomic             Coordinates (Angstroms)
 Number     Number       Type             X           Y           Z
 ---------------------------------------------------------------------
      1          6           0       -0.424946    0.000000    0.000000
      2          6           0        0.424946    0.000000    0.000000
      3          1           0       -1.482136    0.000000   -0.000000
      4          1           0        1.482136    0.000000   -0.000000
 ---------------------------------------------------------------------

 Alpha  occ. eigenvalues --  -10.48762 -10.43803  -0.88944  -0.59124  -0.55367
 Alpha  occ. eigenvalues --   -0.44524  -0.44524
 Alpha virt. eigenvalues --    0.02940   0.03672   0.06876   0.06876   0.08179
 Alpha virt. eigenvalues --    0.08179   0.09793   0.17064   0.23161   0.24654
 Alpha virt. eigenvalues --    0.24654   0.25197   0.44215   0.48974   0.51942

  Beta  occ. eigenvalues --  -10.48762 -10.43803  -0.88944  -0.59124  -0.55367
  Beta  occ. eigenvalues --   -0.44524  -0.44524
  Beta virt. eigenvalues --    0.02940   0.03672   0.06876   0.06876   0.08179
  Beta virt. eigenvalues --    0.08179   0.09793   0.17064   0.23161   0.24654
  Beta virt. eigenvalues --    0.24654   0.25197   0.44215   0.48974   0.51942

 Mulliken charges and spin densities:
               1          2
     1  C   -0.102084   0.000000
     2  C   -0.102083  -0.000000
     3  H    0.102084   0.000000
     4  H    0.102083  -0.000000
 Sum of Mulliken charges =  -0.00000  -0.00000

 Dipole moment (field-independent basis, Debye):
    X=             -0.0000    Y=              0.0000    Z=             -0.0000  Tot=              0.0000
 Quadrupole moment (field-independent basis, Debye-Ang):
   XX=             -7.8853   YY=            -11.8833   ZZ=            -11.8833
   XY=             -0.0000   XZ=             -0.0000   YZ=             -0.0000

 Normal termination of Gaussian 16 at Tue Dec  3 19:55:10 2024.
