 Gaussian 16, Revision A.03,
 Gaussian 16:  ES64L-G16RevA.03 25-Dec-2016

 --------------------------------------------
 #p opt UM062X/6-311+G** nosymm int=superfine
 --------------------------------------------

 -------------------
 Title Card Required
 -------------------
 Symbolic Z-matrix:
 Charge =  0 Multiplicity = 1

 SCF Done:  E(UM062X) =  -683.681367835     A.U. after   10 cycles
 SCF Done:  E(UM062X) =  -683.682489424     A.U. after   10 cycles
 SCF Done:  E(UM062X) =  -683.682751356     A.U. after   10 cycles
 SCF Done:  E(UM062X) =  -683.682751434     A.U. after    7 cycles
 Optimization completed.
    -- Stationary point found.

                          Input orientation:
 ---------------------------------------------------------------------
 Center     Atomic      Atomic             Coordinates (Angstroms)
 Number     Number       Type             X           Y           Z
 ---------------------------------------------------------------------
      1         15           0       -1.609490    0.000000    0.000000
      2         15           0        1.609490    0.000000    0.000000
      3          1           0       -1.538018   -1.420868    0.000000
      4          1           0        1.538018    1.420868    0.000000
 ---------------------------------------------------------------------

 Alpha  occ. eigenvalues --  -78.08285 -78.08285  -6.90239  -6.90239  -5.01663
 Alpha  occ. eigenvalues --   -5.01663  -5.01643  -5.01643  -5.01459  -5.01459
 Alpha  occ. eigenvalues --   -0.69483  -0.66990  -0.40721  -0.39990  -0.28954
 Alpha  occ. eigenvalues --   -0.25706
 Alpha virt. eigenvalues --   -0.15026  -0.10721   0.01970   0.03185   0.03795
 Alpha virt. eigenvalues --    0.04679   0.05159   0.05962   0.06627   0.08570
 Alpha virt. eigenvalues --    0.08675   0.12291   0.27707   0.29533   0.30327

  Beta  occ. eigenvalues --  -78.08285 -78.08285  -6.90239  -6.90239  -5.01663
  Beta  occ. eigenvalues --   -5.01663  -5.01643  -5.01643  -5.01459  -5.01459
  Beta  occ. eigenvalues --   -0.69483  -0.66990  -0.40721  -0.39990  -0.28954
  Beta  occ. eigenvalues --   -0.25706
  Beta virt. eigenvalues --   -0.15026  -0.10721   0.01970   0.03185   0.03795
  Beta virt. eigenvalues --    0.04679   0.05159   0.05962   0.06627   0.08570
  Beta virt. eigenvalues --    0.08675   0.12291   0.27707   0.29533   0.30327

 Mulliken charges and spin densities:
               1          2
     1  P    0.005484   0.000000
     2  P    0.005484  -0.000000
     3  H   -0.005484  -0.000000
     4  H   -0.005484   0.000000
 Sum of Mulliken charges =  -0.00000  -0.00000

 Dipole moment (field-independent basis, Debye):
    X=              0.0000    Y=             -0.0000    Z=              0.0000  Tot=              0.0000
 Quadrupole moment (field-independent basis, Debye-Ang):
   XX=            -27.3410   YY=            -28.2752   ZZ=            -30.7068
   XY=              2.8032   XZ=              0.0000   YZ=              0.0000

 Normal termination of Gaussian 16 at Mon Apr 21 21:12:10 2025.
