 Gaussian 16, Revision A.03,
 Gaussian 16:  ES64L-G16RevA.03 25-Dec-2016

 --------------------------------------------
 #p opt UM062X/6-311+G** nosymm int=superfine
 --------------------------------------------

 -------------------
 Title Card Required
 -------------------
 Symbolic Z-matrix:
 Charge =  0 Multiplicity = 1

 SCF Done:  E(UM062X) =  -474.430290989     A.U. after   18 cycles
 SCF Done:  E(UM062X) =  -474.433152954     A.U. after   15 cycles
 SCF Done:  E(UM062X) =  -474.435158176     A.U. after   17 cycles
 SCF Done:  E(UM062X) =  -474.435187642     A.U. after   16 cycles
 SCF Done:  E(UM062X) =  -474.435188807     A.U. after   12 cycles
 SCF Done:  E(UM062X) =  -474.435189304     A.U. after   12 cycles
 SCF Done:  E(UM062X) =  -474.435189442     A.U. after   14 cycles
 Optimization completed.
    -- Stationary point found.

                          Input orientation:
 ---------------------------------------------------------------------
 Center     Atomic      Atomic             Coordinates (Angstroms)
 Number     Number       Type             X           Y           Z
 ---------------------------------------------------------------------
      1          8           0       -1.364392    0.000000    0.000000
      2         16           0        1.364392    0.000000    0.000000
      3          1           0       -1.379787   -0.931988   -0.266708
      4          1           0        1.229209    0.423566    1.270059
 ---------------------------------------------------------------------

 Alpha  occ. eigenvalues --  -89.97678 -19.67516  -8.33734  -6.25954  -6.25580
 Alpha  occ. eigenvalues --   -6.25024  -1.08714  -0.83395  -0.52718  -0.49289
 Alpha  occ. eigenvalues --   -0.39900  -0.37811  -0.35179
 Alpha virt. eigenvalues --   -0.18155   0.01613   0.04025   0.04703   0.05610
 Alpha virt. eigenvalues --    0.07338   0.14627   0.19469   0.19999   0.21368
 Alpha virt. eigenvalues --    0.26386   0.31177   0.34031   0.35540   0.39897

  Beta  occ. eigenvalues --  -89.97678 -19.67516  -8.33734  -6.25954  -6.25580
  Beta  occ. eigenvalues --   -6.25024  -1.08714  -0.83395  -0.52718  -0.49289
  Beta  occ. eigenvalues --   -0.39900  -0.37811  -0.35179
  Beta virt. eigenvalues --   -0.18155   0.01613   0.04025   0.04703   0.05610
  Beta virt. eigenvalues --    0.07338   0.14627   0.19469   0.19999   0.21368
  Beta virt. eigenvalues --    0.26386   0.31177   0.34031   0.35540   0.39897

 Mulliken charges and spin densities:
               1          2
     1  O   -0.425290  -0.000000
     2  S    0.064434   0.000000
     3  H    0.249003  -0.000000
     4  H    0.111853   0.000000
 Sum of Mulliken charges =  -0.00000  -0.00000

 Dipole moment (field-independent basis, Debye):
    X=              1.9681    Y=             -1.2640    Z=              0.6336  Tot=              2.4234
 Quadrupole moment (field-independent basis, Debye-Ang):
   XX=            -18.2098   YY=            -19.8785   ZZ=            -18.7091
   XY=              3.0666   XZ=              2.3008   YZ=              1.9100

 Normal termination of Gaussian 16 at Thu May 15 13:00:53 2025.
