 Gaussian 16, Revision A.03,
 Gaussian 16:  ES64L-G16RevA.03 25-Dec-2016

 ----------------------------------------------------------------------
 #p opt UM062X/6-311+G** nosymm int=superfine SCF=(MaxCycle=200,NoVarAc
 c,noincfock) guess=read
 ----------------------------------------------------------------------

 -------------------
 Title Card Required
 -------------------
 Symbolic Z-matrix:
 Charge =  0 Multiplicity = 1

 SCF Done:  E(UM062X) =  -474.374721242     A.U. after   22 cycles
 SCF Done:  E(UM062X) =  -474.375490752     A.U. after   22 cycles
 SCF Done:  E(UM062X) =  -474.375506775     A.U. after   13 cycles
 SCF Done:  E(UM062X) =  -474.375538001     A.U. after   20 cycles
 SCF Done:  E(UM062X) =  -474.375569703     A.U. after   20 cycles
 SCF Done:  E(UM062X) =  -474.375579335     A.U. after   22 cycles
 SCF Done:  E(UM062X) =  -474.375583502     A.U. after   17 cycles
 SCF Done:  E(UM062X) =  -474.375595716     A.U. after   30 cycles
 SCF Done:  E(UM062X) =  -474.375605771     A.U. after   18 cycles
 SCF Done:  E(UM062X) =  -474.375607408     A.U. after   19 cycles
 SCF Done:  E(UM062X) =  -474.375607377     A.U. after   20 cycles
 SCF Done:  E(UM062X) =  -474.375607336     A.U. after   16 cycles
 Optimization completed on the basis of negligible forces.
    -- Stationary point found.

                          Input orientation:
 ---------------------------------------------------------------------
 Center     Atomic      Atomic             Coordinates (Angstroms)
 Number     Number       Type             X           Y           Z
 ---------------------------------------------------------------------
      1          8           0       -1.736006    0.000330    0.000455
      2         16           0        1.736005   -0.000303   -0.000428
      3          1           0       -1.703141    0.034515    0.969508
      4          1           0        1.499011   -0.666893   -1.146770
 ---------------------------------------------------------------------

 Alpha  occ. eigenvalues --  -89.97851 -19.67253  -8.34010  -6.26221  -6.25855
 Alpha  occ. eigenvalues --   -6.25287  -1.08443  -0.83860  -0.52525  -0.49720
 Alpha  occ. eigenvalues --   -0.39755  -0.35767  -0.34069
 Alpha virt. eigenvalues --   -0.22485   0.01584   0.03900   0.04672   0.05421
 Alpha virt. eigenvalues --    0.06857   0.13439   0.19268   0.19849   0.21176
 Alpha virt. eigenvalues --    0.25185   0.30818   0.33950   0.34441   0.39122

  Beta  occ. eigenvalues --  -89.97851 -19.67253  -8.34010  -6.26221  -6.25855
  Beta  occ. eigenvalues --   -6.25287  -1.08443  -0.83860  -0.52525  -0.49720
  Beta  occ. eigenvalues --   -0.39755  -0.35767  -0.34069
  Beta virt. eigenvalues --   -0.22485   0.01584   0.03900   0.04672   0.05421
  Beta virt. eigenvalues --    0.06857   0.13439   0.19268   0.19849   0.21176
  Beta virt. eigenvalues --    0.25185   0.30818   0.33950   0.34441   0.39122

 Mulliken charges and spin densities:
               1          2
     1  O   -0.394320  -0.000000
     2  S    0.038658   0.000000
     3  H    0.246035   0.000000
     4  H    0.109627   0.000000
 Sum of Mulliken charges =  -0.00000  -0.00000

 Dipole moment (field-independent basis, Debye):
    X=              2.3064    Y=             -0.5411    Z=              0.7220  Tot=              2.4766
 Quadrupole moment (field-independent basis, Debye-Ang):
   XX=            -18.4690   YY=            -21.6859   ZZ=            -17.1595
   XY=             -1.1163   XZ=             -4.8659   YZ=              1.8789

 Normal termination of Gaussian 16 at Tue Apr 22 05:27:40 2025.
