 Gaussian 16, Revision A.03,
 Gaussian 16:  ES64L-G16RevA.03 25-Dec-2016

 --------------------------------------------
 #p opt UM062X/6-311+G** nosymm int=superfine
 --------------------------------------------

 -------------------
 Title Card Required
 -------------------
 Symbolic Z-matrix:
 Charge =  1 Multiplicity = 2

 SCF Done:  E(UM062X) =  -580.862019870     A.U. after   15 cycles
 SCF Done:  E(UM062X) =  -580.869425424     A.U. after    9 cycles
 SCF Done:  E(UM062X) =  -580.871519459     A.U. after   12 cycles
 SCF Done:  E(UM062X) =  -580.871522251     A.U. after    6 cycles
 Optimization completed.
    -- Stationary point found.

                          Input orientation:
 ---------------------------------------------------------------------
 Center     Atomic      Atomic             Coordinates (Angstroms)
 Number     Number       Type             X           Y           Z
 ---------------------------------------------------------------------
      1         14           0       -2.391295    0.000000    0.000000
      2         14           0        2.391295    0.000000    0.000000
      3          1           0       -3.290173   -1.190127    0.000047
      4          1           0        3.290173    1.190127    0.001076
      5          1           0       -3.290188    1.190116   -0.000041
      6          1           0        3.290188   -1.190116   -0.001070
 ---------------------------------------------------------------------

 Alpha  occ. eigenvalues --  -67.23872 -67.23872  -5.78365  -5.78364  -4.09634
 Alpha  occ. eigenvalues --   -4.09634  -4.09314  -4.09314  -4.08971  -4.08971
 Alpha  occ. eigenvalues --   -0.77884  -0.77815  -0.59689  -0.59671  -0.48956
 Alpha  occ. eigenvalues --   -0.47490
 Alpha virt. eigenvalues --   -0.26715  -0.26283  -0.12116  -0.11968  -0.09221
 Alpha virt. eigenvalues --   -0.08433  -0.07791  -0.06940  -0.06707  -0.05934
 Alpha virt. eigenvalues --   -0.05614  -0.05564  -0.05378  -0.03427   0.12958

  Beta  occ. eigenvalues --  -67.23538 -67.23538  -5.78112  -5.78112  -4.09531
  Beta  occ. eigenvalues --   -4.09531  -4.08861  -4.08861  -4.08538  -4.08538
  Beta  occ. eigenvalues --   -0.76071  -0.75860  -0.58515  -0.58489  -0.42303
  Beta virt. eigenvalues --   -0.33231  -0.25533  -0.24978  -0.11333  -0.10942
  Beta virt. eigenvalues --   -0.09264  -0.07231  -0.06786  -0.06541  -0.06283
  Beta virt. eigenvalues --   -0.05942  -0.05329  -0.05226  -0.04793  -0.02992

 Mulliken charges and spin densities:
               1          2
     1  Si   0.563111   0.389198
     2  Si   0.563111   0.389198
     3  H   -0.031556   0.055401
     4  H   -0.031556   0.055401
     5  H   -0.031555   0.055401
     6  H   -0.031555   0.055401
 Sum of Mulliken charges =   1.00000   1.00000

 Dipole moment (field-independent basis, Debye):
    X=              0.0000    Y=              0.0000    Z=              0.0000  Tot=              0.0000
 Quadrupole moment (field-independent basis, Debye-Ang):
   XX=              7.4243   YY=            -25.9137   ZZ=            -20.8861
   XY=             -0.0000   XZ=              0.0000   YZ=             -0.0022

 Normal termination of Gaussian 16 at Mon Apr 21 20:17:50 2025.
