 Gaussian 16, Revision A.03,
 Gaussian 16:  ES64L-G16RevA.03 25-Dec-2016

 --------------------------------------------
 #p opt UM062X/6-311+G** nosymm int=superfine
 --------------------------------------------

 -------------------
 Title Card Required
 -------------------
 Symbolic Z-matrix:
 Charge =  0 Multiplicity = 1

 SCF Done:  E(UM062X) =  -110.158429603     A.U. after   12 cycles
 SCF Done:  E(UM062X) =  -110.159417491     A.U. after   14 cycles
 SCF Done:  E(UM062X) =  -110.161900543     A.U. after   20 cycles
 SCF Done:  E(UM062X) =  -110.163407135     A.U. after   19 cycles
 SCF Done:  E(UM062X) =  -110.163491798     A.U. after   19 cycles
 SCF Done:  E(UM062X) =  -110.163511064     A.U. after   11 cycles
 SCF Done:  E(UM062X) =  -110.163511107     A.U. after   14 cycles
 Optimization completed.
    -- Stationary point found.

                          Input orientation:
 ---------------------------------------------------------------------
 Center     Atomic      Atomic             Coordinates (Angstroms)
 Number     Number       Type             X           Y           Z
 ---------------------------------------------------------------------
      1          7           0       -1.890428    0.000000    0.000000
      2          7           0        1.890428    0.000000    0.000000
      3          1           0       -1.650204   -1.011261   -0.000000
      4          1           0        1.650204    1.011261   -0.000000
 ---------------------------------------------------------------------

 Alpha  occ. eigenvalues --  -14.88313 -14.88311  -0.92734  -0.92359  -0.49018
 Alpha  occ. eigenvalues --   -0.48842  -0.30476  -0.29670
 Alpha virt. eigenvalues --   -0.21953  -0.20996   0.04814   0.06865   0.10826
 Alpha virt. eigenvalues --    0.11333   0.12954   0.14325   0.15154   0.17266
 Alpha virt. eigenvalues --    0.18607   0.22684   0.53426   0.54457   0.74758

  Beta  occ. eigenvalues --  -14.88313 -14.88311  -0.92734  -0.92359  -0.49018
  Beta  occ. eigenvalues --   -0.48842  -0.30476  -0.29670
  Beta virt. eigenvalues --   -0.21953  -0.20996   0.04814   0.06865   0.10826
  Beta virt. eigenvalues --    0.11333   0.12954   0.14325   0.15154   0.17266
  Beta virt. eigenvalues --    0.18607   0.22684   0.53426   0.54457   0.74758

 Mulliken charges and spin densities:
               1          2
     1  N   -0.233536   0.000000
     2  N   -0.233536  -0.000000
     3  H    0.233536   0.000000
     4  H    0.233536   0.000000
 Sum of Mulliken charges =  -0.00000   0.00000

 Dipole moment (field-independent basis, Debye):
    X=              0.0000    Y=              0.0000    Z=             -0.0000  Tot=              0.0000
 Quadrupole moment (field-independent basis, Debye-Ang):
   XX=            -15.3952   YY=            -11.3286   ZZ=            -14.1826
   XY=              6.2079   XZ=             -0.0000   YZ=             -0.0000

 Normal termination of Gaussian 16 at Thu May 15 15:45:13 2025.
