 Gaussian 16, Revision A.03,
 Gaussian 16:  ES64L-G16RevA.03 25-Dec-2016

 --------------------------------------------
 #p opt UM062X/6-311+G** nosymm int=superfine
 --------------------------------------------

 -------------------
 Title Card Required
 -------------------
 Symbolic Z-matrix:
 Charge =  1 Multiplicity = 2

 SCF Done:  E(UM062X) =  -80.0593211610     A.U. after   36 cycles
 SCF Done:  E(UM062X) =  -80.0601527954     A.U. after   23 cycles
 SCF Done:  E(UM062X) =  -80.0678718376     A.U. after   27 cycles
 SCF Done:  E(UM062X) =  -80.1742149793     A.U. after   23 cycles
 SCF Done:  E(UM062X) =  -80.1823696635     A.U. after   16 cycles
 SCF Done:  E(UM062X) =  -80.1803682039     A.U. after   16 cycles
 SCF Done:  E(UM062X) =  -80.1827278765     A.U. after   12 cycles
 SCF Done:  E(UM062X) =  -80.1827290219     A.U. after   12 cycles
 Optimization completed.
    -- Stationary point found.

                          Input orientation:
 ---------------------------------------------------------------------
 Center     Atomic      Atomic             Coordinates (Angstroms)
 Number     Number       Type             X           Y           Z
 ---------------------------------------------------------------------
      1          5           0       -1.202734    0.000000    0.000000
      2          7           0        1.202734    0.000000    0.000000
      3          1           0       -2.161492    0.716750   -0.000000
      4          1           0        1.520788    0.993294   -0.000000
 ---------------------------------------------------------------------

 Alpha  occ. eigenvalues --  -15.07409  -7.50438  -1.18259  -0.84375  -0.71822
 Alpha  occ. eigenvalues --   -0.64830  -0.64719
 Alpha virt. eigenvalues --   -0.35641  -0.31098  -0.30238  -0.14766  -0.11143
 Alpha virt. eigenvalues --   -0.09444  -0.09133  -0.05044  -0.04837  -0.01223
 Alpha virt. eigenvalues --   -0.00427   0.04318   0.06336   0.13820   0.16589

  Beta  occ. eigenvalues --  -15.05408  -7.51479  -1.07196  -0.87009  -0.69782
  Beta  occ. eigenvalues --   -0.61333
  Beta virt. eigenvalues --   -0.36190  -0.34781  -0.27608  -0.25006  -0.15051
  Beta virt. eigenvalues --   -0.11398  -0.10058  -0.09555  -0.05515  -0.04945
  Beta virt. eigenvalues --   -0.00648   0.00233   0.03342   0.04460   0.14949

 Mulliken charges and spin densities:
               1          2
     1  B    0.593055  -0.639702
     2  N   -0.048480   1.811368
     3  H    0.194203  -0.107141
     4  H    0.261222  -0.064525
 Sum of Mulliken charges =   1.00000   1.00000

 Dipole moment (field-independent basis, Debye):
    X=             -3.8013    Y=              2.0498    Z=             -0.0000  Tot=              4.3187
 Quadrupole moment (field-independent basis, Debye-Ang):
   XX=              0.8672   YY=             -9.1174   ZZ=            -10.1959
   XY=              2.2376   XZ=              0.0000   YZ=             -0.0000

 Normal termination of Gaussian 16 at Mon Apr 21 17:58:07 2025.
