 Gaussian 16, Revision A.03,
 Gaussian 16:  ES64L-G16RevA.03 25-Dec-2016

 --------------------------------------------
 #p opt UM062X/6-311+G** nosymm int=superfine
 --------------------------------------------

 -------------------
 Title Card Required
 -------------------
 Symbolic Z-matrix:
 Charge =  0 Multiplicity = 1

 SCF Done:  E(UM062X) =  -382.242131735     A.U. after   14 cycles
 SCF Done:  E(UM062X) =  -382.252537117     A.U. after   11 cycles
 SCF Done:  E(UM062X) =  -382.258619127     A.U. after   13 cycles
 SCF Done:  E(UM062X) =  -382.258719661     A.U. after   10 cycles
 SCF Done:  E(UM062X) =  -382.258771988     A.U. after   11 cycles
 SCF Done:  E(UM062X) =  -382.258808147     A.U. after   10 cycles
 SCF Done:  E(UM062X) =  -382.258817992     A.U. after   11 cycles
 SCF Done:  E(UM062X) =  -382.258819981     A.U. after    9 cycles
 SCF Done:  E(UM062X) =  -382.258821038     A.U. after   10 cycles
 SCF Done:  E(UM062X) =  -382.258821916     A.U. after    8 cycles
 SCF Done:  E(UM062X) =  -382.258822252     A.U. after   10 cycles
 Optimization completed.
    -- Stationary point found.

                          Input orientation:
 ---------------------------------------------------------------------
 Center     Atomic      Atomic             Coordinates (Angstroms)
 Number     Number       Type             X           Y           Z
 ---------------------------------------------------------------------
      1          6           0       -1.956264    0.000000    0.000000
      2         15           0        1.956264    0.000000    0.000000
      3          1           0        1.885622   -1.417505    0.026776
      4          1           0       -2.001021    1.053296    0.235428
      5          1           0        1.885525    0.077017    1.415634
      6          1           0       -2.000955   -0.320236   -1.030687
      7          1           0       -2.031479   -0.730483    0.792438
 ---------------------------------------------------------------------

 Alpha  occ. eigenvalues --  -78.03162 -10.59617  -6.85556  -4.97083  -4.97005
 Alpha  occ. eigenvalues --   -4.96822  -0.78898  -0.69395  -0.51055  -0.51005
 Alpha  occ. eigenvalues --   -0.43560  -0.34657  -0.23789
 Alpha virt. eigenvalues --   -0.12608   0.02146   0.03862   0.03984   0.04537
 Alpha virt. eigenvalues --    0.06250   0.06772   0.07253   0.07271   0.11360
 Alpha virt. eigenvalues --    0.17059   0.18215   0.18283   0.22959   0.30351

  Beta  occ. eigenvalues --  -78.03162 -10.59617  -6.85556  -4.97083  -4.97005
  Beta  occ. eigenvalues --   -4.96822  -0.78898  -0.69395  -0.51055  -0.51005
  Beta  occ. eigenvalues --   -0.43560  -0.34657  -0.23789
  Beta virt. eigenvalues --   -0.12608   0.02146   0.03862   0.03984   0.04537
  Beta virt. eigenvalues --    0.06250   0.06772   0.07253   0.07271   0.11360
  Beta virt. eigenvalues --    0.17059   0.18215   0.18283   0.22959   0.30351

 Mulliken charges and spin densities:
               1          2
     1  C   -0.505250   0.000000
     2  P   -0.048508  -0.000000
     3  H   -0.002848   0.000000
     4  H    0.187247  -0.000000
     5  H   -0.002848   0.000000
     6  H    0.187230  -0.000000
     7  H    0.184975  -0.000000
 Sum of Mulliken charges =  -0.00000  -0.00000

 Dipole moment (field-independent basis, Debye):
    X=             -1.5540    Y=             -0.5712    Z=              0.6146  Tot=              1.7660
 Quadrupole moment (field-independent basis, Debye-Ang):
   XX=            -22.2705   YY=            -22.4112   ZZ=            -22.5144
   XY=             -1.2611   XZ=              1.3567   YZ=              0.7033

 Normal termination of Gaussian 16 at Mon Apr 21 19:04:53 2025.
