 Gaussian 16, Revision A.03,
 Gaussian 16:  ES64L-G16RevA.03 25-Dec-2016

 --------------------------------------------
 #p opt UM062X/6-311+G** nosymm int=superfine
 --------------------------------------------

 -------------------
 Title Card Required
 -------------------
 Symbolic Z-matrix:
 Charge =  0 Multiplicity = 1

 SCF Done:  E(UM062X) =  -581.142207863     A.U. after    9 cycles
 SCF Done:  E(UM062X) =  -581.161952519     A.U. after    8 cycles
 SCF Done:  E(UM062X) =  -581.174054775     A.U. after    8 cycles
 SCF Done:  E(UM062X) =  -581.174074738     A.U. after    7 cycles
 Optimization completed.
    -- Stationary point found.

                          Input orientation:
 ---------------------------------------------------------------------
 Center     Atomic      Atomic             Coordinates (Angstroms)
 Number     Number       Type             X           Y           Z
 ---------------------------------------------------------------------
      1         14           0       -2.287518    0.000000    0.000000
      2         14           0        2.287518    0.000000    0.000000
      3          1           0       -3.351363   -1.083849    0.000065
      4          1           0        3.351363    1.083849   -0.000521
      5          1           0       -3.351368    1.083845    0.000287
      6          1           0        3.351368   -1.083845    0.000873
 ---------------------------------------------------------------------

 Alpha  occ. eigenvalues --  -67.01244 -67.01244  -5.55968  -5.55968  -3.87214
 Alpha  occ. eigenvalues --   -3.87214  -3.86672  -3.86672  -3.86531  -3.86531
 Alpha  occ. eigenvalues --   -0.57237  -0.57148  -0.37801  -0.37767  -0.29185
 Alpha  occ. eigenvalues --   -0.27060
 Alpha virt. eigenvalues --   -0.08197  -0.07492   0.02085   0.02399   0.03044
 Alpha virt. eigenvalues --    0.04566   0.05695   0.06084   0.06330   0.07113
 Alpha virt. eigenvalues --    0.08285   0.09132   0.11375   0.14070   0.29071

  Beta  occ. eigenvalues --  -67.01244 -67.01244  -5.55968  -5.55968  -3.87214
  Beta  occ. eigenvalues --   -3.87214  -3.86672  -3.86672  -3.86531  -3.86531
  Beta  occ. eigenvalues --   -0.57237  -0.57148  -0.37801  -0.37767  -0.29185
  Beta  occ. eigenvalues --   -0.27060
  Beta virt. eigenvalues --   -0.08197  -0.07492   0.02085   0.02399   0.03044
  Beta virt. eigenvalues --    0.04566   0.05695   0.06084   0.06330   0.07113
  Beta virt. eigenvalues --    0.08285   0.09132   0.11375   0.14070   0.29071

 Mulliken charges and spin densities:
               1          2
     1  Si   0.322114   0.000000
     2  Si   0.322114   0.000000
     3  H   -0.161057   0.000000
     4  H   -0.161057  -0.000000
     5  H   -0.161057   0.000000
     6  H   -0.161057  -0.000000
 Sum of Mulliken charges =  -0.00000   0.00000

 Dipole moment (field-independent basis, Debye):
    X=              0.0000    Y=              0.0000    Z=              0.0001  Tot=              0.0001
 Quadrupole moment (field-independent basis, Debye-Ang):
   XX=            -35.6326   YY=            -32.7464   ZZ=            -24.3890
   XY=             -0.0000   XZ=              0.0000   YZ=              0.0023

 Normal termination of Gaussian 16 at Mon Apr 21 20:35:24 2025.
