 Gaussian 16, Revision A.03,
 Gaussian 16:  ES64L-G16RevA.03 25-Dec-2016

 --------------------------------------------
 #p opt UM062X/6-311+G** nosymm int=superfine
 --------------------------------------------

 -------------------
 Title Card Required
 -------------------
 Symbolic Z-matrix:
 Charge =  0 Multiplicity = 1

 SCF Done:  E(UM062X) =  -79.5836885848     A.U. after    9 cycles
 SCF Done:  E(UM062X) =  -79.6250880370     A.U. after    8 cycles
 SCF Done:  E(UM062X) =  -79.6699670236     A.U. after   10 cycles
 SCF Done:  E(UM062X) =  -79.6851572941     A.U. after   10 cycles
 SCF Done:  E(UM062X) =  -79.6860771751     A.U. after    8 cycles
 SCF Done:  E(UM062X) =  -79.6860795683     A.U. after    7 cycles
 Optimization completed.
    -- Stationary point found.

                          Input orientation:
 ---------------------------------------------------------------------
 Center     Atomic      Atomic             Coordinates (Angstroms)
 Number     Number       Type             X           Y           Z
 ---------------------------------------------------------------------
      1          6           0       -1.206404    0.000000    0.000000
      2          6           0        1.206528    0.000000    0.000000
      3          1           0        1.421877   -0.917980    0.531187
      4          1           0       -1.421742   -0.919019   -0.529396
      5          1           0        1.421868    0.919019    0.529394
      6          1           0        1.421851   -0.001034   -1.060598
      7          1           0       -1.421753    0.917980   -0.531188
      8          1           0       -1.421732    0.001032    1.060596
 ---------------------------------------------------------------------

 Alpha  occ. eigenvalues --  -10.55677 -10.55672  -0.77504  -0.74086  -0.48277
 Alpha  occ. eigenvalues --   -0.48277  -0.46243  -0.46243  -0.28540
 Alpha virt. eigenvalues --   -0.01407   0.02530   0.05531   0.05531   0.07074
 Alpha virt. eigenvalues --    0.08250   0.08250   0.10085   0.13010   0.18164
 Alpha virt. eigenvalues --    0.18164   0.22038   0.22038   0.24364   0.26185

  Beta  occ. eigenvalues --  -10.55677 -10.55672  -0.77504  -0.74086  -0.48277
  Beta  occ. eigenvalues --   -0.48277  -0.46243  -0.46243  -0.28540
  Beta virt. eigenvalues --   -0.01407   0.02530   0.05531   0.05531   0.07074
  Beta virt. eigenvalues --    0.08250   0.08250   0.10085   0.13010   0.18164
  Beta virt. eigenvalues --    0.18164   0.22038   0.22038   0.24364   0.26185

 Mulliken charges and spin densities:
               1          2
     1  C   -0.509947  -0.000000
     2  C   -0.509947   0.000000
     3  H    0.169982  -0.000000
     4  H    0.169983   0.000000
     5  H    0.169983   0.000000
     6  H    0.169983   0.000000
     7  H    0.169982   0.000000
     8  H    0.169983   0.000000
 Sum of Mulliken charges =  -0.00000   0.00000

 Dipole moment (field-independent basis, Debye):
    X=              0.0000    Y=             -0.0000    Z=             -0.0000  Tot=              0.0000
 Quadrupole moment (field-independent basis, Debye-Ang):
   XX=            -15.5327   YY=            -14.8078   ZZ=            -14.8078
   XY=             -0.0000   XZ=              0.0000   YZ=             -0.0000

 Normal termination of Gaussian 16 at Tue Nov 19 12:22:46 2024.
