 Gaussian 16, Revision A.03,
 Gaussian 16:  ES64L-G16RevA.03 25-Dec-2016

 --------------------------------------------
 #p opt UM062X/6-311+G** nosymm int=superfine
 --------------------------------------------

 -------------------
 Title Card Required
 -------------------
 Symbolic Z-matrix:
 Charge =  1 Multiplicity = 2

 SCF Done:  E(UM062X) =  -76.6523095182     A.U. after   11 cycles
 SCF Done:  E(UM062X) =  -76.6901708535     A.U. after   10 cycles
 SCF Done:  E(UM062X) =  -76.7398968922     A.U. after   14 cycles
 SCF Done:  E(UM062X) =  -76.7407693850     A.U. after   13 cycles
 SCF Done:  E(UM062X) =  -76.7407711133     A.U. after    7 cycles
 Optimization completed.
    -- Stationary point found.

                          Input orientation:
 ---------------------------------------------------------------------
 Center     Atomic      Atomic             Coordinates (Angstroms)
 Number     Number       Type             X           Y           Z
 ---------------------------------------------------------------------
      1          6           0       -0.838812    0.000000    0.000000
      2          6           0        0.838812    0.000000    0.000000
      3          1           0       -1.934320    0.000000   -0.000000
      4          1           0        1.934304    0.000000   -0.000000
 ---------------------------------------------------------------------

 Alpha  occ. eigenvalues --  -10.99842 -10.99805  -1.10459  -0.99171  -0.84473
 Alpha  occ. eigenvalues --   -0.63775  -0.61648
 Alpha virt. eigenvalues --   -0.36092  -0.34098  -0.27378  -0.14202  -0.11205
 Alpha virt. eigenvalues --   -0.10600  -0.09110  -0.08874  -0.05308  -0.04992
 Alpha virt. eigenvalues --    0.01427   0.03800   0.07716   0.22519   0.31428

  Beta  occ. eigenvalues --  -10.99592 -10.99567  -1.06590  -0.97407  -0.83612
  Beta  occ. eigenvalues --   -0.59661
  Beta virt. eigenvalues --   -0.40912  -0.32380  -0.27969  -0.25253  -0.15248
  Beta virt. eigenvalues --   -0.11517  -0.11041  -0.09484  -0.09308  -0.05240
  Beta virt. eigenvalues --   -0.04939   0.00554   0.03903   0.08041   0.23248

 Mulliken charges and spin densities:
               1          2
     1  C    0.139211   0.521705
     2  C    0.139209   0.521709
     3  H    0.360793  -0.021707
     4  H    0.360786  -0.021706
 Sum of Mulliken charges =   1.00000   1.00000

 Dipole moment (field-independent basis, Debye):
    X=             -0.0001    Y=              0.0000    Z=             -0.0000  Tot=              0.0001
 Quadrupole moment (field-independent basis, Debye-Ang):
   XX=              3.0125   YY=            -12.1362   ZZ=            -11.2443
   XY=              0.0000   XZ=             -0.0000   YZ=             -0.9378

 Normal termination of Gaussian 16 at Tue Nov 19 13:14:45 2024.
