 Gaussian 16, Revision A.03,
 Gaussian 16:  ES64L-G16RevA.03 25-Dec-2016

 --------------------------------------------
 #p opt UM062X/6-311+G** nosymm int=superfine
 --------------------------------------------

 -------------------
 Title Card Required
 -------------------
 Symbolic Z-matrix:
 Charge =  0 Multiplicity = 1

 SCF Done:  E(UM062X) =  -438.633488267     A.U. after   11 cycles
 SCF Done:  E(UM062X) =  -438.637663617     A.U. after   10 cycles
 SCF Done:  E(UM062X) =  -438.638226140     A.U. after    9 cycles
 SCF Done:  E(UM062X) =  -438.638228239     A.U. after    8 cycles
 SCF Done:  E(UM062X) =  -438.638228622     A.U. after    8 cycles
 Optimization completed.
    -- Stationary point found.

                          Input orientation:
 ---------------------------------------------------------------------
 Center     Atomic      Atomic             Coordinates (Angstroms)
 Number     Number       Type             X           Y           Z
 ---------------------------------------------------------------------
      1          6           0       -1.135220    0.000000    0.000000
      2         16           0        1.135220    0.000000    0.000000
      3          1           0        1.180795   -1.341690   -0.001961
      4          1           0       -1.349393    1.061193    0.002346
      5          1           0       -1.389688   -0.513266   -0.918101
      6          1           0       -1.389671   -0.517270    0.915860
 ---------------------------------------------------------------------

 Alpha  occ. eigenvalues --  -89.89457 -10.59727  -8.25742  -6.17839  -6.17692
 Alpha  occ. eigenvalues --   -6.17198  -0.82446  -0.75519  -0.51100  -0.50916
 Alpha  occ. eigenvalues --   -0.43968  -0.35909  -0.29702
 Alpha virt. eigenvalues --   -0.02854   0.02230   0.04535   0.05388   0.05940
 Alpha virt. eigenvalues --    0.07306   0.07885   0.08642   0.11590   0.13642
 Alpha virt. eigenvalues --    0.17717   0.18391   0.24466   0.32751   0.34955

  Beta  occ. eigenvalues --  -89.89457 -10.59727  -8.25742  -6.17839  -6.17692
  Beta  occ. eigenvalues --   -6.17198  -0.82446  -0.75519  -0.51100  -0.50916
  Beta  occ. eigenvalues --   -0.43968  -0.35909  -0.29702
  Beta virt. eigenvalues --   -0.02854   0.02230   0.04535   0.05388   0.05940
  Beta virt. eigenvalues --    0.07306   0.07885   0.08642   0.11590   0.13642
  Beta virt. eigenvalues --    0.17717   0.18391   0.24466   0.32751   0.34955

 Mulliken charges and spin densities:
               1          2
     1  C   -0.546012  -0.000000
     2  S   -0.114230   0.000000
     3  H    0.064758  -0.000000
     4  H    0.197208   0.000000
     5  H    0.199151  -0.000000
     6  H    0.199125  -0.000000
 Sum of Mulliken charges =  -0.00000  -0.00000

 Dipole moment (field-independent basis, Debye):
    X=             -2.0668    Y=             -0.9247    Z=             -0.0013  Tot=              2.2642
 Quadrupole moment (field-independent basis, Debye-Ang):
   XX=            -21.1252   YY=            -19.2927   ZZ=            -23.2027
   XY=             -1.5081   XZ=             -0.0022   YZ=              0.0057

 Normal termination of Gaussian 16 at Mon Apr 21 19:34:54 2025.
