 Gaussian 16, Revision A.03,
 Gaussian 16:  ES64L-G16RevA.03 25-Dec-2016

 --------------------------------------------
 #p opt UM062X/6-311+G** nosymm int=superfine
 --------------------------------------------

 -------------------
 Title Card Required
 -------------------
 Symbolic Z-matrix:
 Charge =  0 Multiplicity = 1

 SCF Done:  E(UM062X) =  -685.039471969     A.U. after   10 cycles
 SCF Done:  E(UM062X) =  -685.040538932     A.U. after    9 cycles
 SCF Done:  E(UM062X) =  -685.040700771     A.U. after    9 cycles
 SCF Done:  E(UM062X) =  -685.040704551     A.U. after    8 cycles
 SCF Done:  E(UM062X) =  -685.040705513     A.U. after    8 cycles
 SCF Done:  E(UM062X) =  -685.040705971     A.U. after    8 cycles
 SCF Done:  E(UM062X) =  -685.040705985     A.U. after    6 cycles
 Optimization completed.
    -- Stationary point found.

                          Input orientation:
 ---------------------------------------------------------------------
 Center     Atomic      Atomic             Coordinates (Angstroms)
 Number     Number       Type             X           Y           Z
 ---------------------------------------------------------------------
      1         15           0       -1.292217    0.000000    0.000000
      2         15           0        1.292217    0.000000    0.000000
      3          1           0        1.337804   -1.415078    0.032700
      4          1           0       -1.337735    1.407499   -0.150097
      5          1           0        1.402241    0.042338   -1.411856
      6          1           0       -1.402443   -0.223845   -1.394617
 ---------------------------------------------------------------------

 Alpha  occ. eigenvalues --  -78.03598 -78.03598  -6.86043  -6.86041  -4.97586
 Alpha  occ. eigenvalues --   -4.97581  -4.97533  -4.97533  -4.97330  -4.97330
 Alpha  occ. eigenvalues --   -0.74002  -0.68093  -0.45273  -0.45153  -0.38245
 Alpha  occ. eigenvalues --   -0.34353  -0.30450
 Alpha virt. eigenvalues --   -0.03659   0.01035   0.03552   0.03788   0.03993
 Alpha virt. eigenvalues --    0.04203   0.05079   0.06292   0.06441   0.07890
 Alpha virt. eigenvalues --    0.09885   0.15804   0.19193   0.28609   0.29144

  Beta  occ. eigenvalues --  -78.03598 -78.03598  -6.86043  -6.86041  -4.97586
  Beta  occ. eigenvalues --   -4.97581  -4.97533  -4.97533  -4.97330  -4.97330
  Beta  occ. eigenvalues --   -0.74002  -0.68093  -0.45273  -0.45153  -0.38245
  Beta  occ. eigenvalues --   -0.34353  -0.30450
  Beta virt. eigenvalues --   -0.03659   0.01035   0.03552   0.03788   0.03993
  Beta virt. eigenvalues --    0.04203   0.05079   0.06292   0.06441   0.07890
  Beta virt. eigenvalues --    0.09885   0.15804   0.19193   0.28609   0.29144

 Mulliken charges and spin densities:
               1          2
     1  P   -0.049451  -0.000000
     2  P   -0.049403   0.000000
     3  H    0.026583  -0.000000
     4  H    0.026577   0.000000
     5  H    0.022845  -0.000000
     6  H    0.022849   0.000000
 Sum of Mulliken charges =  -0.00000   0.00000

 Dipole moment (field-independent basis, Debye):
    X=              0.0001    Y=             -0.0787    Z=             -1.2154  Tot=              1.2180
 Quadrupole moment (field-independent basis, Debye-Ang):
   XX=            -30.8456   YY=            -29.1163   ZZ=            -29.6427
   XY=             -2.2639   XZ=              0.1468   YZ=             -0.0345

 Normal termination of Gaussian 16 at Mon Apr 21 20:41:35 2025.
