 Gaussian 16, Revision A.03,
 Gaussian 16:  ES64L-G16RevA.03 25-Dec-2016

 --------------------------------------------
 #p opt UM062X/6-311+G** nosymm int=superfine
 --------------------------------------------

 -------------------
 Title Card Required
 -------------------
 Symbolic Z-matrix:
 Charge =  0 Multiplicity = 1

 SCF Done:  E(UM062X) =  -582.400299506     A.U. after   10 cycles
 SCF Done:  E(UM062X) =  -582.402338375     A.U. after    8 cycles
 SCF Done:  E(UM062X) =  -582.402814062     A.U. after    9 cycles
 Optimization completed.
    -- Stationary point found.

                          Input orientation:
 ---------------------------------------------------------------------
 Center     Atomic      Atomic             Coordinates (Angstroms)
 Number     Number       Type             X           Y           Z
 ---------------------------------------------------------------------
      1         14           0       -2.044819    0.000000    0.000000
      2         14           0        2.044819    0.000000    0.000000
      3          1           0        2.459448   -1.416106   -0.000056
      4          1           0       -2.459428   -0.707948    1.226462
      5          1           0        2.459548    0.708120   -1.226322
      6          1           0        2.459436    0.708000    1.226428
      7          1           0       -2.459451    1.416106   -0.000113
      8          1           0       -2.459553   -0.708174   -1.226288
 ---------------------------------------------------------------------

 Alpha  occ. eigenvalues --  -67.01750 -67.01750  -5.56611  -5.56609  -3.87838
 Alpha  occ. eigenvalues --   -3.87838  -3.87618  -3.87618  -3.87618  -3.87618
 Alpha  occ. eigenvalues --   -0.61094  -0.60588  -0.41936  -0.41936  -0.41793
 Alpha  occ. eigenvalues --   -0.41792  -0.23186
 Alpha virt. eigenvalues --   -0.09116   0.02138   0.02916   0.02916   0.03393
 Alpha virt. eigenvalues --    0.05209   0.05209   0.05662   0.06958   0.07342
 Alpha virt. eigenvalues --    0.07343   0.08869   0.08870   0.12911   0.16311

  Beta  occ. eigenvalues --  -67.01750 -67.01750  -5.56611  -5.56609  -3.87838
  Beta  occ. eigenvalues --   -3.87838  -3.87618  -3.87618  -3.87618  -3.87618
  Beta  occ. eigenvalues --   -0.61094  -0.60588  -0.41936  -0.41936  -0.41793
  Beta  occ. eigenvalues --   -0.41792  -0.23186
  Beta virt. eigenvalues --   -0.09116   0.02138   0.02916   0.02916   0.03393
  Beta virt. eigenvalues --    0.05209   0.05209   0.05662   0.06958   0.07342
  Beta virt. eigenvalues --    0.07343   0.08869   0.08870   0.12911   0.16311

 Mulliken charges and spin densities:
               1          2
     1  Si   0.273279   0.000000
     2  Si   0.273280  -0.000000
     3  H   -0.091092   0.000000
     4  H   -0.091093  -0.000000
     5  H   -0.091094   0.000000
     6  H   -0.091093   0.000000
     7  H   -0.091092  -0.000000
     8  H   -0.091094  -0.000000
 Sum of Mulliken charges =  -0.00000   0.00000

 Dipole moment (field-independent basis, Debye):
    X=              0.0000    Y=             -0.0000    Z=              0.0000  Tot=              0.0000
 Quadrupole moment (field-independent basis, Debye-Ang):
   XX=            -28.6607   YY=            -32.0663   ZZ=            -32.0663
   XY=             -0.0002   XZ=              0.0000   YZ=              0.0000

 Normal termination of Gaussian 16 at Mon Apr 21 20:20:32 2025.
