 Gaussian 16, Revision A.03,
 Gaussian 16:  ES64L-G16RevA.03 25-Dec-2016

 --------------------------------------------
 #p opt UM062X/6-311+G** nosymm int=superfine
 --------------------------------------------

 -------------------
 Title Card Required
 -------------------
 Symbolic Z-matrix:
 Charge =  1 Multiplicity = 2

 SCF Done:  E(UM062X) =  -77.6120069821     A.U. after    9 cycles
 SCF Done:  E(UM062X) =  -77.6712243670     A.U. after   10 cycles
 SCF Done:  E(UM062X) =  -77.7263888445     A.U. after   10 cycles
 SCF Done:  E(UM062X) =  -77.7439076832     A.U. after    9 cycles
 SCF Done:  E(UM062X) =  -77.7474994562     A.U. after    9 cycles
 SCF Done:  E(UM062X) =  -77.7478035084     A.U. after    8 cycles
 SCF Done:  E(UM062X) =  -77.7478223111     A.U. after    8 cycles
 Optimization completed.
    -- Stationary point found.

                          Input orientation:
 ---------------------------------------------------------------------
 Center     Atomic      Atomic             Coordinates (Angstroms)
 Number     Number       Type             X           Y           Z
 ---------------------------------------------------------------------
      1          6           0       -0.459480    0.000000    0.000000
      2          6           0        0.459480    0.000000    0.000000
      3          1           0       -1.257878   -0.805627    0.000000
      4          1           0       -1.252275    0.813010    0.000000
      5          1           0        1.257878    0.805627   -0.000000
      6          1           0        1.252275   -0.813010   -0.000000
 ---------------------------------------------------------------------

 Alpha  occ. eigenvalues --  -10.81247 -10.78569  -1.25307  -0.96488  -0.88489
 Alpha  occ. eigenvalues --   -0.88301  -0.74421  -0.63460
 Alpha virt. eigenvalues --   -0.18043  -0.15303  -0.14524  -0.13782  -0.10976
 Alpha virt. eigenvalues --   -0.08966  -0.07541  -0.06528  -0.02298  -0.01421
 Alpha virt. eigenvalues --    0.00011   0.02907   0.14791   0.18402   0.18656

  Beta  occ. eigenvalues --  -10.81290 -10.78588  -1.24477  -0.91723  -0.85291
  Beta  occ. eigenvalues --   -0.84054  -0.74213
  Beta virt. eigenvalues --   -0.42732  -0.16543  -0.15145  -0.14401  -0.13467
  Beta virt. eigenvalues --   -0.10738  -0.08841  -0.04906  -0.04118  -0.02039
  Beta virt. eigenvalues --   -0.00423   0.00551   0.03739   0.14516   0.18145

 Mulliken charges and spin densities:
               1          2
     1  C   -0.146812   0.096797
     2  C   -0.146812   0.096797
     3  H    0.323300   0.200147
     4  H    0.323512   0.203056
     5  H    0.323300   0.200147
     6  H    0.323512   0.203056
 Sum of Mulliken charges =   1.00000   1.00000

 Dipole moment (field-independent basis, Debye):
    X=             -0.0000    Y=              0.0000    Z=             -0.0000  Tot=              0.0000
 Quadrupole moment (field-independent basis, Debye-Ang):
   XX=             -2.6046   YY=             -7.5014   ZZ=            -12.0750
   XY=             -0.0184   XZ=             -0.0000   YZ=             -0.0000

 Normal termination of Gaussian 16 at Tue Nov 19 10:40:44 2024.
