 Gaussian 16, Revision A.03,
 Gaussian 16:  ES64L-G16RevA.03 25-Dec-2016

 --------------------------------------------
 #p opt UM062X/6-311+G** nosymm int=superfine
 --------------------------------------------

 -------------------
 Title Card Required
 -------------------
 Symbolic Z-matrix:
 Charge =  0 Multiplicity = 1

 SCF Done:  E(UM062X) =  -95.7357510795     A.U. after   11 cycles
 SCF Done:  E(UM062X) =  -95.7490811127     A.U. after   11 cycles
 SCF Done:  E(UM062X) =  -95.7516835300     A.U. after   11 cycles
 SCF Done:  E(UM062X) =  -95.7517142239     A.U. after    9 cycles
 SCF Done:  E(UM062X) =  -95.7517168538     A.U. after    8 cycles
 SCF Done:  E(UM062X) =  -95.7517171602     A.U. after    8 cycles
 Optimization completed.
    -- Stationary point found.

                          Input orientation:
 ---------------------------------------------------------------------
 Center     Atomic      Atomic             Coordinates (Angstroms)
 Number     Number       Type             X           Y           Z
 ---------------------------------------------------------------------
      1          6           0       -1.055542    0.000000    0.000000
      2          7           0        1.055542    0.000000    0.000000
      3          1           0        1.175183   -1.007873    0.119404
      4          1           0       -1.248604    1.064237   -0.003990
      5          1           0        1.175192    0.379311    0.941373
      6          1           0       -1.248596   -0.507360   -0.935523
      7          1           0       -1.341264   -0.532616    0.898581
 ---------------------------------------------------------------------

 Alpha  occ. eigenvalues --  -14.74664 -10.58786  -0.91374  -0.77797  -0.52378
 Alpha  occ. eigenvalues --   -0.49970  -0.48312  -0.37448  -0.32223
 Alpha virt. eigenvalues --   -0.01065   0.01470   0.05131   0.05838   0.07856
 Alpha virt. eigenvalues --    0.11109   0.13692   0.16020   0.16687   0.18434
 Alpha virt. eigenvalues --    0.21204   0.22343   0.22496   0.31655   0.41914

  Beta  occ. eigenvalues --  -14.74664 -10.58786  -0.91374  -0.77797  -0.52378
  Beta  occ. eigenvalues --   -0.49970  -0.48312  -0.37448  -0.32223
  Beta virt. eigenvalues --   -0.01065   0.01470   0.05131   0.05838   0.07856
  Beta virt. eigenvalues --    0.11109   0.13692   0.16020   0.16687   0.18434
  Beta virt. eigenvalues --    0.21204   0.22343   0.22496   0.31655   0.41914

 Mulliken charges and spin densities:
               1          2
     1  C   -0.428245   0.000000
     2  N   -0.575575  -0.000000
     3  H    0.235324   0.000000
     4  H    0.182599   0.000000
     5  H    0.235323   0.000000
     6  H    0.182603   0.000000
     7  H    0.167971   0.000000
 Sum of Mulliken charges =  -0.00000  -0.00000

 Dipole moment (field-independent basis, Debye):
    X=             -1.7081    Y=             -0.8842    Z=              1.4923  Tot=              2.4344
 Quadrupole moment (field-independent basis, Debye-Ang):
   XX=            -15.1547   YY=            -13.2852   ZZ=            -14.1703
   XY=             -1.3072   XZ=              2.2062   YZ=              0.8082

 Normal termination of Gaussian 16 at Mon Apr 21 18:11:07 2025.
