 Gaussian 16, Revision A.03,
 Gaussian 16:  ES64L-G16RevA.03 25-Dec-2016

 --------------------------------------------
 #p opt UM062X/6-311+G** nosymm int=superfine
 --------------------------------------------

 -------------------
 Title Card Required
 -------------------
 Symbolic Z-matrix:
 Charge =  0 Multiplicity = 1

 SCF Done:  E(UM062X) =  -581.204009770     A.U. after    9 cycles
 SCF Done:  E(UM062X) =  -581.204389432     A.U. after    8 cycles
 SCF Done:  E(UM062X) =  -581.204505843     A.U. after    9 cycles
 SCF Done:  E(UM062X) =  -581.204462360     A.U. after    9 cycles
 SCF Done:  E(UM062X) =  -581.204505991     A.U. after    9 cycles
 SCF Done:  E(UM062X) =  -581.204509046     A.U. after    9 cycles
 Optimization completed.
    -- Stationary point found.

                          Input orientation:
 ---------------------------------------------------------------------
 Center     Atomic      Atomic             Coordinates (Angstroms)
 Number     Number       Type             X           Y           Z
 ---------------------------------------------------------------------
      1         14           0       -1.362518    0.000000    0.000000
      2         14           0        1.362518    0.000000    0.000000
      3          1           0       -2.102056   -1.271171    0.000979
      4          1           0        2.102056    1.271171   -0.000810
      5          1           0       -2.102082    1.271156    0.000167
      6          1           0        2.102082   -1.271156    0.000014
 ---------------------------------------------------------------------

 Alpha  occ. eigenvalues --  -67.03268 -67.03268  -5.57837  -5.57836  -3.89059
 Alpha  occ. eigenvalues --   -3.89057  -3.88895  -3.88884  -3.88827  -3.88825
 Alpha  occ. eigenvalues --   -0.61189  -0.57729  -0.43998  -0.43000  -0.34090
 Alpha  occ. eigenvalues --   -0.21861
 Alpha virt. eigenvalues --   -0.07387  -0.03680   0.02210   0.03124   0.03566
 Alpha virt. eigenvalues --    0.04514   0.04859   0.05332   0.05514   0.07031
 Alpha virt. eigenvalues --    0.07382   0.07630   0.11869   0.20557   0.26767

  Beta  occ. eigenvalues --  -67.03268 -67.03268  -5.57837  -5.57836  -3.89059
  Beta  occ. eigenvalues --   -3.89057  -3.88895  -3.88884  -3.88827  -3.88825
  Beta  occ. eigenvalues --   -0.61189  -0.57729  -0.43998  -0.43000  -0.34090
  Beta  occ. eigenvalues --   -0.21861
  Beta virt. eigenvalues --   -0.07387  -0.03680   0.02210   0.03124   0.03566
  Beta virt. eigenvalues --    0.04514   0.04859   0.05332   0.05514   0.07031
  Beta virt. eigenvalues --    0.07382   0.07630   0.11869   0.20557   0.26767

 Mulliken charges and spin densities:
               1          2
     1  Si   0.109848   0.000000
     2  Si   0.109848  -0.000000
     3  H   -0.054925  -0.000000
     4  H   -0.054925   0.000000
     5  H   -0.054924  -0.000000
     6  H   -0.054923  -0.000000
 Sum of Mulliken charges =  -0.00000   0.00000

 Dipole moment (field-independent basis, Debye):
    X=              0.0000    Y=              0.0000    Z=              0.0000  Tot=              0.0000
 Quadrupole moment (field-independent basis, Debye-Ang):
   XX=            -26.4913   YY=            -29.5194   ZZ=            -34.2680
   XY=             -0.0001   XZ=             -0.0006   YZ=             -0.0015

 Normal termination of Gaussian 16 at Mon Apr 21 20:29:39 2025.
