 Gaussian 16, Revision A.03,
 Gaussian 16:  ES64L-G16RevA.03 25-Dec-2016

 ---------------------------------------
 #p UM062X/6-311+G** force int=superfine
 ---------------------------------------

 -------------------
 Title Card Required
 -------------------
 Symbolic Z-matrix:
 Charge =  1 Multiplicity = 2

                         Standard orientation:
 ---------------------------------------------------------------------
 Center     Atomic      Atomic             Coordinates (Angstroms)
 Number     Number       Type             X           Y           Z
 ---------------------------------------------------------------------
      1          6           0        1.198404   -0.000038   -0.000024
      2          6           0       -1.198404    0.000043    0.000012
      3          1           0       -1.287774   -0.989614   -0.433974
      4          1           0        1.286999   -0.870703    0.640170
      5          1           0       -1.287427    0.870789   -0.640013
      6          1           0       -1.286980    0.119026    1.074142
      7          1           0        1.287797    0.989666    0.433852
      8          1           0        1.287386   -0.119196   -1.074101
 ---------------------------------------------------------------------

 SCF Done:  E(UM062X) =  -79.3603571593     A.U. after    9 cycles

 The electronic state is 2-A.
 Alpha  occ. eigenvalues --  -10.85795 -10.85789  -1.07178  -1.02355  -0.76817
 Alpha  occ. eigenvalues --   -0.76816  -0.74225  -0.74224  -0.58269
 Alpha virt. eigenvalues --   -0.30342  -0.15570  -0.10729  -0.10729  -0.09971
 Alpha virt. eigenvalues --   -0.06533  -0.06245  -0.06245  -0.04325  -0.04323
 Alpha virt. eigenvalues --   -0.02655   0.01651   0.01653   0.05195   0.07334

  Beta  occ. eigenvalues --  -10.85592 -10.85592  -1.03888  -0.99794  -0.76025
  Beta  occ. eigenvalues --   -0.76025  -0.73598  -0.73597
  Beta virt. eigenvalues --   -0.35684  -0.21790  -0.15726  -0.11083  -0.11083
  Beta virt. eigenvalues --   -0.09305  -0.06579  -0.06579  -0.06564  -0.04075
  Beta virt. eigenvalues --   -0.04073  -0.01894   0.02130   0.02131   0.05610

 Mulliken charges and spin densities:
               1          2
     1  C   -0.294562   0.570172
     2  C   -0.294563   0.570172
     3  H    0.264869  -0.023398
     4  H    0.264837  -0.023385
     5  H    0.264854  -0.023394
     6  H    0.264840  -0.023380
     7  H    0.264869  -0.023398
     8  H    0.264856  -0.023388
 Sum of Mulliken charges =   1.00000   1.00000

 Dipole moment (field-independent basis, Debye):
    X=              0.0000    Y=             -0.0000    Z=              0.0000  Tot=              0.0000
 Quadrupole moment (field-independent basis, Debye-Ang):
   XX=             -4.4406   YY=            -10.8981   ZZ=            -10.8983
   XY=              0.0006   XZ=              0.0002   YZ=              0.0000

 Normal termination of Gaussian 16 at Wed Nov 13 13:45:49 2024.
