 Gaussian 16, Revision A.03,
 Gaussian 16:  ES64L-G16RevA.03 25-Dec-2016

 --------------------------------------------
 #p opt UM062X/6-311+G** nosymm int=superfine
 --------------------------------------------

 -------------------
 Title Card Required
 -------------------
 Symbolic Z-matrix:
 Charge =  0 Multiplicity = 1

 SCF Done:  E(UM062X) =  -75.5075448899     A.U. after    9 cycles
 SCF Done:  E(UM062X) =  -75.8624546700     A.U. after    9 cycles
 SCF Done:  E(UM062X) =  -76.0854434060     A.U. after   11 cycles
 SCF Done:  E(UM062X) =  -76.0922716740     A.U. after   10 cycles
 SCF Done:  E(UM062X) =  -76.0933680091     A.U. after    9 cycles
 Optimization completed.
    -- Stationary point found.

                          Input orientation:
 ---------------------------------------------------------------------
 Center     Atomic      Atomic             Coordinates (Angstroms)
 Number     Number       Type             X           Y           Z
 ---------------------------------------------------------------------
      1          6           0       -0.365094    0.000000    0.000000
      2          6           0        0.365094    0.000000    0.000000
      3          1           0       -1.420294    0.000000   -0.000000
      4          1           0        1.420290    0.000000   -0.000000
 ---------------------------------------------------------------------

 Alpha  occ. eigenvalues --  -10.57101 -10.42881  -0.84775  -0.56781  -0.52327
 Alpha  occ. eigenvalues --   -0.50287  -0.50287
 Alpha virt. eigenvalues --    0.02986   0.03920   0.06535   0.06535   0.08734
 Alpha virt. eigenvalues --    0.08734   0.10306   0.17203   0.24140   0.25304
 Alpha virt. eigenvalues --    0.28562   0.28562   0.45683   0.49757   0.49757

  Beta  occ. eigenvalues --  -10.57101 -10.42881  -0.84775  -0.56781  -0.52327
  Beta  occ. eigenvalues --   -0.50287  -0.50287
  Beta virt. eigenvalues --    0.02986   0.03920   0.06535   0.06535   0.08734
  Beta virt. eigenvalues --    0.08734   0.10306   0.17203   0.24140   0.25304
  Beta virt. eigenvalues --    0.28562   0.28562   0.45683   0.49757   0.49757

 Mulliken charges and spin densities:
               1          2
     1  C   -0.083967  -0.000000
     2  C   -0.083972   0.000000
     3  H    0.083970   0.000000
     4  H    0.083969   0.000000
 Sum of Mulliken charges =  -0.00000  -0.00000

 Dipole moment (field-independent basis, Debye):
    X=             -0.0000    Y=              0.0000    Z=             -0.0000  Tot=              0.0000
 Quadrupole moment (field-independent basis, Debye-Ang):
   XX=             -8.2954   YY=            -11.1171   ZZ=            -11.1171
   XY=             -0.0000   XZ=              0.0000   YZ=             -0.0000

 Normal termination of Gaussian 16 at Tue Dec  3 19:51:32 2024.
