 Gaussian 16, Revision A.03,
 Gaussian 16:  ES64L-G16RevA.03 25-Dec-2016

 --------------------------------------------
 #p opt UM062X/6-311+G** nosymm int=superfine
 --------------------------------------------

 -------------------
 Title Card Required
 -------------------
 Symbolic Z-matrix:
 Charge =  0 Multiplicity = 1

 SCF Done:  E(UM062X) =  -151.347620729     A.U. after   21 cycles
 SCF Done:  E(UM062X) =  -151.349992837     A.U. after   21 cycles
 SCF Done:  E(UM062X) =  -151.353379740     A.U. after   20 cycles
 SCF Done:  E(UM062X) =  -151.353982317     A.U. after   23 cycles
 SCF Done:  E(UM062X) =  -151.354075594     A.U. after   24 cycles
 SCF Done:  E(UM062X) =  -151.354083045     A.U. after   19 cycles
 SCF Done:  E(UM062X) =  -151.354083125     A.U. after   21 cycles
 Optimization completed.
    -- Stationary point found.

                          Input orientation:
 ---------------------------------------------------------------------
 Center     Atomic      Atomic             Coordinates (Angstroms)
 Number     Number       Type             X           Y           Z
 ---------------------------------------------------------------------
      1          8           0       -1.411938    0.000000    0.000000
      2          8           0        1.411938    0.000000    0.000000
      3          1           0       -1.235091   -0.769837   -0.569919
      4          1           0        1.235090    0.769521    0.570346
 ---------------------------------------------------------------------

 Alpha  occ. eigenvalues --  -19.72738 -19.72736  -1.13361  -1.12395  -0.57142
 Alpha  occ. eigenvalues --   -0.56356  -0.44560  -0.43733  -0.38965
 Alpha virt. eigenvalues --   -0.24254   0.05397   0.08618   0.14718   0.15246
 Alpha virt. eigenvalues --    0.17676   0.19146   0.20928   0.21768   0.23997
 Alpha virt. eigenvalues --    0.31911   0.48707   0.52835   0.95361   0.99089

  Beta  occ. eigenvalues --  -19.72738 -19.72736  -1.13361  -1.12395  -0.57142
  Beta  occ. eigenvalues --   -0.56356  -0.44560  -0.43733  -0.38965
  Beta virt. eigenvalues --   -0.24254   0.05397   0.08618   0.14718   0.15246
  Beta virt. eigenvalues --    0.17676   0.19146   0.20928   0.21768   0.23997
  Beta virt. eigenvalues --    0.31911   0.48707   0.52835   0.95361   0.99089

 Mulliken charges and spin densities:
               1          2
     1  O   -0.270193  -0.000000
     2  O   -0.270193   0.000000
     3  H    0.270193  -0.000000
     4  H    0.270193   0.000000
 Sum of Mulliken charges =   0.00000   0.00000

 Dipole moment (field-independent basis, Debye):
    X=             -0.0000    Y=             -0.0006    Z=              0.0008  Tot=              0.0010
 Quadrupole moment (field-independent basis, Debye-Ang):
   XX=            -12.5451   YY=            -10.4367   ZZ=            -11.9217
   XY=              3.9378   XZ=              2.9169   YZ=              2.4373

 Normal termination of Gaussian 16 at Mon Apr 21 21:31:37 2025.
