 Gaussian 16, Revision A.03,
 Gaussian 16:  ES64L-G16RevA.03 25-Dec-2016

 --------------------------------------------
 #p opt UM062X/6-311+G** nosymm int=superfine
 --------------------------------------------

 -------------------
 Title Card Required
 -------------------
 Symbolic Z-matrix:
 Charge =  0 Multiplicity = 1

 SCF Done:  E(UM062X) =  -80.4090635661     A.U. after   16 cycles
 SCF Done:  E(UM062X) =  -80.4123899061     A.U. after    9 cycles
 SCF Done:  E(UM062X) =  -80.4124373262     A.U. after    9 cycles
 Optimization completed.
    -- Stationary point found.

                          Input orientation:
 ---------------------------------------------------------------------
 Center     Atomic      Atomic             Coordinates (Angstroms)
 Number     Number       Type             X           Y           Z
 ---------------------------------------------------------------------
      1          5           0       -1.992066    0.000000    0.000000
      2          7           0        1.992066    0.000000    0.000000
      3          1           0       -3.224895   -0.000601    0.000000
      4          1           0        3.031269    0.000469   -0.000000
 ---------------------------------------------------------------------

 Alpha  occ. eigenvalues --  -14.82598  -7.12059  -0.89074  -0.54267  -0.45593
 Alpha  occ. eigenvalues --   -0.33251  -0.27265
 Alpha virt. eigenvalues --   -0.12118  -0.03995  -0.03952   0.02593   0.04031
 Alpha virt. eigenvalues --    0.06645   0.06744   0.09556   0.13810   0.14836
 Alpha virt. eigenvalues --    0.16868   0.19351   0.25181   0.38566   0.42485

  Beta  occ. eigenvalues --  -14.82598  -7.12059  -0.89074  -0.54267  -0.45593
  Beta  occ. eigenvalues --   -0.33251  -0.27265
  Beta virt. eigenvalues --   -0.12118  -0.03995  -0.03952   0.02593   0.04031
  Beta virt. eigenvalues --    0.06645   0.06744   0.09556   0.13810   0.14836
  Beta virt. eigenvalues --    0.16868   0.19351   0.25181   0.38566   0.42485

 Mulliken charges and spin densities:
               1          2
     1  B   -0.008833  -0.000000
     2  N   -0.194074   0.000000
     3  H   -0.009038   0.000000
     4  H    0.211945  -0.000000
 Sum of Mulliken charges =  -0.00000  -0.00000

 Dipole moment (field-independent basis, Debye):
    X=              0.1971    Y=             -0.0001    Z=              0.0000  Tot=              0.1971
 Quadrupole moment (field-independent basis, Debye-Ang):
   XX=             -3.0561   YY=            -11.8562   ZZ=            -15.1348
   XY=              0.0015   XZ=              0.0000   YZ=             -0.0008

 Normal termination of Gaussian 16 at Mon Apr 21 18:08:38 2025.
