 Gaussian 16, Revision A.03,
 Gaussian 16:  ES64L-G16RevA.03 25-Dec-2016

 --------------------------------------------
 #p opt UM062X/6-311+G** nosymm int=superfine
 --------------------------------------------

 -------------------
 Title Card Required
 -------------------
 Symbolic Z-matrix:
 Charge =  0 Multiplicity = 1

 SCF Done:  E(UM062X) =  -76.8552010965     A.U. after   15 cycles
 SCF Done:  E(UM062X) =  -76.8555273677     A.U. after   15 cycles
 SCF Done:  E(UM062X) =  -76.8563901404     A.U. after   25 cycles
 SCF Done:  E(UM062X) =  -76.8569812120     A.U. after   17 cycles
 SCF Done:  E(UM062X) =  -76.8570425190     A.U. after   15 cycles
 SCF Done:  E(UM062X) =  -76.8570620965     A.U. after   20 cycles
 SCF Done:  E(UM062X) =  -76.8570624649     A.U. after    9 cycles
 SCF Done:  E(UM062X) =  -76.8570625457     A.U. after   11 cycles
 Optimization completed.
    -- Stationary point found.

                          Input orientation:
 ---------------------------------------------------------------------
 Center     Atomic      Atomic             Coordinates (Angstroms)
 Number     Number       Type             X           Y           Z
 ---------------------------------------------------------------------
      1          6           0       -2.107625    0.000000    0.000000
      2          6           0        2.107625    0.000000    0.000000
      3          1           0       -1.910529   -0.650126    0.888971
      4          1           0        1.910664    0.650683   -0.888594
 ---------------------------------------------------------------------

 Alpha  occ. eigenvalues --  -10.67619 -10.67618  -0.73006  -0.72748  -0.39178
 Alpha  occ. eigenvalues --   -0.39077  -0.22804
 Alpha virt. eigenvalues --   -0.13979  -0.10305  -0.09837   0.03085   0.04395
 Alpha virt. eigenvalues --    0.07201   0.07231   0.09116   0.09520   0.10511
 Alpha virt. eigenvalues --    0.13700   0.17988   0.19017   0.45352   0.45953

  Beta  occ. eigenvalues --  -10.67619 -10.67618  -0.73006  -0.72748  -0.39178
  Beta  occ. eigenvalues --   -0.39077  -0.22804
  Beta virt. eigenvalues --   -0.13979  -0.10305  -0.09837   0.03085   0.04395
  Beta virt. eigenvalues --    0.07201   0.07231   0.09116   0.09520   0.10511
  Beta virt. eigenvalues --    0.13700   0.17988   0.19017   0.45352   0.45953

 Mulliken charges and spin densities:
               1          2
     1  C   -0.139945  -0.000000
     2  C   -0.139959   0.000000
     3  H    0.139953   0.000000
     4  H    0.139952  -0.000000
 Sum of Mulliken charges =  -0.00000  -0.00000

 Dipole moment (field-independent basis, Debye):
    X=              0.0001    Y=              0.0008    Z=              0.0006  Tot=              0.0010
 Quadrupole moment (field-independent basis, Debye-Ang):
   XX=            -17.5212   YY=            -13.0314   ZZ=            -13.8616
   XY=              4.0197   XZ=             -5.4935   YZ=              1.3081

 Normal termination of Gaussian 16 at Wed Dec  4 00:24:31 2024.
