 Gaussian 16, Revision A.03,
 Gaussian 16:  ES64L-G16RevA.03 25-Dec-2016

 --------------------------------------------
 #p opt UM062X/6-311+G** nosymm int=superfine
 --------------------------------------------

 -------------------
 Title Card Required
 -------------------
 Symbolic Z-matrix:
 Charge =  1 Multiplicity = 2

 SCF Done:  E(UM062X) =  -92.6181634010     A.U. after   20 cycles
 SCF Done:  E(UM062X) =  -92.6185907405     A.U. after   27 cycles
 SCF Done:  E(UM062X) =  -92.6185918046     A.U. after   11 cycles
 Optimization completed.
    -- Stationary point found.

                          Input orientation:
 ---------------------------------------------------------------------
 Center     Atomic      Atomic             Coordinates (Angstroms)
 Number     Number       Type             X           Y           Z
 ---------------------------------------------------------------------
      1          6           0       -1.051540    0.000000    0.000000
      2          7           0        1.051540    0.000000    0.000000
      3          1           0       -2.173241   -0.000000    0.000000
 ---------------------------------------------------------------------

 Alpha  occ. eigenvalues --  -15.22017 -11.08893  -1.17583  -1.07206  -0.76247
 Alpha  occ. eigenvalues --   -0.70740  -0.62046
 Alpha virt. eigenvalues --   -0.44129  -0.43091  -0.39750  -0.16260  -0.11512
 Alpha virt. eigenvalues --   -0.10296  -0.09798  -0.05563  -0.02039  -0.01494
 Alpha virt. eigenvalues --    0.00588   0.07914   0.23394   0.29416   0.29427

  Beta  occ. eigenvalues --  -15.20837 -11.08904  -1.11486  -1.05628  -0.75590
  Beta  occ. eigenvalues --   -0.61272
  Beta virt. eigenvalues --   -0.43676  -0.42626  -0.36062  -0.34327  -0.16511
  Beta virt. eigenvalues --   -0.11897  -0.10189  -0.10086  -0.05935  -0.02087
  Beta virt. eigenvalues --   -0.01843   0.00634   0.06296   0.23464   0.29228

 Mulliken charges and spin densities:
               1          2
     1  C    0.263795   0.117058
     2  N    0.397268   0.903644
     3  H    0.338937  -0.020702
 Sum of Mulliken charges =   1.00000   1.00000

 Dipole moment (field-independent basis, Debye):
    X=             -4.3114    Y=             -0.0000    Z=              0.0000  Tot=              4.3114
 Quadrupole moment (field-independent basis, Debye-Ang):
   XX=              2.5040   YY=             -9.8511   ZZ=            -10.9890
   XY=              0.0000   XZ=             -0.0000   YZ=              0.8422

 Normal termination of Gaussian 16 at Mon Apr 21 18:29:19 2025.
