 Gaussian 16, Revision A.03,
 Gaussian 16:  ES64L-G16RevA.03 25-Dec-2016

 ---------------------------------------------------------
 #p opt UM062X/6-311+G** nosymm int=superfine SCF=NoVarAcc
 ---------------------------------------------------------

 -------------------
 Title Card Required
 -------------------
 Symbolic Z-matrix:
 Charge =  1 Multiplicity = 2

 SCF Done:  E(UM062X) =  -76.5828218568     A.U. after   15 cycles
 SCF Done:  E(UM062X) =  -76.5831588793     A.U. after   33 cycles
 Optimization completed.
    -- Stationary point found.

                          Input orientation:
 ---------------------------------------------------------------------
 Center     Atomic      Atomic             Coordinates (Angstroms)
 Number     Number       Type             X           Y           Z
 ---------------------------------------------------------------------
      1          6           0       -2.882160    0.000000    0.000000
      2          6           0        2.882160    0.000000    0.000000
      3          1           0       -3.999776    0.000000    0.000000
      4          1           0        3.999775   -0.000000    0.000000
 ---------------------------------------------------------------------

 Alpha  occ. eigenvalues --  -10.93006 -10.93006  -0.96747  -0.96727  -0.61928
 Alpha  occ. eigenvalues --   -0.61875  -0.45376
 Alpha virt. eigenvalues --   -0.40514  -0.31750  -0.31731  -0.10978  -0.10501
 Alpha virt. eigenvalues --   -0.07912  -0.06259  -0.06122  -0.04489  -0.04259
 Alpha virt. eigenvalues --   -0.01341   0.00668   0.03174   0.28633   0.30208

  Beta  occ. eigenvalues --  -10.92590 -10.92590  -0.94370  -0.94368  -0.60540
  Beta  occ. eigenvalues --   -0.60494
  Beta virt. eigenvalues --   -0.29862  -0.29837  -0.28230  -0.28199  -0.11320
  Beta virt. eigenvalues --   -0.10545  -0.07587  -0.05462  -0.04528  -0.03669
  Beta virt. eigenvalues --   -0.02729  -0.01403   0.02379   0.04961   0.27711

 Mulliken charges and spin densities:
               1          2
     1  C    0.289497   0.515927
     2  C    0.289496   0.515928
     3  H    0.210504  -0.015927
     4  H    0.210504  -0.015927
 Sum of Mulliken charges =   1.00000   1.00000

 Dipole moment (field-independent basis, Debye):
    X=             -0.0000    Y=             -0.0000    Z=              0.0000  Tot=              0.0000
 Quadrupole moment (field-independent basis, Debye-Ang):
   XX=             52.1653   YY=            -10.9485   ZZ=             -9.9768
   XY=              0.0000   XZ=              0.0000   YZ=             -0.8648

 Normal termination of Gaussian 16 at Tue Dec  3 17:43:10 2024.
