 Gaussian 16, Revision A.03,
 Gaussian 16:  ES64L-G16RevA.03 25-Dec-2016

 --------------------------------------------
 #p opt UM062X/6-311+G** nosymm int=superfine
 --------------------------------------------

 -------------------
 Title Card Required
 -------------------
 Symbolic Z-matrix:
 Charge =  1 Multiplicity = 2

 SCF Done:  E(UM062X) =  -580.865305890     A.U. after   15 cycles
 SCF Done:  E(UM062X) =  -580.872572848     A.U. after    9 cycles
 SCF Done:  E(UM062X) =  -580.874613727     A.U. after   12 cycles
 SCF Done:  E(UM062X) =  -580.874616387     A.U. after    6 cycles
 Optimization completed.
    -- Stationary point found.

                          Input orientation:
 ---------------------------------------------------------------------
 Center     Atomic      Atomic             Coordinates (Angstroms)
 Number     Number       Type             X           Y           Z
 ---------------------------------------------------------------------
      1         14           0       -2.266295    0.000000    0.000000
      2         14           0        2.266295    0.000000    0.000000
      3          1           0       -3.163307   -1.190768    0.000050
      4          1           0        3.163307    1.190767    0.001080
      5          1           0       -3.163322    1.190757   -0.000045
      6          1           0        3.163322   -1.190756   -0.001075
 ---------------------------------------------------------------------

 Alpha  occ. eigenvalues --  -67.24095 -67.24095  -5.78583  -5.78582  -4.09854
 Alpha  occ. eigenvalues --   -4.09854  -4.09532  -4.09532  -4.09189  -4.09189
 Alpha  occ. eigenvalues --   -0.78112  -0.77998  -0.59908  -0.59878  -0.49454
 Alpha  occ. eigenvalues --   -0.47359
 Alpha virt. eigenvalues --   -0.27001  -0.26415  -0.12501  -0.12012  -0.09249
 Alpha virt. eigenvalues --   -0.08253  -0.07880  -0.07129  -0.06714  -0.05919
 Alpha virt. eigenvalues --   -0.05800  -0.05783  -0.05464  -0.03454   0.12865

  Beta  occ. eigenvalues --  -67.23755 -67.23755  -5.78324  -5.78323  -4.09750
  Beta  occ. eigenvalues --   -4.09749  -4.09077  -4.09077  -4.08751  -4.08750
  Beta  occ. eigenvalues --   -0.76293  -0.76029  -0.58731  -0.58690  -0.43040
  Beta virt. eigenvalues --   -0.32897  -0.25818  -0.25079  -0.11430  -0.11386
  Beta virt. eigenvalues --   -0.09304  -0.07345  -0.06794  -0.06660  -0.06334
  Beta virt. eigenvalues --   -0.05845  -0.05561  -0.05274  -0.05013  -0.03017

 Mulliken charges and spin densities:
               1          2
     1  Si   0.560611   0.388086
     2  Si   0.560611   0.388086
     3  H   -0.030306   0.055957
     4  H   -0.030306   0.055957
     5  H   -0.030305   0.055957
     6  H   -0.030305   0.055957
 Sum of Mulliken charges =   1.00000   1.00000

 Dipole moment (field-independent basis, Debye):
    X=              0.0000    Y=              0.0000    Z=              0.0000  Tot=              0.0000
 Quadrupole moment (field-independent basis, Debye-Ang):
   XX=              4.4292   YY=            -25.8760   ZZ=            -20.8752
   XY=             -0.0000   XZ=              0.0000   YZ=             -0.0022

 Normal termination of Gaussian 16 at Mon Apr 21 20:27:58 2025.
