 Gaussian 16, Revision A.03,
 Gaussian 16:  ES64L-G16RevA.03 25-Dec-2016

 --------------------------------------------
 #p opt UM062X/6-311+G** nosymm int=superfine
 --------------------------------------------

 -------------------
 Title Card Required
 -------------------
 Symbolic Z-matrix:
 Charge =  0 Multiplicity = 1

 SCF Done:  E(UM062X) =  -93.2317025000     A.U. after   10 cycles
 SCF Done:  E(UM062X) =  -93.2318637918     A.U. after    9 cycles
 SCF Done:  E(UM062X) =  -93.2318641000     A.U. after    7 cycles
 Optimization completed.
    -- Stationary point found.

                          Input orientation:
 ---------------------------------------------------------------------
 Center     Atomic      Atomic             Coordinates (Angstroms)
 Number     Number       Type             X           Y           Z
 ---------------------------------------------------------------------
      1          6           0       -0.772395    0.000000    0.000000
      2          7           0        0.772395    0.000000    0.000000
      3          1           0       -1.855336    0.000000   -0.000000
 ---------------------------------------------------------------------

 Alpha  occ. eigenvalues --  -14.87069 -10.69019  -0.91208  -0.72711  -0.47581
 Alpha  occ. eigenvalues --   -0.36640  -0.36640
 Alpha virt. eigenvalues --   -0.06143  -0.06143   0.01083   0.02581   0.07068
 Alpha virt. eigenvalues --    0.07068   0.10476   0.14769   0.17597   0.17597
 Alpha virt. eigenvalues --    0.24521   0.29760   0.54829   0.55755   0.55755

  Beta  occ. eigenvalues --  -14.87069 -10.69019  -0.91208  -0.72711  -0.47581
  Beta  occ. eigenvalues --   -0.36640  -0.36640
  Beta virt. eigenvalues --   -0.06143  -0.06143   0.01083   0.02581   0.07068
  Beta virt. eigenvalues --    0.07068   0.10476   0.14769   0.17597   0.17597
  Beta virt. eigenvalues --    0.24521   0.29760   0.54829   0.55755   0.55755

 Mulliken charges and spin densities:
               1          2
     1  C   -0.141627  -0.000000
     2  N   -0.095950   0.000000
     3  H    0.237577   0.000000
 Sum of Mulliken charges =   0.00000   0.00000

 Dipole moment (field-independent basis, Debye):
    X=             -3.1033    Y=              0.0000    Z=             -0.0000  Tot=              3.1033
 Quadrupole moment (field-independent basis, Debye-Ang):
   XX=             -8.4940   YY=            -13.1870   ZZ=            -13.1870
   XY=             -0.0000   XZ=              0.0000   YZ=             -0.0000

 Normal termination of Gaussian 16 at Mon Apr 21 18:33:00 2025.
