 Gaussian 16, Revision A.03,
 Gaussian 16:  ES64L-G16RevA.03 25-Dec-2016

 ---------------------------------------------------
 #p UM062X/6-311+G** force int=superfine pop=saveNBO
 ---------------------------------------------------

 -------------------
 Title Card Required
 -------------------
 Symbolic Z-matrix:
 Charge =  0 Multiplicity = 1

                         Standard orientation:
 ---------------------------------------------------------------------
 Center     Atomic      Atomic             Coordinates (Angstroms)
 Number     Number       Type             X           Y           Z
 ---------------------------------------------------------------------
      1          6           0        0.000000    0.000000   -1.438976
      2         16           0        0.000000    0.000000    0.539616
 ---------------------------------------------------------------------

 SCF Done:  E(UM062X) =  -436.092507393     A.U. after   12 cycles

 The electronic state is 1-SG.
 Alpha  occ. eigenvalues --  -89.95769 -10.74964  -8.31624  -6.23530  -6.23374
 Alpha  occ. eigenvalues --   -6.23374  -0.82758  -0.63524  -0.38910  -0.35635
 Alpha  occ. eigenvalues --   -0.35635
 Alpha virt. eigenvalues --   -0.11319  -0.11319   0.00339   0.03704   0.05601
 Alpha virt. eigenvalues --    0.05601   0.07357   0.08736   0.09991   0.09991
 Alpha virt. eigenvalues --    0.16400   0.33557   0.35203   0.35203   0.55182

  Beta  occ. eigenvalues --  -89.95769 -10.74964  -8.31624  -6.23530  -6.23374
  Beta  occ. eigenvalues --   -6.23374  -0.82758  -0.63524  -0.38910  -0.35635
  Beta  occ. eigenvalues --   -0.35635
  Beta virt. eigenvalues --   -0.11319  -0.11319   0.00339   0.03704   0.05601
  Beta virt. eigenvalues --    0.05601   0.07357   0.08736   0.09991   0.09991
  Beta virt. eigenvalues --    0.16400   0.33557   0.35203   0.35203   0.55182

 Mulliken charges and spin densities:
               1          2
     1  C    0.049731   0.000000
     2  S   -0.049731  -0.000000
 Sum of Mulliken charges =  -0.00000   0.00000

 Dipole moment (field-independent basis, Debye):
    X=              0.0000    Y=              0.0000    Z=             -0.0997  Tot=              0.0997
 Quadrupole moment (field-independent basis, Debye-Ang):
   XX=            -19.6841   YY=            -19.6841   ZZ=            -19.1436
   XY=              0.0000   XZ=              0.0000   YZ=              0.0000

 Summary of Natural Population Analysis:

                                       Natural Population
                Natural  -----------------------------------------------
    Atom  No    Charge         Core      Valence    Rydberg      Total
 -----------------------------------------------------------------------
      C    1    0.05758      0.99997     1.93769    0.00476     2.94242
      S    2   -0.05758      4.99988     3.04582    0.01187     8.05758
 =======================================================================
   * Total *    0.00000      5.99986     4.98351    0.01663    11.00000

 Normal termination of Gaussian 16 at Mon Apr 21 19:40:32 2025.
