 Gaussian 16, Revision A.03,
 Gaussian 16:  ES64L-G16RevA.03 25-Dec-2016

 --------------------------------------------
 #p opt UM062X/6-311+G** nosymm int=superfine
 --------------------------------------------

 -------------------
 Title Card Required
 -------------------
 Symbolic Z-matrix:
 Charge =  0 Multiplicity = 1

 SCF Done:  E(UM062X) =  -382.282875505     A.U. after   12 cycles
 SCF Done:  E(UM062X) =  -382.291999590     A.U. after   11 cycles
 SCF Done:  E(UM062X) =  -382.296274911     A.U. after   11 cycles
 SCF Done:  E(UM062X) =  -382.296313383     A.U. after    9 cycles
 SCF Done:  E(UM062X) =  -382.296335869     A.U. after    9 cycles
 SCF Done:  E(UM062X) =  -382.296345028     A.U. after    9 cycles
 SCF Done:  E(UM062X) =  -382.296346006     A.U. after    8 cycles
 SCF Done:  E(UM062X) =  -382.296346276     A.U. after    8 cycles
 Optimization completed.
    -- Stationary point found.

                          Input orientation:
 ---------------------------------------------------------------------
 Center     Atomic      Atomic             Coordinates (Angstroms)
 Number     Number       Type             X           Y           Z
 ---------------------------------------------------------------------
      1          6           0       -1.631264    0.000000    0.000000
      2         15           0        1.631264    0.000000    0.000000
      3          1           0        1.581241   -1.417985    0.032021
      4          1           0       -1.741501    1.048561    0.236666
      5          1           0        1.581346    0.084098    1.415835
      6          1           0       -1.741468   -0.315110   -1.027716
      7          1           0       -1.759752   -0.729655    0.786959
 ---------------------------------------------------------------------

 Alpha  occ. eigenvalues --  -78.03318 -10.58687  -6.85665  -4.97192  -4.97123
 Alpha  occ. eigenvalues --   -4.96936  -0.78078  -0.69421  -0.50030  -0.49969
 Alpha  occ. eigenvalues --   -0.43619  -0.34736  -0.25874
 Alpha virt. eigenvalues --   -0.09628   0.02008   0.03999   0.04121   0.04619
 Alpha virt. eigenvalues --    0.06383   0.06940   0.07164   0.07362   0.12027
 Alpha virt. eigenvalues --    0.17512   0.18669   0.18835   0.24087   0.30067

  Beta  occ. eigenvalues --  -78.03318 -10.58687  -6.85665  -4.97192  -4.97123
  Beta  occ. eigenvalues --   -4.96936  -0.78078  -0.69421  -0.50030  -0.49969
  Beta  occ. eigenvalues --   -0.43619  -0.34736  -0.25874
  Beta virt. eigenvalues --   -0.09628   0.02008   0.03999   0.04121   0.04619
  Beta virt. eigenvalues --    0.06383   0.06940   0.07164   0.07362   0.12027
  Beta virt. eigenvalues --    0.17512   0.18669   0.18835   0.24087   0.30067

 Mulliken charges and spin densities:
               1          2
     1  C   -0.536682   0.000000
     2  P   -0.035808  -0.000000
     3  H    0.006453   0.000000
     4  H    0.187170  -0.000000
     5  H    0.006464   0.000000
     6  H    0.187194  -0.000000
     7  H    0.185208  -0.000000
 Sum of Mulliken charges =  -0.00000  -0.00000

 Dipole moment (field-independent basis, Debye):
    X=             -1.1054    Y=             -0.5464    Z=              0.5932  Tot=              1.3683
 Quadrupole moment (field-independent basis, Debye-Ang):
   XX=            -22.3998   YY=            -22.2785   ZZ=            -22.3940
   XY=             -1.1403   XZ=              1.2380   YZ=              0.7033

 Normal termination of Gaussian 16 at Mon Apr 21 19:05:15 2025.
