 Gaussian 16, Revision A.03,
 Gaussian 16:  ES64L-G16RevA.03 25-Dec-2016

 --------------------------------------------
 #p opt UM062X/6-311+G** nosymm int=superfine
 --------------------------------------------

 -------------------
 Title Card Required
 -------------------
 Symbolic Z-matrix:
 Charge =  0 Multiplicity = 1

 SCF Done:  E(UM062X) =  -382.216771860     A.U. after   18 cycles
 SCF Done:  E(UM062X) =  -382.227472857     A.U. after   13 cycles
 SCF Done:  E(UM062X) =  -382.234358756     A.U. after   14 cycles
 SCF Done:  E(UM062X) =  -382.234479932     A.U. after   12 cycles
 SCF Done:  E(UM062X) =  -382.234531801     A.U. after   12 cycles
 SCF Done:  E(UM062X) =  -382.234616449     A.U. after   13 cycles
 SCF Done:  E(UM062X) =  -382.234664804     A.U. after   12 cycles
 SCF Done:  E(UM062X) =  -382.234674447     A.U. after   11 cycles
 SCF Done:  E(UM062X) =  -382.234675078     A.U. after   10 cycles
 SCF Done:  E(UM062X) =  -382.234675431     A.U. after    8 cycles
 SCF Done:  E(UM062X) =  -382.234676122     A.U. after    9 cycles
 SCF Done:  E(UM062X) =  -382.234676826     A.U. after    8 cycles
 SCF Done:  E(UM062X) =  -382.234677225     A.U. after   10 cycles
 SCF Done:  E(UM062X) =  -382.234677425     A.U. after    9 cycles
 Optimization completed.
    -- Stationary point found.

                          Input orientation:
 ---------------------------------------------------------------------
 Center     Atomic      Atomic             Coordinates (Angstroms)
 Number     Number       Type             X           Y           Z
 ---------------------------------------------------------------------
      1          6           0       -2.331264    0.000000    0.000000
      2         15           0        2.331264    0.000000    0.000000
      3          1           0        2.242461   -1.416759    0.019078
      4          1           0       -2.339606    1.054833    0.232569
      5          1           0        2.241063    0.069689    1.415054
      6          1           0       -2.339874   -0.324688   -1.030214
      7          1           0       -2.384829   -0.728509    0.795856
 ---------------------------------------------------------------------

 Alpha  occ. eigenvalues --  -78.02893 -10.59812  -6.85335  -4.96854  -4.96784
 Alpha  occ. eigenvalues --   -4.96602  -0.79293  -0.69352  -0.51510  -0.51474
 Alpha  occ. eigenvalues --   -0.43522  -0.34617  -0.22321
 Alpha virt. eigenvalues --   -0.14386   0.02063   0.03719   0.03980   0.04478
 Alpha virt. eigenvalues --    0.06054   0.06493   0.07204   0.07327   0.10793
 Alpha virt. eigenvalues --    0.16036   0.17911   0.17948   0.22403   0.30618

  Beta  occ. eigenvalues --  -78.02893 -10.59812  -6.85335  -4.96854  -4.96784
  Beta  occ. eigenvalues --   -4.96602  -0.79293  -0.69352  -0.51510  -0.51474
  Beta  occ. eigenvalues --   -0.43522  -0.34617  -0.22321
  Beta virt. eigenvalues --   -0.14386   0.02063   0.03719   0.03980   0.04478
  Beta virt. eigenvalues --    0.06054   0.06493   0.07204   0.07327   0.10793
  Beta virt. eigenvalues --    0.16036   0.17911   0.17948   0.22403   0.30618

 Mulliken charges and spin densities:
               1          2
     1  C   -0.477394   0.000002
     2  P   -0.044672  -0.000002
     3  H   -0.012200   0.000000
     4  H    0.182917  -0.000000
     5  H   -0.012201   0.000000
     6  H    0.182876  -0.000000
     7  H    0.180674  -0.000000
 Sum of Mulliken charges =  -0.00000  -0.00000

 Dipole moment (field-independent basis, Debye):
    X=             -1.9199    Y=             -0.5845    Z=              0.6225  Tot=              2.1012
 Quadrupole moment (field-independent basis, Debye-Ang):
   XX=            -22.8748   YY=            -22.4361   ZZ=            -22.5247
   XY=             -1.4206   XZ=              1.5103   YZ=              0.7056

 Normal termination of Gaussian 16 at Mon Apr 21 19:13:12 2025.
