 Gaussian 16, Revision A.03,
 Gaussian 16:  ES64L-G16RevA.03 25-Dec-2016

 --------------------------------------------
 #p opt UM062X/6-311+G** nosymm int=superfine
 --------------------------------------------

 -------------------
 Title Card Required
 -------------------
 Symbolic Z-matrix:
 Charge =  0 Multiplicity = 1

 SCF Done:  E(UM062X) =  -95.6114891159     A.U. after   13 cycles
 SCF Done:  E(UM062X) =  -95.6282891649     A.U. after   11 cycles
 SCF Done:  E(UM062X) =  -95.6396739547     A.U. after   12 cycles
 SCF Done:  E(UM062X) =  -95.6399888702     A.U. after   12 cycles
 SCF Done:  E(UM062X) =  -95.6401297268     A.U. after   10 cycles
 SCF Done:  E(UM062X) =  -95.6401674705     A.U. after   12 cycles
 SCF Done:  E(UM062X) =  -95.6401733641     A.U. after   10 cycles
 SCF Done:  E(UM062X) =  -95.6401763626     A.U. after   11 cycles
 SCF Done:  E(UM062X) =  -95.6401782037     A.U. after    9 cycles
 SCF Done:  E(UM062X) =  -95.6401786115     A.U. after    9 cycles
 Optimization completed.
    -- Stationary point found.

                          Input orientation:
 ---------------------------------------------------------------------
 Center     Atomic      Atomic             Coordinates (Angstroms)
 Number     Number       Type             X           Y           Z
 ---------------------------------------------------------------------
      1          6           0       -1.580542    0.000000    0.000000
      2          7           0        1.580542    0.000000    0.000000
      3          1           0        1.552437   -1.015846    0.139284
      4          1           0       -1.610101    1.079878    0.006949
      5          1           0        1.552462    0.367280    0.957315
      6          1           0       -1.609829   -0.522959   -0.944835
      7          1           0       -1.726640   -0.546780    0.920772
 ---------------------------------------------------------------------

 Alpha  occ. eigenvalues --  -14.75063 -10.61679  -0.90233  -0.80352  -0.52515
 Alpha  occ. eigenvalues --   -0.52308  -0.50666  -0.35980  -0.26633
 Alpha virt. eigenvalues --   -0.12006   0.01727   0.04778   0.05225   0.06926
 Alpha virt. eigenvalues --    0.10058   0.13229   0.15942   0.16746   0.17249
 Alpha virt. eigenvalues --    0.19150   0.21019   0.22226   0.29494   0.41246

  Beta  occ. eigenvalues --  -14.75063 -10.61679  -0.90233  -0.80352  -0.52515
  Beta  occ. eigenvalues --   -0.52308  -0.50666  -0.35980  -0.26633
  Beta virt. eigenvalues --   -0.12006   0.01727   0.04778   0.05225   0.06926
  Beta virt. eigenvalues --    0.10058   0.13229   0.15942   0.16746   0.17249
  Beta virt. eigenvalues --    0.19150   0.21019   0.22226   0.29494   0.41246

 Mulliken charges and spin densities:
               1          2
     1  C   -0.429849   0.000000
     2  N   -0.591192  -0.000000
     3  H    0.216806   0.000000
     4  H    0.200658  -0.000000
     5  H    0.216806   0.000000
     6  H    0.200707  -0.000000
     7  H    0.186064  -0.000000
 Sum of Mulliken charges =  -0.00000  -0.00000

 Dipole moment (field-independent basis, Debye):
    X=             -2.9090    Y=             -0.9804    Z=              1.6576  Tot=              3.4887
 Quadrupole moment (field-independent basis, Debye-Ang):
   XX=            -15.3062   YY=            -13.3857   ZZ=            -14.1876
   XY=             -1.6638   XZ=              2.8131   YZ=              0.7295

 Normal termination of Gaussian 16 at Mon Apr 21 18:13:24 2025.
