 Gaussian 16, Revision A.03,
 Gaussian 16:  ES64L-G16RevA.03 25-Dec-2016

 --------------------------------------------
 #p opt UM062X/6-311+G** nosymm int=superfine
 --------------------------------------------

 -------------------
 Title Card Required
 -------------------
 Symbolic Z-matrix:
 Charge =  0 Multiplicity = 1

 SCF Done:  E(UM062X) =  -95.6022758293     A.U. after   14 cycles
 SCF Done:  E(UM062X) =  -95.6187005510     A.U. after   11 cycles
 SCF Done:  E(UM062X) =  -95.6302210558     A.U. after   14 cycles
 SCF Done:  E(UM062X) =  -95.6306112075     A.U. after   11 cycles
 SCF Done:  E(UM062X) =  -95.6308350968     A.U. after   16 cycles
 SCF Done:  E(UM062X) =  -95.6308984651     A.U. after   10 cycles
 SCF Done:  E(UM062X) =  -95.6309073048     A.U. after   11 cycles
 SCF Done:  E(UM062X) =  -95.6309103580     A.U. after    9 cycles
 SCF Done:  E(UM062X) =  -95.6309121366     A.U. after   11 cycles
 SCF Done:  E(UM062X) =  -95.6309134450     A.U. after    9 cycles
 SCF Done:  E(UM062X) =  -95.6309140785     A.U. after   11 cycles
 Optimization completed.
    -- Stationary point found.

                          Input orientation:
 ---------------------------------------------------------------------
 Center     Atomic      Atomic             Coordinates (Angstroms)
 Number     Number       Type             X           Y           Z
 ---------------------------------------------------------------------
      1          6           0       -1.655542    0.000000    0.000000
      2          7           0        1.655542    0.000000    0.000000
      3          1           0        1.618527   -1.015662    0.139707
      4          1           0       -1.671193    1.080161    0.008298
      5          1           0        1.618646    0.367601    0.957063
      6          1           0       -1.670908   -0.523781   -0.944710
      7          1           0       -1.793199   -0.547553    0.921523
 ---------------------------------------------------------------------

 Alpha  occ. eigenvalues --  -14.75000 -10.61848  -0.90207  -0.80567  -0.52741
 Alpha  occ. eigenvalues --   -0.52534  -0.50666  -0.35966  -0.26078
 Alpha virt. eigenvalues --   -0.12763   0.01739   0.04731   0.05150   0.06992
 Alpha virt. eigenvalues --    0.09993   0.13179   0.15928   0.16755   0.17125
 Alpha virt. eigenvalues --    0.18894   0.20848   0.22218   0.28724   0.41199

  Beta  occ. eigenvalues --  -14.75000 -10.61848  -0.90207  -0.80567  -0.52741
  Beta  occ. eigenvalues --   -0.52534  -0.50666  -0.35966  -0.26078
  Beta virt. eigenvalues --   -0.12763   0.01739   0.04731   0.05150   0.06992
  Beta virt. eigenvalues --    0.09993   0.13179   0.15928   0.16755   0.17125
  Beta virt. eigenvalues --    0.18894   0.20848   0.22218   0.28724   0.41199

 Mulliken charges and spin densities:
               1          2
     1  C   -0.430674  -0.000000
     2  N   -0.587349   0.000000
     3  H    0.214333  -0.000000
     4  H    0.200995   0.000000
     5  H    0.214333  -0.000000
     6  H    0.201051   0.000000
     7  H    0.187311   0.000000
 Sum of Mulliken charges =  -0.00000  -0.00000

 Dipole moment (field-independent basis, Debye):
    X=             -3.0463    Y=             -0.9868    Z=              1.6700  Tot=              3.6114
 Quadrupole moment (field-independent basis, Debye-Ang):
   XX=            -15.3931   YY=            -13.4067   ZZ=            -14.2076
   XY=             -1.7258   XZ=              2.9212   YZ=              0.7272

 Normal termination of Gaussian 16 at Mon Apr 21 18:15:14 2025.
