 Gaussian 16, Revision A.03,
 Gaussian 16:  ES64L-G16RevA.03 25-Dec-2016

 --------------------------------------------
 #p opt UM062X/6-311+G** nosymm int=superfine
 --------------------------------------------

 -------------------
 Title Card Required
 -------------------
 Symbolic Z-matrix:
 Charge =  0 Multiplicity = 1

 SCF Done:  E(UM062X) =  -474.353224940     A.U. after   14 cycles
 SCF Done:  E(UM062X) =  -474.353486692     A.U. after   38 cycles
 SCF Done:  E(UM062X) =  -474.353493967     A.U. after   42 cycles
 SCF Done:  E(UM062X) =  -474.295104605     A.U. after   45 cycles
 SCF Done:  E(UM062X) =  -474.354968663     A.U. after   53 cycles
 SCF Done:  E(UM062X) =  -474.360491410     A.U. after   36 cycles
 SCF Done:  E(UM062X) =  -474.363263996     A.U. after   24 cycles
 SCF Done:  E(UM062X) =  -474.368187584     A.U. after   19 cycles
 SCF Done:  E(UM062X) =  -474.376071625     A.U. after   35 cycles
 SCF Done:  E(UM062X) =  -474.385274695     A.U. after   20 cycles
 SCF Done:  E(UM062X) =  -474.388350545     A.U. after   22 cycles
 SCF Done:  E(UM062X) =  -474.388730970     A.U. after   17 cycles
 SCF Done:  E(UM062X) =  -474.388736110     A.U. after   21 cycles
 SCF Done:  E(UM062X) =  -474.388737325     A.U. after   16 cycles
 Optimization completed.
    -- Stationary point found.

                          Input orientation:
 ---------------------------------------------------------------------
 Center     Atomic      Atomic             Coordinates (Angstroms)
 Number     Number       Type             X           Y           Z
 ---------------------------------------------------------------------
      1          8           0       -1.611007    0.000000    0.000000
      2         16           0        1.611007    0.000000    0.000000
      3          1           0       -1.622645   -0.969977    0.004008
      4          1           0        1.511519   -1.039516   -0.850254
 ---------------------------------------------------------------------

 Alpha  occ. eigenvalues --  -89.97974 -19.67402  -8.34088  -6.26293  -6.25939
 Alpha  occ. eigenvalues --   -6.25358  -1.08557  -0.83924  -0.52569  -0.49698
 Alpha  occ. eigenvalues --   -0.39804  -0.35691  -0.34997
 Alpha virt. eigenvalues --   -0.21454   0.01058   0.04099   0.05066   0.05518
 Alpha virt. eigenvalues --    0.06763   0.13337   0.19424   0.19897   0.21720
 Alpha virt. eigenvalues --    0.25648   0.31024   0.33953   0.34714   0.39071

  Beta  occ. eigenvalues --  -89.97974 -19.67402  -8.34088  -6.26293  -6.25939
  Beta  occ. eigenvalues --   -6.25358  -1.08557  -0.83924  -0.52569  -0.49698
  Beta  occ. eigenvalues --   -0.39804  -0.35691  -0.34997
  Beta virt. eigenvalues --   -0.21454   0.01058   0.04099   0.05066   0.05518
  Beta virt. eigenvalues --    0.06763   0.13337   0.19424   0.19897   0.21720
  Beta virt. eigenvalues --    0.25648   0.31024   0.33953   0.34714   0.39071

 Mulliken charges and spin densities:
               1          2
     1  O   -0.395537   0.000000
     2  S    0.066302   0.000000
     3  H    0.239684  -0.000000
     4  H    0.089551  -0.000000
 Sum of Mulliken charges =  -0.00000   0.00000

 Dipole moment (field-independent basis, Debye):
    X=              2.2397    Y=             -2.6101    Z=             -0.7283  Tot=              3.5156
 Quadrupole moment (field-independent basis, Debye-Ang):
   XX=            -17.7917   YY=            -17.7886   ZZ=            -21.0691
   XY=              1.5600   XZ=             -1.2136   YZ=              1.9647

 Normal termination of Gaussian 16 at Mon Apr 21 21:41:43 2025.
