 Gaussian 16, Revision A.03,
 Gaussian 16:  ES64L-G16RevA.03 25-Dec-2016

 ---------------------------------------
 #p UM062X/6-311+G** force int=superfine
 ---------------------------------------

 -------------------
 Title Card Required
 -------------------
 Symbolic Z-matrix:
 Charge =  1 Multiplicity = 2

                         Standard orientation:
 ---------------------------------------------------------------------
 Center     Atomic      Atomic             Coordinates (Angstroms)
 Number     Number       Type             X           Y           Z
 ---------------------------------------------------------------------
      1          6           0        0.000000    0.000000    0.403873
      2          6           0        0.000000    0.000000   -0.403873
      3          1           0        0.000000    0.000000    1.469910
      4          1           0        0.000000    0.000000   -1.469908
 ---------------------------------------------------------------------

 SCF Done:  E(UM062X) =  -76.0834388096     A.U. after   11 cycles

 Unable to determine electronic state:  an orbital has unidentified symmetry.
 Alpha  occ. eigenvalues --  -10.94988 -10.87689  -1.33730  -0.93577  -0.92041
 Alpha  occ. eigenvalues --   -0.92028  -0.87800
 Alpha virt. eigenvalues --   -0.15027  -0.14365  -0.13277  -0.13129  -0.12325
 Alpha virt. eigenvalues --   -0.11929  -0.11789  -0.01286  -0.00429  -0.00210
 Alpha virt. eigenvalues --    0.02726   0.03607   0.17102   0.22597   0.23577

  Beta  occ. eigenvalues --  -10.94398 -10.87289  -1.26634  -0.92064  -0.90943
  Beta  occ. eigenvalues --   -0.84988
  Beta virt. eigenvalues --   -0.58180  -0.15444  -0.12985  -0.12547  -0.12343
  Beta virt. eigenvalues --   -0.12196  -0.11967  -0.11674  -0.00184   0.00423
  Beta virt. eigenvalues --    0.01519   0.03265   0.04165   0.17411   0.21499

 Mulliken charges and spin densities:
               1          2
     1  C    0.266038   0.524649
     2  C    0.266035   0.524649
     3  H    0.233964  -0.024649
     4  H    0.233963  -0.024649
 Sum of Mulliken charges =   1.00000   1.00000

 Dipole moment (field-independent basis, Debye):
    X=              0.0000    Y=              0.0000    Z=              0.0000  Tot=              0.0000
 Quadrupole moment (field-independent basis, Debye-Ang):
   XX=             -8.2419   YY=             -9.5678   ZZ=             -2.9796
   XY=              0.0000   XZ=              0.0000   YZ=              0.0000

 Normal termination of Gaussian 16 at Tue Nov 19 13:24:14 2024.
