 Gaussian 16, Revision A.03,
 Gaussian 16:  ES64L-G16RevA.03 25-Dec-2016

 --------------------------------------------
 #p opt UM062X/6-311+G** nosymm int=superfine
 --------------------------------------------

 -------------------
 Title Card Required
 -------------------
 Symbolic Z-matrix:
 Charge =  0 Multiplicity = 1

 SCF Done:  E(UM062X) =  -95.6399102252     A.U. after   13 cycles
 SCF Done:  E(UM062X) =  -95.6572785352     A.U. after   11 cycles
 SCF Done:  E(UM062X) =  -95.6673575148     A.U. after   12 cycles
 SCF Done:  E(UM062X) =  -95.6675211514     A.U. after   10 cycles
 SCF Done:  E(UM062X) =  -95.6675561362     A.U. after    9 cycles
 SCF Done:  E(UM062X) =  -95.6675708797     A.U. after   10 cycles
 SCF Done:  E(UM062X) =  -95.6675737656     A.U. after   11 cycles
 SCF Done:  E(UM062X) =  -95.6675750639     A.U. after    8 cycles
 SCF Done:  E(UM062X) =  -95.6675751227     A.U. after    8 cycles
 Optimization completed.
    -- Stationary point found.

                          Input orientation:
 ---------------------------------------------------------------------
 Center     Atomic      Atomic             Coordinates (Angstroms)
 Number     Number       Type             X           Y           Z
 ---------------------------------------------------------------------
      1          6           0       -1.405542    0.000000    0.000000
      2          7           0        1.405542    0.000000    0.000000
      3          1           0        1.406414   -1.015968    0.137863
      4          1           0       -1.474513    1.078065    0.004015
      5          1           0        1.406333    0.367648    0.957096
      6          1           0       -1.474483   -0.520155   -0.944290
      7          1           0       -1.579519   -0.544433    0.917551
 ---------------------------------------------------------------------

 Alpha  occ. eigenvalues --  -14.75139 -10.61083  -0.90325  -0.79725  -0.51853
 Alpha  occ. eigenvalues --   -0.51796  -0.50532  -0.36030  -0.28200
 Alpha virt. eigenvalues --   -0.09641   0.01664   0.04896   0.05415   0.06789
 Alpha virt. eigenvalues --    0.10310   0.13363   0.15977   0.16682   0.17578
 Alpha virt. eigenvalues --    0.19763   0.21526   0.22227   0.30983   0.41373

  Beta  occ. eigenvalues --  -14.75139 -10.61083  -0.90325  -0.79725  -0.51853
  Beta  occ. eigenvalues --   -0.51796  -0.50532  -0.36030  -0.28200
  Beta virt. eigenvalues --   -0.09641   0.01664   0.04896   0.05415   0.06789
  Beta virt. eigenvalues --    0.10311   0.13363   0.15977   0.16682   0.17578
  Beta virt. eigenvalues --    0.19763   0.21526   0.22227   0.30983   0.41373

 Mulliken charges and spin densities:
               1          2
     1  C   -0.427672   0.000002
     2  N   -0.596307  -0.000002
     3  H    0.223095   0.000000
     4  H    0.197926  -0.000000
     5  H    0.223091   0.000000
     6  H    0.197953  -0.000000
     7  H    0.181913  -0.000000
 Sum of Mulliken charges =  -0.00000   0.00000

 Dipole moment (field-independent basis, Debye):
    X=             -2.5588    Y=             -0.9584    Z=              1.6188  Tot=              3.1759
 Quadrupole moment (field-independent basis, Debye-Ang):
   XX=            -15.2211   YY=            -13.3372   ZZ=            -14.1477
   XY=             -1.5224   XZ=              2.5711   YZ=              0.7390

 Normal termination of Gaussian 16 at Mon Apr 21 18:13:13 2025.
