 Gaussian 16, Revision A.03,
 Gaussian 16:  ES64L-G16RevA.03 25-Dec-2016

 --------------------------------------------
 #p opt UM062X/6-311+G** nosymm int=superfine
 --------------------------------------------

 -------------------
 Title Card Required
 -------------------
 Symbolic Z-matrix:
 Charge =  0 Multiplicity = 1

 SCF Done:  E(UM062X) =  -83.1208188025     A.U. after   10 cycles
 SCF Done:  E(UM062X) =  -83.1366735284     A.U. after    9 cycles
 SCF Done:  E(UM062X) =  -83.1402847562     A.U. after    9 cycles
 SCF Done:  E(UM062X) =  -83.1403130149     A.U. after    7 cycles
 Optimization completed.
    -- Stationary point found.

                          Input orientation:
 ---------------------------------------------------------------------
 Center     Atomic      Atomic             Coordinates (Angstroms)
 Number     Number       Type             X           Y           Z
 ---------------------------------------------------------------------
      1          5           0       -2.027429    0.000000    0.000000
      2          7           0        2.027429    0.000000    0.000000
      3          1           0        2.391981   -0.945102    0.000002
      4          1           0       -2.038063   -0.593905    1.028640
      5          1           0        2.391881    0.472598   -0.818503
      6          1           0        2.391868    0.472598    0.818509
      7          1           0       -2.038087    1.187776    0.000013
      8          1           0       -2.038080   -0.593885   -1.028651
 ---------------------------------------------------------------------

 Alpha  occ. eigenvalues --  -14.72789  -7.04358  -0.96076  -0.57605  -0.53905
 Alpha  occ. eigenvalues --   -0.53905  -0.40018  -0.40018  -0.34146
 Alpha virt. eigenvalues --   -0.02223   0.02639   0.04762   0.04762   0.04991
 Alpha virt. eigenvalues --    0.08535   0.10662   0.10662   0.17110   0.17998
 Alpha virt. eigenvalues --    0.17998   0.19061   0.19061   0.22285   0.27291

  Beta  occ. eigenvalues --  -14.72789  -7.04358  -0.96076  -0.57605  -0.53905
  Beta  occ. eigenvalues --   -0.53905  -0.40018  -0.40018  -0.34146
  Beta virt. eigenvalues --   -0.02223   0.02639   0.04762   0.04762   0.04991
  Beta virt. eigenvalues --    0.08535   0.10662   0.10662   0.17110   0.17998
  Beta virt. eigenvalues --    0.17998   0.19061   0.19061   0.22285   0.27291

 Mulliken charges and spin densities:
               1          2
     1  B    0.021275   0.000000
     2  N   -0.730124   0.000000
     3  H    0.244691   0.000000
     4  H   -0.008406  -0.000000
     5  H    0.244691   0.000000
     6  H    0.244691  -0.000000
     7  H   -0.008413  -0.000000
     8  H   -0.008406  -0.000000
 Sum of Mulliken charges =  -0.00000  -0.00000

 Dipole moment (field-independent basis, Debye):
    X=              1.9132    Y=              0.0001    Z=              0.0000  Tot=              1.9132
 Quadrupole moment (field-independent basis, Debye-Ang):
   XX=             -9.6861   YY=            -15.6330   ZZ=            -15.6331
   XY=              0.0001   XZ=             -0.0000   YZ=              0.0000

 Normal termination of Gaussian 16 at Mon Apr 21 17:38:24 2025.
