 Gaussian 16, Revision A.03,
 Gaussian 16:  ES64L-G16RevA.03 25-Dec-2016

 --------------------------------------------
 #p opt UM062X/6-311+G** nosymm int=superfine
 --------------------------------------------

 -------------------
 Title Card Required
 -------------------
 Symbolic Z-matrix:
 Charge =  0 Multiplicity = 1

 SCF Done:  E(UM062X) =  -114.166269484     A.U. after   16 cycles
 SCF Done:  E(UM062X) =  -114.166590559     A.U. after   11 cycles
 SCF Done:  E(UM062X) =  -114.166644478     A.U. after   10 cycles
 SCF Done:  E(UM062X) =  -114.166660992     A.U. after   13 cycles
 SCF Done:  E(UM062X) =  -114.166661240     A.U. after   13 cycles
 SCF Done:  E(UM062X) =  -114.166661228     A.U. after   10 cycles
 SCF Done:  E(UM062X) =  -114.166661267     A.U. after   10 cycles
 Optimization completed.
    -- Stationary point found.

                          Input orientation:
 ---------------------------------------------------------------------
 Center     Atomic      Atomic             Coordinates (Angstroms)
 Number     Number       Type             X           Y           Z
 ---------------------------------------------------------------------
      1          6           0       -1.098311    0.000000    0.000000
      2          8           0        1.098311    0.000000    0.000000
      3          1           0       -1.645021   -0.942624   -0.000000
      4          1           0       -1.645023    0.942623    0.000000
 ---------------------------------------------------------------------

 Alpha  occ. eigenvalues --  -19.65309 -10.71888  -0.96827  -0.82365  -0.58129
 Alpha  occ. eigenvalues --   -0.38822  -0.34290  -0.33595
 Alpha virt. eigenvalues --   -0.14412  -0.07684   0.00595   0.04382   0.06406
 Alpha virt. eigenvalues --    0.06948   0.14075   0.16450   0.21180   0.23911
 Alpha virt. eigenvalues --    0.26748   0.33110   0.40640   0.42040   0.53370

  Beta  occ. eigenvalues --  -19.65309 -10.71888  -0.96827  -0.82365  -0.58129
  Beta  occ. eigenvalues --   -0.38822  -0.34290  -0.33595
  Beta virt. eigenvalues --   -0.14412  -0.07684   0.00595   0.04382   0.06406
  Beta virt. eigenvalues --    0.06948   0.14075   0.16450   0.21180   0.23911
  Beta virt. eigenvalues --    0.26748   0.33110   0.40640   0.42040   0.53370

 Mulliken charges and spin densities:
               1          2
     1  C   -0.118679   0.000000
     2  O   -0.287665   0.000000
     3  H    0.203172  -0.000000
     4  H    0.203172   0.000000
 Sum of Mulliken charges =  -0.00000   0.00000

 Dipole moment (field-independent basis, Debye):
    X=             -5.3091    Y=             -0.0000    Z=             -0.0000  Tot=              5.3091
 Quadrupole moment (field-independent basis, Debye-Ang):
   XX=             -8.9586   YY=            -12.0307   ZZ=            -12.8120
   XY=             -0.0000   XZ=             -0.0000   YZ=              0.0000

 Normal termination of Gaussian 16 at Mon Apr 21 18:49:07 2025.
