 Gaussian 16, Revision A.03,
 Gaussian 16:  ES64L-G16RevA.03 25-Dec-2016

 --------------------------------------------
 #p opt UM062X/6-311+G** nosymm int=superfine
 --------------------------------------------

 -------------------
 Title Card Required
 -------------------
 Symbolic Z-matrix:
 Charge =  0 Multiplicity = 1

 SCF Done:  E(UM062X) =  -80.4219747072     A.U. after   24 cycles
 SCF Done:  E(UM062X) =  -80.4223540964     A.U. after   18 cycles
 SCF Done:  E(UM062X) =  -80.4229185339     A.U. after   24 cycles
 SCF Done:  E(UM062X) =  -80.4225475109     A.U. after   23 cycles
 SCF Done:  E(UM062X) =  -80.4234941378     A.U. after   26 cycles
 SCF Done:  E(UM062X) =  -80.4238704898     A.U. after   17 cycles
 SCF Done:  E(UM062X) =  -80.4249343910     A.U. after   17 cycles
 SCF Done:  E(UM062X) =  -80.4250587645     A.U. after   16 cycles
 SCF Done:  E(UM062X) =  -80.4251112759     A.U. after   14 cycles
 SCF Done:  E(UM062X) =  -80.4251900198     A.U. after   16 cycles
 SCF Done:  E(UM062X) =  -80.4251997168     A.U. after   13 cycles
 SCF Done:  E(UM062X) =  -80.4252058053     A.U. after   15 cycles
 SCF Done:  E(UM062X) =  -80.4252104469     A.U. after   15 cycles
 SCF Done:  E(UM062X) =  -80.4252105181     A.U. after   12 cycles
 Optimization completed.
    -- Stationary point found.

                          Input orientation:
 ---------------------------------------------------------------------
 Center     Atomic      Atomic             Coordinates (Angstroms)
 Number     Number       Type             X           Y           Z
 ---------------------------------------------------------------------
      1          5           0       -1.692066   -0.000034   -0.000092
      2          7           0        1.692067    0.000051    0.000099
      3          1           0       -2.868234    0.015912    0.329271
      4          1           0        1.421005   -0.047964   -0.999000
 ---------------------------------------------------------------------

 Alpha  occ. eigenvalues --  -14.80516  -7.15825  -0.86949  -0.57428  -0.43817
 Alpha  occ. eigenvalues --   -0.31256  -0.30710
 Alpha virt. eigenvalues --   -0.10250  -0.06408  -0.06303   0.01426   0.04319
 Alpha virt. eigenvalues --    0.05579   0.05592   0.11171   0.14824   0.16155
 Alpha virt. eigenvalues --    0.16836   0.20711   0.24018   0.35468   0.40131

  Beta  occ. eigenvalues --  -14.80516  -7.15825  -0.86949  -0.57428  -0.43817
  Beta  occ. eigenvalues --   -0.31256  -0.30710
  Beta virt. eigenvalues --   -0.10250  -0.06408  -0.06303   0.01426   0.04319
  Beta virt. eigenvalues --    0.05579   0.05592   0.11171   0.14824   0.16155
  Beta virt. eigenvalues --    0.16836   0.20711   0.24018   0.35468   0.40131

 Mulliken charges and spin densities:
               1          2
     1  B    0.022077   0.000000
     2  N   -0.236505  -0.000000
     3  H    0.017427   0.000000
     4  H    0.197002   0.000000
 Sum of Mulliken charges =  -0.00000   0.00000

 Dipole moment (field-independent basis, Debye):
    X=             -3.1499    Y=             -0.0550    Z=             -1.1465  Tot=              3.3526
 Quadrupole moment (field-independent basis, Debye-Ang):
   XX=            -10.0850   YY=            -15.1296   ZZ=            -12.5506
   XY=             -0.1480   XZ=             -3.0842   YZ=              0.1240

 Normal termination of Gaussian 16 at Mon Apr 21 21:07:54 2025.
