 Gaussian 16, Revision A.03,
 Gaussian 16:  ES64L-G16RevA.03 25-Dec-2016

 --------------------------------------------
 #p opt UM062X/6-311+G** nosymm int=superfine
 --------------------------------------------

 -------------------
 Title Card Required
 -------------------
 Symbolic Z-matrix:
 Charge =  0 Multiplicity = 1

 SCF Done:  E(UM062X) =  -78.1914469736     A.U. after    9 cycles
 SCF Done:  E(UM062X) =  -78.2090674878     A.U. after    9 cycles
 SCF Done:  E(UM062X) =  -78.2259850319     A.U. after    8 cycles
 SCF Done:  E(UM062X) =  -78.2264242360     A.U. after    8 cycles
 SCF Done:  E(UM062X) =  -78.2264262128     A.U. after    7 cycles
 Optimization completed.
    -- Stationary point found.

                          Input orientation:
 ---------------------------------------------------------------------
 Center     Atomic      Atomic             Coordinates (Angstroms)
 Number     Number       Type             X           Y           Z
 ---------------------------------------------------------------------
      1          6           0       -1.585595    0.000000    0.000000
      2          6           0        1.585595    0.000000    0.000000
      3          1           0       -2.299621   -0.855139    0.000000
      4          1           0       -2.299580    0.855174    0.000000
      5          1           0        2.299621    0.855139   -0.000000
      6          1           0        2.299580   -0.855174   -0.000000
 ---------------------------------------------------------------------

 Alpha  occ. eigenvalues --  -10.58697 -10.58697  -0.73932  -0.73692  -0.45447
 Alpha  occ. eigenvalues --   -0.45241  -0.31875  -0.26673
 Alpha virt. eigenvalues --   -0.07243  -0.05907   0.02593   0.03690   0.06710
 Alpha virt. eigenvalues --    0.08544   0.08946   0.10522   0.12501   0.15425
 Alpha virt. eigenvalues --    0.17668   0.20037   0.21314   0.23808   0.44127

  Beta  occ. eigenvalues --  -10.58697 -10.58697  -0.73932  -0.73692  -0.45447
  Beta  occ. eigenvalues --   -0.45241  -0.31875  -0.26673
  Beta virt. eigenvalues --   -0.07243  -0.05907   0.02593   0.03690   0.06710
  Beta virt. eigenvalues --    0.08544   0.08946   0.10522   0.12501   0.15425
  Beta virt. eigenvalues --    0.17668   0.20037   0.21314   0.23808   0.44127

 Mulliken charges and spin densities:
               1          2
     1  C   -0.236743  -0.000000
     2  C   -0.236743  -0.000000
     3  H    0.118372   0.000000
     4  H    0.118371   0.000000
     5  H    0.118372   0.000000
     6  H    0.118371   0.000000
 Sum of Mulliken charges =  -0.00000   0.00000

 Dipole moment (field-independent basis, Debye):
    X=              0.0000    Y=             -0.0000    Z=              0.0000  Tot=              0.0000
 Quadrupole moment (field-independent basis, Debye-Ang):
   XX=             -7.8722   YY=            -14.8585   ZZ=            -13.0208
   XY=             -0.0001   XZ=             -0.0000   YZ=             -0.0000

 Normal termination of Gaussian 16 at Tue Dec  3 11:11:04 2024.
