 Gaussian 16, Revision A.03,
 Gaussian 16:  ES64L-G16RevA.03 25-Dec-2016

 --------------------------------------------
 #p opt UM062X/6-311+G** nosymm int=superfine
 --------------------------------------------

 -------------------
 Title Card Required
 -------------------
 Symbolic Z-matrix:
 Charge =  0 Multiplicity = 1

 SCF Done:  E(UM062X) =  -438.460594576     A.U. after   14 cycles
 SCF Done:  E(UM062X) =  -438.474345284     A.U. after   13 cycles
 SCF Done:  E(UM062X) =  -438.481834586     A.U. after   13 cycles
 SCF Done:  E(UM062X) =  -438.481902647     A.U. after   11 cycles
 SCF Done:  E(UM062X) =  -438.481909654     A.U. after   10 cycles
 SCF Done:  E(UM062X) =  -438.481949054     A.U. after   12 cycles
 SCF Done:  E(UM062X) =  -438.481952542     A.U. after   11 cycles
 SCF Done:  E(UM062X) =  -438.481953165     A.U. after   14 cycles
 SCF Done:  E(UM062X) =  -438.481953340     A.U. after    8 cycles
 Optimization completed.
    -- Stationary point found.

                          Input orientation:
 ---------------------------------------------------------------------
 Center     Atomic      Atomic             Coordinates (Angstroms)
 Number     Number       Type             X           Y           Z
 ---------------------------------------------------------------------
      1          6           0       -2.310220    0.000000    0.000000
      2         16           0        2.310220    0.000000    0.000000
      3          1           0        2.290916   -1.344481   -0.001121
      4          1           0       -2.263675    1.080102    0.002633
      5          1           0       -2.347442   -0.536312   -0.937967
      6          1           0       -2.347685   -0.540873    0.935334
 ---------------------------------------------------------------------

 Alpha  occ. eigenvalues --  -89.87249 -10.65153  -8.23586  -6.15623  -6.15569
 Alpha  occ. eigenvalues --   -6.15015  -0.83730  -0.75223  -0.55791  -0.55732
 Alpha  occ. eigenvalues --   -0.41773  -0.27711  -0.25424
 Alpha virt. eigenvalues --   -0.17744   0.00738   0.03545   0.03784   0.05415
 Alpha virt. eigenvalues --    0.07411   0.08224   0.08400   0.10621   0.13148
 Alpha virt. eigenvalues --    0.15226   0.15266   0.19690   0.35115   0.37723

  Beta  occ. eigenvalues --  -89.87249 -10.65153  -8.23586  -6.15623  -6.15569
  Beta  occ. eigenvalues --   -6.15015  -0.83730  -0.75223  -0.55791  -0.55732
  Beta  occ. eigenvalues --   -0.41773  -0.27711  -0.25424
  Beta virt. eigenvalues --   -0.17744   0.00738   0.03545   0.03784   0.05415
  Beta virt. eigenvalues --    0.07411   0.08224   0.08400   0.10621   0.13148
  Beta virt. eigenvalues --    0.15226   0.15266   0.19690   0.35115   0.37723

 Mulliken charges and spin densities:
               1          2
     1  C   -0.359057   0.000010
     2  S   -0.298851  -0.000010
     3  H    0.050225   0.000000
     4  H    0.204554  -0.000000
     5  H    0.201570  -0.000000
     6  H    0.201559  -0.000000
 Sum of Mulliken charges =  -0.00000   0.00000

 Dipole moment (field-independent basis, Debye):
    X=             -5.8206    Y=             -0.9598    Z=             -0.0008  Tot=              5.8992
 Quadrupole moment (field-independent basis, Debye-Ang):
   XX=            -21.1874   YY=            -19.6175   ZZ=            -23.6677
   XY=             -2.2361   XZ=             -0.0019   YZ=              0.0034

 Normal termination of Gaussian 16 at Mon Apr 21 19:40:40 2025.
