 Gaussian 16, Revision A.03,
 Gaussian 16:  ES64L-G16RevA.03 25-Dec-2016

 ----------------------------------------------------------------------
 #p opt UM062X/6-311+G** nosymm int=superfine SCF=(MaxCycle=200,NoVarAc
 c,noincfock) guess=read
 ----------------------------------------------------------------------

 -------------------
 Title Card Required
 -------------------
 Symbolic Z-matrix:
 Charge =  0 Multiplicity = 1

 SCF Done:  E(UM062X) =  -474.366026442     A.U. after   25 cycles
 SCF Done:  E(UM062X) =  -474.366079109     A.U. after   23 cycles
 SCF Done:  E(UM062X) =  -474.359345051     A.U. after   24 cycles
 SCF Done:  E(UM062X) =  -474.366105837     A.U. after   26 cycles
 SCF Done:  E(UM062X) =  -474.365794686     A.U. after   23 cycles
 SCF Done:  E(UM062X) =  -474.366150215     A.U. after   23 cycles
 SCF Done:  E(UM062X) =  -474.366180310     A.U. after   23 cycles
 SCF Done:  E(UM062X) =  -474.366200749     A.U. after   23 cycles
 SCF Done:  E(UM062X) =  -474.366205457     A.U. after   18 cycles
 SCF Done:  E(UM062X) =  -474.366206448     A.U. after   22 cycles
 SCF Done:  E(UM062X) =  -474.366207903     A.U. after   19 cycles
 SCF Done:  E(UM062X) =  -474.366209941     A.U. after   37 cycles
 SCF Done:  E(UM062X) =  -474.366210097     A.U. after   17 cycles
 SCF Done:  E(UM062X) =  -474.366210112     A.U. after   13 cycles
 Optimization completed.
    -- Stationary point found.

                          Input orientation:
 ---------------------------------------------------------------------
 Center     Atomic      Atomic             Coordinates (Angstroms)
 Number     Number       Type             X           Y           Z
 ---------------------------------------------------------------------
      1          8           0       -1.836006   -0.000138   -0.000113
      2         16           0        1.836006    0.000121    0.000091
      3          1           0       -1.799868   -0.125439   -0.961471
      4          1           0        1.576528   -0.145775    1.313985
 ---------------------------------------------------------------------

 Alpha  occ. eigenvalues --  -89.97819 -19.67166  -8.33998  -6.26205  -6.25844
 Alpha  occ. eigenvalues --   -6.25275  -1.08403  -0.83918  -0.52489  -0.49783
 Alpha  occ. eigenvalues --   -0.39714  -0.35829  -0.33492
 Alpha virt. eigenvalues --   -0.23105   0.01563   0.03868   0.04689   0.05363
 Alpha virt. eigenvalues --    0.06746   0.13114   0.19211   0.19813   0.21102
 Alpha virt. eigenvalues --    0.24819   0.30781   0.33957   0.34612   0.38983

  Beta  occ. eigenvalues --  -89.97819 -19.67166  -8.33998  -6.26205  -6.25844
  Beta  occ. eigenvalues --   -6.25275  -1.08403  -0.83918  -0.52489  -0.49783
  Beta  occ. eigenvalues --   -0.39714  -0.35829  -0.33492
  Beta virt. eigenvalues --   -0.23105   0.01563   0.03868   0.04689   0.05363
  Beta virt. eigenvalues --    0.06746   0.13114   0.19211   0.19813   0.21102
  Beta virt. eigenvalues --    0.24819   0.30781   0.33957   0.34612   0.38983

 Mulliken charges and spin densities:
               1          2
     1  O   -0.388778   0.000000
     2  S    0.034951  -0.000000
     3  H    0.245509  -0.000000
     4  H    0.108318  -0.000000
 Sum of Mulliken charges =  -0.00000   0.00000

 Dipole moment (field-independent basis, Debye):
    X=              2.3723    Y=             -0.3611    Z=             -0.5615  Tot=              2.4644
 Quadrupole moment (field-independent basis, Debye-Ang):
   XX=            -18.6227   YY=            -22.6543   ZZ=            -16.2309
   XY=              0.1939   XZ=              5.3620   YZ=             -0.1323

 Normal termination of Gaussian 16 at Tue Apr 22 05:32:04 2025.
