 Gaussian 16, Revision A.03,
 Gaussian 16:  ES64L-G16RevA.03 25-Dec-2016

 ---------------------------------------------------
 #p UM062X/6-311+G** force int=superfine pop=saveNBO
 ---------------------------------------------------

 -------------------
 Title Card Required
 -------------------
 Symbolic Z-matrix:
 Charge =  0 Multiplicity = 1

                         Standard orientation:
 ---------------------------------------------------------------------
 Center     Atomic      Atomic             Coordinates (Angstroms)
 Number     Number       Type             X           Y           Z
 ---------------------------------------------------------------------
      1          8           0        0.000000    0.000000    0.993562
      2          8           0        0.000000    0.000000   -0.993562
 ---------------------------------------------------------------------

 SCF Done:  E(UM062X) =  -149.987819778     A.U. after    9 cycles

 Unable to determine electronic state:  partially filled degenerate orbitals.
 Alpha  occ. eigenvalues --  -19.84028 -19.84018  -1.14916  -1.07220  -0.51040
 Alpha  occ. eigenvalues --   -0.50227  -0.46869  -0.44854
 Alpha virt. eigenvalues --   -0.26859  -0.19437   0.10361   0.12975   0.15227
 Alpha virt. eigenvalues --    0.15424   0.20613   0.20949   0.21464   0.32581
 Alpha virt. eigenvalues --    0.95429   0.96340   1.02963   1.04976   1.06501

  Beta  occ. eigenvalues --  -19.84028 -19.84018  -1.14916  -1.07220  -0.51040
  Beta  occ. eigenvalues --   -0.50227  -0.46869  -0.44854
  Beta virt. eigenvalues --   -0.26859  -0.19437   0.10361   0.12975   0.15227
  Beta virt. eigenvalues --    0.15424   0.20613   0.20949   0.21464   0.32581
  Beta virt. eigenvalues --    0.95429   0.96340   1.02963   1.04976   1.06501

 Mulliken charges and spin densities:
               1          2
     1  O    0.000000  -0.000000
     2  O    0.000000  -0.000000
 Sum of Mulliken charges =   0.00000  -0.00000

 Dipole moment (field-independent basis, Debye):
    X=              0.0000    Y=             -0.0000    Z=              0.0000  Tot=              0.0000
 Quadrupole moment (field-independent basis, Debye-Ang):
   XX=            -10.1079   YY=            -11.8386   ZZ=             -9.4910
   XY=              0.0000   XZ=             -0.0000   YZ=              0.0000

 Summary of Natural Population Analysis:

                                       Natural Population
                Natural  -----------------------------------------------
    Atom  No    Charge         Core      Valence    Rydberg      Total
 -----------------------------------------------------------------------
      O    1    0.00000      1.00000     2.99895    0.00105     4.00000
      O    2    0.00000      1.00000     2.99895    0.00105     4.00000
 =======================================================================
   * Total *    0.00000      2.00000     5.99791    0.00209     8.00000

 Normal termination of Gaussian 16 at Mon Apr 21 19:53:51 2025.
