 Gaussian 16, Revision A.03,
 Gaussian 16:  ES64L-G16RevA.03 25-Dec-2016

 --------------------------------------------
 #p opt UM062X/6-311+G** nosymm int=superfine
 --------------------------------------------

 -------------------
 Title Card Required
 -------------------
 Symbolic Z-matrix:
 Charge =  1 Multiplicity = 2

 SCF Done:  E(UM062X) =  -79.3639662224     A.U. after   10 cycles
 SCF Done:  E(UM062X) =  -79.3660615107     A.U. after    8 cycles
 SCF Done:  E(UM062X) =  -79.3660911672     A.U. after    8 cycles
 Optimization completed.
    -- Stationary point found.

                          Input orientation:
 ---------------------------------------------------------------------
 Center     Atomic      Atomic             Coordinates (Angstroms)
 Number     Number       Type             X           Y           Z
 ---------------------------------------------------------------------
      1          6           0       -1.098537    0.000000    0.000000
      2          6           0        1.098537    0.000000    0.000000
      3          1           0        1.208858   -0.934090    0.540574
      4          1           0       -1.208222   -0.935210   -0.538772
      5          1           0        1.208533    0.935262    0.538618
      6          1           0        1.208267   -0.001108   -1.079297
      7          1           0       -1.208874    0.934138   -0.540487
      8          1           0       -1.208562    0.000953    1.079267
 ---------------------------------------------------------------------

 Alpha  occ. eigenvalues --  -10.85973 -10.85965  -1.08834  -1.01959  -0.77789
 Alpha  occ. eigenvalues --   -0.77788  -0.74028  -0.74028  -0.60703
 Alpha virt. eigenvalues --   -0.27319  -0.16096  -0.10962  -0.10962  -0.09924
 Alpha virt. eigenvalues --   -0.06931  -0.06317  -0.06316  -0.05004  -0.05002
 Alpha virt. eigenvalues --   -0.02307   0.01674   0.01677   0.04747   0.07318

  Beta  occ. eigenvalues --  -10.85762 -10.85761  -1.05473  -0.99190  -0.76901
  Beta  occ. eigenvalues --   -0.76900  -0.73303  -0.73302
  Beta virt. eigenvalues --   -0.37775  -0.19611  -0.15928  -0.11086  -0.11086
  Beta virt. eigenvalues --   -0.08831  -0.07055  -0.06604  -0.06603  -0.04630
  Beta virt. eigenvalues --   -0.04628  -0.01485   0.02244   0.02246   0.05196

 Mulliken charges and spin densities:
               1          2
     1  C   -0.308742   0.559809
     2  C   -0.308742   0.559809
     3  H    0.269594  -0.019945
     4  H    0.269569  -0.019924
     5  H    0.269582  -0.019930
     6  H    0.269566  -0.019934
     7  H    0.269594  -0.019945
     8  H    0.269578  -0.019939
 Sum of Mulliken charges =   1.00000   1.00000

 Dipole moment (field-independent basis, Debye):
    X=              0.0000    Y=             -0.0000    Z=             -0.0000  Tot=              0.0000
 Quadrupole moment (field-independent basis, Debye-Ang):
   XX=             -5.5551   YY=            -10.8314   ZZ=            -10.8316
   XY=             -0.0006   XZ=              0.0003   YZ=              0.0000

 Normal termination of Gaussian 16 at Wed Nov 13 13:24:59 2024.
