 Gaussian 16, Revision A.03,
 Gaussian 16:  ES64L-G16RevA.03 25-Dec-2016

 --------------------------------------------
 #p opt UM062X/6-311+G** nosymm int=superfine
 --------------------------------------------

 -------------------
 Title Card Required
 -------------------
 Symbolic Z-matrix:
 Charge =  0 Multiplicity = 1

 SCF Done:  E(UM062X) =  -684.986978560     A.U. after   11 cycles
 SCF Done:  E(UM062X) =  -684.988994228     A.U. after   10 cycles
 SCF Done:  E(UM062X) =  -684.989859477     A.U. after   10 cycles
 SCF Done:  E(UM062X) =  -684.989921264     A.U. after    9 cycles
 SCF Done:  E(UM062X) =  -684.989948562     A.U. after   10 cycles
 SCF Done:  E(UM062X) =  -684.989963471     A.U. after    9 cycles
 SCF Done:  E(UM062X) =  -684.989990409     A.U. after   10 cycles
 SCF Done:  E(UM062X) =  -684.990040562     A.U. after   10 cycles
 SCF Done:  E(UM062X) =  -684.990100342     A.U. after   12 cycles
 SCF Done:  E(UM062X) =  -684.990127365     A.U. after    9 cycles
 SCF Done:  E(UM062X) =  -684.990157688     A.U. after    9 cycles
 SCF Done:  E(UM062X) =  -684.990179809     A.U. after   12 cycles
 SCF Done:  E(UM062X) =  -684.990184836     A.U. after    9 cycles
 SCF Done:  E(UM062X) =  -684.990181900     A.U. after    9 cycles
 SCF Done:  E(UM062X) =  -684.990184850     A.U. after    8 cycles
 SCF Done:  E(UM062X) =  -684.990185238     A.U. after    7 cycles
 SCF Done:  E(UM062X) =  -684.990185242     A.U. after    7 cycles
 Optimization completed.
    -- Stationary point found.

                          Input orientation:
 ---------------------------------------------------------------------
 Center     Atomic      Atomic             Coordinates (Angstroms)
 Number     Number       Type             X           Y           Z
 ---------------------------------------------------------------------
      1         15           0       -1.592217    0.000000    0.000000
      2         15           0        1.592217    0.000000    0.000000
      3          1           0        1.562818   -0.946839    1.055390
      4          1           0       -1.564017    1.020360    0.984698
      5          1           0        1.564294   -1.020842   -0.984206
      6          1           0       -1.562518    0.947355   -1.054918
 ---------------------------------------------------------------------

 Alpha  occ. eigenvalues --  -78.04573 -78.04573  -6.86917  -6.86917  -4.98465
 Alpha  occ. eigenvalues --   -4.98464  -4.98365  -4.98365  -4.98176  -4.98176
 Alpha  occ. eigenvalues --   -0.71813  -0.69672  -0.45262  -0.44179  -0.36398
 Alpha  occ. eigenvalues --   -0.35619  -0.28168
 Alpha virt. eigenvalues --   -0.09612   0.01558   0.03114   0.03331   0.04159
 Alpha virt. eigenvalues --    0.04723   0.05420   0.06159   0.06296   0.06761
 Alpha virt. eigenvalues --    0.08816   0.16388   0.18729   0.28222   0.28410

  Beta  occ. eigenvalues --  -78.04573 -78.04573  -6.86917  -6.86917  -4.98465
  Beta  occ. eigenvalues --   -4.98464  -4.98365  -4.98365  -4.98176  -4.98176
  Beta  occ. eigenvalues --   -0.71813  -0.69672  -0.45262  -0.44179  -0.36398
  Beta  occ. eigenvalues --   -0.35619  -0.28168
  Beta virt. eigenvalues --   -0.09612   0.01558   0.03114   0.03331   0.04159
  Beta virt. eigenvalues --    0.04723   0.05420   0.06159   0.06296   0.06761
  Beta virt. eigenvalues --    0.08816   0.16388   0.18729   0.28222   0.28410

 Mulliken charges and spin densities:
               1          2
     1  P   -0.038830   0.000000
     2  P   -0.038885  -0.000000
     3  H    0.019430   0.000000
     4  H    0.019423  -0.000000
     5  H    0.019427   0.000000
     6  H    0.019435  -0.000000
 Sum of Mulliken charges =  -0.00000   0.00000

 Dipole moment (field-independent basis, Debye):
    X=              0.0000    Y=              0.0001    Z=              0.0004  Tot=              0.0004
 Quadrupole moment (field-independent basis, Debye-Ang):
   XX=            -29.6910   YY=            -31.0777   ZZ=            -28.2960
   XY=             -3.6739   XZ=              0.1297   YZ=              0.0997

 Normal termination of Gaussian 16 at Mon Apr 21 20:49:56 2025.
