 Gaussian 16, Revision A.03,
 Gaussian 16:  ES64L-G16RevA.03 25-Dec-2016

 --------------------------------------------
 #p opt UM062X/6-311+G** nosymm int=superfine
 --------------------------------------------

 -------------------
 Title Card Required
 -------------------
 Symbolic Z-matrix:
 Charge =  1 Multiplicity = 2

 SCF Done:  E(UM062X) =  -79.3498183452     A.U. after   10 cycles
 SCF Done:  E(UM062X) =  -79.3498704408     A.U. after    9 cycles
 Optimization completed.
    -- Stationary point found.

                          Input orientation:
 ---------------------------------------------------------------------
 Center     Atomic      Atomic             Coordinates (Angstroms)
 Number     Number       Type             X           Y           Z
 ---------------------------------------------------------------------
      1          6           0       -1.355338    0.000000    0.000000
      2          6           0        1.355338    0.000000    0.000000
      3          1           0        1.422572   -0.936368    0.541926
      4          1           0       -1.421492   -0.937484   -0.540124
      5          1           0        1.422129    0.937569    0.539901
      6          1           0        1.421461   -0.001145   -1.081947
      7          1           0       -1.422604    0.936446   -0.541789
      8          1           0       -1.422062    0.000920    1.081911
 ---------------------------------------------------------------------

 Alpha  occ. eigenvalues --  -10.85457 -10.85453  -1.05369  -1.02623  -0.75643
 Alpha  occ. eigenvalues --   -0.75643  -0.74228  -0.74227  -0.55232
 Alpha virt. eigenvalues --   -0.33416  -0.14782  -0.10474  -0.10474  -0.10053
 Alpha virt. eigenvalues --   -0.06205  -0.06205  -0.05935  -0.03222  -0.03219
 Alpha virt. eigenvalues --   -0.03036   0.01506   0.01509   0.05437   0.07459

  Beta  occ. eigenvalues --  -10.85261 -10.85261  -1.02241  -1.00228  -0.74989
  Beta  occ. eigenvalues --   -0.74989  -0.73701  -0.73701
  Beta virt. eigenvalues --   -0.33418  -0.24149  -0.15512  -0.11115  -0.11115
  Beta virt. eigenvalues --   -0.09707  -0.06530  -0.06530  -0.05922  -0.03237
  Beta virt. eigenvalues --   -0.03234  -0.02261   0.01876   0.01877   0.06036

 Mulliken charges and spin densities:
               1          2
     1  C   -0.278983   0.573634
     2  C   -0.278982   0.573635
     3  H    0.259684  -0.024549
     4  H    0.259638  -0.024539
     5  H    0.259664  -0.024545
     6  H    0.259635  -0.024541
     7  H    0.259685  -0.024549
     8  H    0.259660  -0.024546
 Sum of Mulliken charges =   1.00000   1.00000

 Dipole moment (field-independent basis, Debye):
    X=             -0.0000    Y=             -0.0000    Z=             -0.0001  Tot=              0.0001
 Quadrupole moment (field-independent basis, Debye-Ang):
   XX=             -2.4164   YY=            -10.9751   ZZ=            -10.9753
   XY=             -0.0012   XZ=              0.0008   YZ=             -0.0001

 Normal termination of Gaussian 16 at Wed Nov 13 12:44:08 2024.
