 Gaussian 16, Revision A.03,
 Gaussian 16:  ES64L-G16RevA.03 25-Dec-2016

 ---------------------------------------------------
 #p UM062X/6-311+G** force int=superfine pop=saveNBO
 ---------------------------------------------------

 -------------------
 Title Card Required
 -------------------
 Symbolic Z-matrix:
 Charge =  0 Multiplicity = 1

                         Standard orientation:
 ---------------------------------------------------------------------
 Center     Atomic      Atomic             Coordinates (Angstroms)
 Number     Number       Type             X           Y           Z
 ---------------------------------------------------------------------
      1         16           0        0.000000    0.000000    0.975200
      2         16           0        0.000000    0.000000   -0.975200
 ---------------------------------------------------------------------

 SCF Done:  E(UM062X) =  -796.306254891     A.U. after    9 cycles

 Unable to determine electronic state:  partially filled degenerate orbitals.
 Alpha  occ. eigenvalues --  -89.95927 -89.95927  -8.32183  -8.32167  -6.24276
 Alpha  occ. eigenvalues --   -6.24271  -6.24198  -6.24145  -6.23414  -6.23410
 Alpha  occ. eigenvalues --   -0.91624  -0.69359  -0.44822  -0.41258  -0.40820
 Alpha  occ. eigenvalues --   -0.27576
 Alpha virt. eigenvalues --   -0.14983   0.00376   0.03191   0.04399   0.05256
 Alpha virt. eigenvalues --    0.06688   0.06910   0.07787   0.08388   0.15044
 Alpha virt. eigenvalues --    0.28479   0.33023   0.34085   0.34319   0.36596

  Beta  occ. eigenvalues --  -89.95927 -89.95927  -8.32183  -8.32167  -6.24276
  Beta  occ. eigenvalues --   -6.24271  -6.24198  -6.24145  -6.23414  -6.23410
  Beta  occ. eigenvalues --   -0.91624  -0.69359  -0.44822  -0.41258  -0.40820
  Beta  occ. eigenvalues --   -0.27576
  Beta virt. eigenvalues --   -0.14983   0.00376   0.03191   0.04399   0.05256
  Beta virt. eigenvalues --    0.06688   0.06910   0.07787   0.08388   0.15044
  Beta virt. eigenvalues --    0.28479   0.33023   0.34085   0.34319   0.36596

 Mulliken charges and spin densities:
               1          2
     1  S    0.000000   0.000000
     2  S    0.000000   0.000000
 Sum of Mulliken charges =   0.00000   0.00000

 Dipole moment (field-independent basis, Debye):
    X=              0.0000    Y=              0.0000    Z=             -0.0000  Tot=              0.0000
 Quadrupole moment (field-independent basis, Debye-Ang):
   XX=            -28.9700   YY=            -23.7800   ZZ=            -25.0696
   XY=              0.0000   XZ=              0.0000   YZ=              0.0000

 Summary of Natural Population Analysis:

                                       Natural Population
                Natural  -----------------------------------------------
    Atom  No    Charge         Core      Valence    Rydberg      Total
 -----------------------------------------------------------------------
      S    1    0.00000      4.99982     2.97841    0.02177     8.00000
      S    2    0.00000      4.99982     2.97841    0.02177     8.00000
 =======================================================================
   * Total *    0.00000      9.99964     5.95681    0.04355    16.00000

 Normal termination of Gaussian 16 at Mon Apr 21 20:05:33 2025.
