 Gaussian 16, Revision A.03,
 Gaussian 16:  ES64L-G16RevA.03 25-Dec-2016

 --------------------------------------------
 #p opt UM062X/6-311+G** nosymm int=superfine
 --------------------------------------------

 -------------------
 Title Card Required
 -------------------
 Symbolic Z-matrix:
 Charge =  0 Multiplicity = 1

 SCF Done:  E(UM062X) =  -474.440744686     A.U. after   16 cycles
 SCF Done:  E(UM062X) =  -474.441650212     A.U. after   15 cycles
 SCF Done:  E(UM062X) =  -474.441737404     A.U. after   14 cycles
 SCF Done:  E(UM062X) =  -474.441789827     A.U. after   17 cycles
 SCF Done:  E(UM062X) =  -474.441806953     A.U. after   14 cycles
 SCF Done:  E(UM062X) =  -474.441824839     A.U. after   16 cycles
 SCF Done:  E(UM062X) =  -474.441832130     A.U. after   11 cycles
 SCF Done:  E(UM062X) =  -474.441832979     A.U. after   13 cycles
 SCF Done:  E(UM062X) =  -474.441833219     A.U. after   10 cycles
 Optimization completed.
    -- Stationary point found.

                          Input orientation:
 ---------------------------------------------------------------------
 Center     Atomic      Atomic             Coordinates (Angstroms)
 Number     Number       Type             X           Y           Z
 ---------------------------------------------------------------------
      1          8           0       -1.336006   -0.000488    0.000015
      2         16           0        1.336014    0.000486    0.000075
      3          1           0       -1.358070   -0.019719    0.969086
      4          1           0        1.208357   -1.105764   -0.755109
 ---------------------------------------------------------------------

 Alpha  occ. eigenvalues --  -89.97621 -19.67501  -8.33670  -6.25890  -6.25517
 Alpha  occ. eigenvalues --   -6.24963  -1.08751  -0.83336  -0.52745  -0.49253
 Alpha  occ. eigenvalues --   -0.39911  -0.38198  -0.35105
 Alpha virt. eigenvalues --   -0.17610   0.01607   0.04034   0.04720   0.05626
 Alpha virt. eigenvalues --    0.07379   0.14720   0.19482   0.20011   0.21379
 Alpha virt. eigenvalues --    0.26499   0.31220   0.34044   0.35521   0.39972

  Beta  occ. eigenvalues --  -89.97621 -19.67501  -8.33670  -6.25890  -6.25517
  Beta  occ. eigenvalues --   -6.24963  -1.08751  -0.83336  -0.52745  -0.49253
  Beta  occ. eigenvalues --   -0.39911  -0.38198  -0.35105
  Beta virt. eigenvalues --   -0.17610   0.01607   0.04034   0.04720   0.05626
  Beta virt. eigenvalues --    0.07379   0.14720   0.19482   0.20011   0.21379
  Beta virt. eigenvalues --    0.26499   0.31220   0.34044   0.35521   0.39972

 Mulliken charges and spin densities:
               1          2
     1  O   -0.427479   0.000002
     2  S    0.066592  -0.000002
     3  H    0.249107  -0.000000
     4  H    0.111780   0.000000
 Sum of Mulliken charges =  -0.00000  -0.00000

 Dipole moment (field-independent basis, Debye):
    X=              1.9333    Y=             -0.9868    Z=              1.0382  Tot=              2.4061
 Quadrupole moment (field-independent basis, Debye-Ang):
   XX=            -18.2333   YY=            -19.7876   ZZ=            -18.7705
   XY=             -1.2973   XZ=             -3.5352   YZ=              1.8768

 Normal termination of Gaussian 16 at Mon Apr 21 22:43:06 2025.
