 Gaussian 16, Revision A.03,
 Gaussian 16:  ES64L-G16RevA.03 25-Dec-2016

 --------------------------------------------
 #p opt UM062X/6-311+G** nosymm int=superfine
 --------------------------------------------

 -------------------
 Title Card Required
 -------------------
 Symbolic Z-matrix:
 Charge =  1 Multiplicity = 2

 SCF Done:  E(UM062X) =  -79.1585290482     A.U. after   22 cycles
 SCF Done:  E(UM062X) =  -79.2363470882     A.U. after   16 cycles
 SCF Done:  E(UM062X) =  -79.3089263455     A.U. after   16 cycles
 SCF Done:  E(UM062X) =  -79.3452058295     A.U. after   10 cycles
 SCF Done:  E(UM062X) =  -79.3470127120     A.U. after   10 cycles
 SCF Done:  E(UM062X) =  -79.3471081121     A.U. after    9 cycles
 SCF Done:  E(UM062X) =  -79.3471259631     A.U. after    8 cycles
 SCF Done:  E(UM062X) =  -79.3471282964     A.U. after    8 cycles
 Optimization completed.
    -- Stationary point found.

                          Input orientation:
 ---------------------------------------------------------------------
 Center     Atomic      Atomic             Coordinates (Angstroms)
 Number     Number       Type             X           Y           Z
 ---------------------------------------------------------------------
      1          6           0       -0.642002    0.000000    0.000000
      2          6           0        0.642002    0.000000    0.000000
      3          1           0        1.192183   -0.809714    0.473763
      4          1           0       -1.109410   -1.006017   -0.282208
      5          1           0        1.109442    1.006051    0.281951
      6          1           0        1.109649    0.247736   -1.014818
      7          1           0       -1.192185    0.809757   -0.473687
      8          1           0       -1.109686   -0.247991    1.014718
 ---------------------------------------------------------------------

 Alpha  occ. eigenvalues --  -10.81607 -10.81466  -1.20321  -0.99882  -0.83417
 Alpha  occ. eigenvalues --   -0.79511  -0.78807  -0.69011  -0.63158
 Alpha virt. eigenvalues --   -0.16189  -0.13832  -0.12736  -0.12010  -0.08607
 Alpha virt. eigenvalues --   -0.07217  -0.06810  -0.06684  -0.05074  -0.02287
 Alpha virt. eigenvalues --   -0.01051  -0.00675   0.06131   0.06459   0.12106

  Beta  occ. eigenvalues --  -10.81532 -10.81380  -1.18656  -0.96126  -0.82462
  Beta  occ. eigenvalues --   -0.77644  -0.73259  -0.67547
  Beta virt. eigenvalues --   -0.43157  -0.16233  -0.13864  -0.12413  -0.12048
  Beta virt. eigenvalues --   -0.08630  -0.06932  -0.06681  -0.04922  -0.04892
  Beta virt. eigenvalues --   -0.01886  -0.00914  -0.00508   0.06250   0.06963

 Mulliken charges and spin densities:
               1          2
     1  C   -0.402143   0.159154
     2  C   -0.402153   0.159146
     3  H    0.254568  -0.009880
     4  H    0.323823   0.175525
     5  H    0.323814   0.175466
     6  H    0.323766   0.175262
     7  H    0.254569  -0.009880
     8  H    0.323757   0.175206
 Sum of Mulliken charges =   1.00000   1.00000

 Dipole moment (field-independent basis, Debye):
    X=             -0.0000    Y=             -0.0003    Z=             -0.0004  Tot=              0.0005
 Quadrupole moment (field-independent basis, Debye-Ang):
   XX=             -6.8126   YY=            -10.0090   ZZ=            -10.7888
   XY=              1.8219   XZ=             -1.0632   YZ=             -0.6914

 Normal termination of Gaussian 16 at Sat Nov 16 15:39:41 2024.
