 Gaussian 16, Revision A.03,
 Gaussian 16:  ES64L-G16RevA.03 25-Dec-2016

 --------------------------------------------
 #p opt UM062X/6-311+G** nosymm int=superfine
 --------------------------------------------

 -------------------
 Title Card Required
 -------------------
 Symbolic Z-matrix:
 Charge =  0 Multiplicity = 2

 SCF Done:  E(UM062X) =  -75.7264320499     A.U. after   12 cycles
 SCF Done:  E(UM062X) =  -75.7265268432     A.U. after    8 cycles
 SCF Done:  E(UM062X) =  -75.7265269459     A.U. after    6 cycles
 Optimization completed.
    -- Stationary point found.

                          Input orientation:
 ---------------------------------------------------------------------
 Center     Atomic      Atomic             Coordinates (Angstroms)
 Number     Number       Type             X           Y           Z
 ---------------------------------------------------------------------
      1          8           0       -0.837816    0.004771    0.000000
      2          1           0       -1.142660   -0.918239    0.000000
 ---------------------------------------------------------------------

 Alpha  occ. eigenvalues --  -19.69505  -1.14848  -0.56781  -0.50632  -0.44205
 Alpha virt. eigenvalues --    0.06783   0.16661   0.17066   0.17221   0.20932
 Alpha virt. eigenvalues --    0.50035   1.00021   1.00527   1.04205   1.26669
 Alpha virt. eigenvalues --    1.35628   1.36991   2.01641   2.44802   2.81795

  Beta  occ. eigenvalues --  -19.67891  -1.06513  -0.53494  -0.40514
  Beta virt. eigenvalues --   -0.10728   0.06835   0.16790   0.17673   0.17815
  Beta virt. eigenvalues --    0.20101   0.51081   1.01251   1.05288   1.05477
  Beta virt. eigenvalues --    1.29199   1.37045   1.37479   2.03273   2.44824

 Mulliken charges and spin densities:
               1          2
     1  O   -0.251757   1.025538
     2  H    0.251757  -0.025538
 Sum of Mulliken charges =  -0.00000   1.00000

 Dipole moment (field-independent basis, Debye):
    X=             -0.5820    Y=             -1.7622    Z=              0.0000  Tot=              1.8558
 Quadrupole moment (field-independent basis, Debye-Ang):
   XX=             -4.4241   YY=             -4.4586   ZZ=             -6.8603
   XY=              1.8286   XZ=             -0.0001   YZ=              0.0000

 1\1\GINC-NODE04\FOpt\UM062X\6-311+G(d,p)\H1O1(2)\SZHAO\12-May-2025\0\\
 #p opt UM062X/6-311+G** nosymm int=superfine\\Title Card Required\\0,2
 \O,-0.8378159383,0.0047710533,0.\H,-1.1426595917,-0.9182389533,0.\\Ver
 sion=ES64L-G16RevA.03\HF=-75.7265269\S2=0.752707\S2-1=0.\S2A=0.750005\
 RMSD=7.362e-09\RMSF=1.173e-06\Dipole=-0.228977,-0.6933006,0.\Quadrupol
 e=0.6122966,0.5866314,-1.198928,1.3595016,-0.0000769,0.0000254\PG=C*V
 [C*(H1O1)]\\@

 Normal termination of Gaussian 16 at Mon May 12 14:49:23 2025.
