 Gaussian 16, Revision A.03,
 Gaussian 16:  ES64L-G16RevA.03 25-Dec-2016

 --------------------------------------------
 #p opt UM062X/6-311+G** nosymm int=superfine
 --------------------------------------------

 -------------------
 Title Card Required
 -------------------
 Symbolic Z-matrix:
 Charge =  1 Multiplicity = 2

 SCF Done:  E(UM062X) =  -80.1536392888     A.U. after   19 cycles
 SCF Done:  E(UM062X) =  -80.1545081544     A.U. after   18 cycles
 SCF Done:  E(UM062X) =  -80.1545110993     A.U. after   15 cycles
 SCF Done:  E(UM062X) =  -80.1545112221     A.U. after   18 cycles
 SCF Done:  E(UM062X) =  -80.1539178782     A.U. after   18 cycles
 SCF Done:  E(UM062X) =  -80.1545285934     A.U. after   16 cycles
 SCF Done:  E(UM062X) =  -80.1542981720     A.U. after   16 cycles
 SCF Done:  E(UM062X) =  -80.1545423027     A.U. after   17 cycles
 SCF Done:  E(UM062X) =  -80.1545426666     A.U. after   13 cycles
 SCF Done:  E(UM062X) =  -80.1545430307     A.U. after   13 cycles
 Optimization completed.
    -- Stationary point found.

                          Input orientation:
 ---------------------------------------------------------------------
 Center     Atomic      Atomic             Coordinates (Angstroms)
 Number     Number       Type             X           Y           Z
 ---------------------------------------------------------------------
      1          5           0       -2.002734    0.000000    0.000000
      2          7           0        2.002734    0.000000    0.000000
      3          1           0       -3.206441   -0.060661    0.000003
      4          1           0        3.029417   -0.135859   -0.000001
 ---------------------------------------------------------------------

 Alpha  occ. eigenvalues --  -14.94515  -7.53931  -1.07629  -0.86343  -0.61447
 Alpha  occ. eigenvalues --   -0.54056  -0.53911
 Alpha virt. eigenvalues --   -0.44787  -0.34980  -0.34974  -0.15938  -0.11871
 Alpha virt. eigenvalues --   -0.09973  -0.09926  -0.08978  -0.03853   0.01827
 Alpha virt. eigenvalues --    0.01830   0.03696   0.07746   0.12578   0.12730

  Beta  occ. eigenvalues --  -14.92034  -7.55166  -0.94804  -0.89962  -0.68465
  Beta  occ. eigenvalues --   -0.55726
  Beta virt. eigenvalues --   -0.36138  -0.36137  -0.18891  -0.18854  -0.14692
  Beta virt. eigenvalues --   -0.10661  -0.09840  -0.09836  -0.06952  -0.03184
  Beta virt. eigenvalues --    0.03824   0.03842   0.06378   0.08544   0.15934

 Mulliken charges and spin densities:
               1          2
     1  B    0.760634  -0.846679
     2  N   -0.236476   2.052944
     3  H    0.220839  -0.140204
     4  H    0.255003  -0.066060
 Sum of Mulliken charges =   1.00000   1.00000

 Dipole moment (field-independent basis, Debye):
    X=             -8.1193    Y=             -0.2661    Z=             -0.0000  Tot=              8.1237
 Quadrupole moment (field-independent basis, Debye-Ang):
   XX=             21.6098   YY=            -10.2463   ZZ=            -10.2735
   XY=             -0.5103   XZ=             -0.0000   YZ=              0.0000

 Normal termination of Gaussian 16 at Mon Apr 21 18:01:12 2025.
