 Gaussian 16, Revision A.03,
 Gaussian 16:  ES64L-G16RevA.03 25-Dec-2016

 --------------------------------------------
 #p opt UM062X/6-311+G** nosymm int=superfine
 --------------------------------------------

 -------------------
 Title Card Required
 -------------------
 Symbolic Z-matrix:
 Charge =  0 Multiplicity = 1

 SCF Done:  E(UM062X) =  -114.083221457     A.U. after   18 cycles
 SCF Done:  E(UM062X) =  -114.086208963     A.U. after   10 cycles
 SCF Done:  E(UM062X) =  -114.087128168     A.U. after    9 cycles
 SCF Done:  E(UM062X) =  -114.087131574     A.U. after    9 cycles
 Optimization completed.
    -- Stationary point found.

                          Input orientation:
 ---------------------------------------------------------------------
 Center     Atomic      Atomic             Coordinates (Angstroms)
 Number     Number       Type             X           Y           Z
 ---------------------------------------------------------------------
      1          6           0       -1.998311    0.000000    0.000000
      2          8           0        1.998311    0.000000    0.000000
      3          1           0       -2.689830   -0.865109    0.000001
      4          1           0       -2.689835    0.865105    0.000001
 ---------------------------------------------------------------------

 Alpha  occ. eigenvalues --  -19.75542 -10.61892  -1.05238  -0.76575  -0.48644
 Alpha  occ. eigenvalues --   -0.44140  -0.44137  -0.32336
 Alpha virt. eigenvalues --   -0.18119  -0.09073   0.01880   0.06112   0.08036
 Alpha virt. eigenvalues --    0.08319   0.15881   0.15995   0.18891   0.18906
 Alpha virt. eigenvalues --    0.20710   0.24380   0.43959   0.47927   0.58145

  Beta  occ. eigenvalues --  -19.75542 -10.61892  -1.05238  -0.76575  -0.48644
  Beta  occ. eigenvalues --   -0.44140  -0.44137  -0.32336
  Beta virt. eigenvalues --   -0.18119  -0.09073   0.01880   0.06112   0.08036
  Beta virt. eigenvalues --    0.08319   0.15881   0.15995   0.18891   0.18906
  Beta virt. eigenvalues --    0.20710   0.24380   0.43959   0.47927   0.58145

 Mulliken charges and spin densities:
               1          2
     1  C   -0.265413   0.000000
     2  O   -0.006696  -0.000000
     3  H    0.136055  -0.000000
     4  H    0.136055   0.000000
 Sum of Mulliken charges =  -0.00000  -0.00000

 Dipole moment (field-independent basis, Debye):
    X=             -2.4060    Y=             -0.0000    Z=              0.0000  Tot=              2.4060
 Quadrupole moment (field-independent basis, Debye-Ang):
   XX=             -4.4625   YY=            -13.1834   ZZ=            -12.4810
   XY=              0.0000   XZ=             -0.0000   YZ=             -0.0000

 Normal termination of Gaussian 16 at Mon Apr 21 19:02:00 2025.
