 Gaussian 16, Revision A.03,
 Gaussian 16:  ES64L-G16RevA.03 25-Dec-2016

 ---------------------------------------------------
 #p UM062X/6-311+G** force int=superfine pop=saveNBO
 ---------------------------------------------------

 -------------------
 Title Card Required
 -------------------
 Symbolic Z-matrix:
 Charge =  0 Multiplicity = 1

                         Standard orientation:
 ---------------------------------------------------------------------
 Center     Atomic      Atomic             Coordinates (Angstroms)
 Number     Number       Type             X           Y           Z
 ---------------------------------------------------------------------
      1         15           0       -1.114311    0.080509   -0.086362
      2         15           0        1.114312   -0.080517   -0.086355
      3          1           0        1.332204    1.313897    0.002022
      4          1           0       -1.332219   -1.313894    0.002132
      5          1           0        1.338969   -0.302145    1.293316
      6          1           0       -1.338967    0.302261    1.293290
 ---------------------------------------------------------------------

 SCF Done:  E(UM062X) =  -685.057246111     A.U. after   10 cycles

 The electronic state is 1-A.
 Alpha  occ. eigenvalues --  -78.02630 -78.02630  -6.85323  -6.85317  -4.96898
 Alpha  occ. eigenvalues --   -4.96873  -4.96847  -4.96847  -4.96625  -4.96620
 Alpha  occ. eigenvalues --   -0.77064  -0.66770  -0.46419  -0.46143  -0.40734
 Alpha  occ. eigenvalues --   -0.32946  -0.31080
 Alpha virt. eigenvalues --    0.00268   0.00761   0.03470   0.03757   0.03998
 Alpha virt. eigenvalues --    0.04881   0.05328   0.06602   0.06606   0.08340
 Alpha virt. eigenvalues --    0.10657   0.14783   0.19176   0.27430   0.29454

  Beta  occ. eigenvalues --  -78.02630 -78.02630  -6.85323  -6.85317  -4.96898
  Beta  occ. eigenvalues --   -4.96873  -4.96847  -4.96847  -4.96625  -4.96620
  Beta  occ. eigenvalues --   -0.77064  -0.66770  -0.46419  -0.46143  -0.40734
  Beta  occ. eigenvalues --   -0.32946  -0.31080
  Beta virt. eigenvalues --    0.00268   0.00761   0.03470   0.03757   0.03998
  Beta virt. eigenvalues --    0.04881   0.05328   0.06602   0.06606   0.08340
  Beta virt. eigenvalues --    0.10657   0.14783   0.19176   0.27430   0.29454

 Mulliken charges and spin densities:
               1          2
     1  P   -0.051023   0.000000
     2  P   -0.051022  -0.000000
     3  H    0.025202   0.000000
     4  H    0.025203  -0.000000
     5  H    0.025820  -0.000000
     6  H    0.025820  -0.000000
 Sum of Mulliken charges =  -0.00000  -0.00000

 Dipole moment (field-independent basis, Debye):
    X=              0.0000    Y=              0.0001    Z=              1.3729  Tot=              1.3729
 Quadrupole moment (field-independent basis, Debye-Ang):
   XX=            -30.8763   YY=            -28.9328   ZZ=            -29.8739
   XY=              2.2904   XZ=             -0.0001   YZ=             -0.0000

 Summary of Natural Population Analysis:

                                       Natural Population
                Natural  -----------------------------------------------
    Atom  No    Charge         Core      Valence    Rydberg      Total
 -----------------------------------------------------------------------
      P    1    0.00460      4.99958     2.47829    0.01753     7.49540
      P    2    0.00460      4.99958     2.47829    0.01753     7.49540
      H    3   -0.00170      0.00000     0.49937    0.00234     0.50170
      H    4   -0.00170      0.00000     0.49937    0.00234     0.50170
      H    5   -0.00289      0.00000     0.50067    0.00222     0.50289
      H    6   -0.00289      0.00000     0.50067    0.00222     0.50289
 =======================================================================
   * Total *    0.00000      9.99916     6.95666    0.04418    17.00000

 Normal termination of Gaussian 16 at Wed Apr 16 06:13:30 2025.
