 Gaussian 16, Revision A.03,
 Gaussian 16:  ES64L-G16RevA.03 25-Dec-2016

 --------------------------------------------
 #p opt UM062X/6-311+G** nosymm int=superfine
 --------------------------------------------

 -------------------
 Title Card Required
 -------------------
 Symbolic Z-matrix:
 Charge =  0 Multiplicity = 3

 SCF Done:  E(UM062X) =  -50.4754144798     A.U. after   10 cycles
 SCF Done:  E(UM062X) =  -50.4763351691     A.U. after   10 cycles
 SCF Done:  E(UM062X) =  -50.4763424536     A.U. after   10 cycles
 Optimization completed.
    -- Stationary point found.

                          Input orientation:
 ---------------------------------------------------------------------
 Center     Atomic      Atomic             Coordinates (Angstroms)
 Number     Number       Type             X           Y           Z
 ---------------------------------------------------------------------
      1          5           0       -2.003410    0.000000    0.000000
      2          5           0        2.003410    0.000000    0.000000
      3          1           0       -3.208990   -0.000082   -0.000000
      4          1           0        3.208990    0.000082    0.000000
 ---------------------------------------------------------------------

 Alpha  occ. eigenvalues --   -7.14453  -7.14452  -0.56919  -0.56758  -0.33389
 Alpha  occ. eigenvalues --   -0.31001  -0.17729
 Alpha virt. eigenvalues --   -0.10272  -0.06408  -0.05536   0.02699   0.02880
 Alpha virt. eigenvalues --    0.05668   0.06958   0.07101   0.07920   0.08103
 Alpha virt. eigenvalues --    0.11425   0.16469   0.21997   0.33138   0.39544

  Beta  occ. eigenvalues --   -7.13550  -7.13549  -0.53620  -0.53490  -0.23619
  Beta virt. eigenvalues --   -0.11821  -0.04525  -0.04010  -0.03241  -0.02698
  Beta virt. eigenvalues --    0.01886   0.02419   0.07041   0.07322   0.07967
  Beta virt. eigenvalues --    0.08038   0.08866   0.09594   0.16738   0.23351

 Mulliken charges and spin densities:
               1          2
     1  B   -0.061209   0.928002
     2  B   -0.061209   0.928002
     3  H    0.061209   0.071998
     4  H    0.061209   0.071998
 Sum of Mulliken charges =  -0.00000   2.00000

 Dipole moment (field-independent basis, Debye):
    X=              0.0000    Y=              0.0000    Z=             -0.0000  Tot=              0.0000
 Quadrupole moment (field-independent basis, Debye-Ang):
   XX=             -7.5009   YY=            -13.6826   ZZ=            -17.6821
   XY=              0.0000   XZ=              0.0000   YZ=              0.0002

 1\1\GINC-NODE06\FOpt\UM062X\6-311+G(d,p)\B2H2(3)\SZHAO\21-Apr-2025\0\\
 #p opt UM062X/6-311+G** nosymm int=superfine\\Title Card Required\\0,3
 \B,-2.00341047,0.,0.\B,2.00341047,0.,0.\H,-3.2089900387,-0.0000822547,
 -0.0000000032\H,3.2089900296,0.0000822555,0.0000000032\\Version=ES64L-
 G16RevA.03\HF=-50.4763425\S2=2.022212\S2-1=0.\S2A=2.000018\RMSD=2.322e
 -09\RMSF=4.396e-07\Dipole=0.,0.,0.\Quadrupole=4.0551498,-0.5408348,-3.
 514315,0.0000167,0.,0.0001181\PG=C*V [C*(H1B1B1H1)]\\@

 Normal termination of Gaussian 16 at Mon Apr 21 17:29:42 2025.
