 Gaussian 16, Revision A.03,
 Gaussian 16:  ES64L-G16RevA.03 25-Dec-2016

 --------------------------------------------
 #p opt UM062X/6-311+G** nosymm int=superfine
 --------------------------------------------

 -------------------
 Title Card Required
 -------------------
 Symbolic Z-matrix:
 Charge =  1 Multiplicity = 2

 SCF Done:  E(UM062X) =  -379.313458537     A.U. after   82 cycles
 SCF Done:  E(UM062X) =  -379.313940087     A.U. after   18 cycles
 Optimization completed.
    -- Stationary point found.

                          Input orientation:
 ---------------------------------------------------------------------
 Center     Atomic      Atomic             Coordinates (Angstroms)
 Number     Number       Type             X           Y           Z
 ---------------------------------------------------------------------
      1          6           0       -1.544427    0.000000    0.000000
      2         15           0        1.544427    0.000000    0.000000
      3          1           0       -2.656783    0.000003    0.000000
 ---------------------------------------------------------------------

 Alpha  occ. eigenvalues --  -78.36993 -10.95578  -7.18455  -5.30370  -5.30159
 Alpha  occ. eigenvalues --   -5.28733  -0.99785  -0.87697  -0.66065  -0.50695
 Alpha  occ. eigenvalues --   -0.48686
 Alpha virt. eigenvalues --   -0.40255  -0.37875  -0.35659  -0.12776  -0.10267
 Alpha virt. eigenvalues --   -0.08467  -0.08179  -0.06947  -0.05314  -0.05185
 Alpha virt. eigenvalues --   -0.01128   0.01852   0.14935   0.15196   0.15826

  Beta  occ. eigenvalues --  -78.36801 -10.95153  -7.18457  -5.30138  -5.29334
  Beta  occ. eigenvalues --   -5.29232  -0.96372  -0.85820  -0.64299  -0.50638
  Beta virt. eigenvalues --   -0.34816  -0.34392  -0.31841  -0.30839  -0.14048
  Beta virt. eigenvalues --   -0.10789  -0.08488  -0.08413  -0.07494  -0.05051
  Beta virt. eigenvalues --   -0.04744  -0.02932   0.03840   0.12591   0.14668

 Mulliken charges and spin densities:
               1          2
     1  C    0.093606   0.702101
     2  P    0.638216   0.320085
     3  H    0.268177  -0.022186
 Sum of Mulliken charges =   1.00000   1.00000

 Dipole moment (field-independent basis, Debye):
    X=             -0.3551    Y=              0.0000    Z=              0.0000  Tot=              0.3551
 Quadrupole moment (field-independent basis, Debye-Ang):
   XX=              5.3709   YY=            -17.7336   ZZ=            -18.4797
   XY=             -0.0000   XZ=              0.0000   YZ=             -1.7015

 Normal termination of Gaussian 16 at Mon Apr 21 19:26:14 2025.
