 Gaussian 16, Revision A.03,
 Gaussian 16:  ES64L-G16RevA.03 25-Dec-2016

 ---------------------------------------------------
 #p UM062X/6-311+G** force int=superfine pop=saveNBO
 ---------------------------------------------------

 -------------------
 Title Card Required
 -------------------
 Symbolic Z-matrix:
 Charge =  0 Multiplicity = 1

                         Standard orientation:
 ---------------------------------------------------------------------
 Center     Atomic      Atomic             Coordinates (Angstroms)
 Number     Number       Type             X           Y           Z
 ---------------------------------------------------------------------
      1         15           0        0.000000    0.000000    1.113495
      2         15           0        0.000000    0.000000   -1.113495
 ---------------------------------------------------------------------

 SCF Done:  E(UM062X) =  -682.605567197     A.U. after    9 cycles

 The electronic state is 1-SGG.
 Alpha  occ. eigenvalues --  -78.08470 -78.08470  -6.90324  -6.90315  -5.01733
 Alpha  occ. eigenvalues --   -5.01733  -5.01730  -5.01730  -5.01558  -5.01528
 Alpha  occ. eigenvalues --   -0.71790  -0.56351  -0.34326  -0.30639  -0.30639
 Alpha virt. eigenvalues --   -0.10232  -0.10232   0.00552   0.02588   0.04303
 Alpha virt. eigenvalues --    0.04303   0.05896   0.06176   0.06960   0.06960
 Alpha virt. eigenvalues --    0.12742   0.27259   0.31327   0.31327   0.31842

  Beta  occ. eigenvalues --  -78.08470 -78.08470  -6.90324  -6.90315  -5.01733
  Beta  occ. eigenvalues --   -5.01733  -5.01730  -5.01730  -5.01558  -5.01528
  Beta  occ. eigenvalues --   -0.71790  -0.56351  -0.34326  -0.30639  -0.30639
  Beta virt. eigenvalues --   -0.10232  -0.10232   0.00552   0.02588   0.04303
  Beta virt. eigenvalues --    0.04303   0.05896   0.06176   0.06960   0.06960
  Beta virt. eigenvalues --    0.12742   0.27259   0.31327   0.31327   0.31842

 Mulliken charges and spin densities:
               1          2
     1  P    0.000000  -0.000000
     2  P    0.000000  -0.000000
 Sum of Mulliken charges =   0.00000  -0.00000

 Dipole moment (field-independent basis, Debye):
    X=              0.0000    Y=              0.0000    Z=             -0.0000  Tot=              0.0000
 Quadrupole moment (field-independent basis, Debye-Ang):
   XX=            -27.5878   YY=            -27.5878   ZZ=            -26.0268
   XY=              0.0000   XZ=             -0.0000   YZ=              0.0000

 Summary of Natural Population Analysis:

                                       Natural Population
                Natural  -----------------------------------------------
    Atom  No    Charge         Core      Valence    Rydberg      Total
 -----------------------------------------------------------------------
      P    1    0.00000      4.99984     2.48862    0.01154     7.50000
      P    2   -0.00000      4.99984     2.48862    0.01154     7.50000
 =======================================================================
   * Total *   -0.00000      9.99969     4.97724    0.02307    15.00000

 Normal termination of Gaussian 16 at Mon Apr 21 21:20:00 2025.
