 Gaussian 16, Revision A.03,
 Gaussian 16:  ES64L-G16RevA.03 25-Dec-2016

 ---------------------------------------------------
 #p UM062X/6-311+G** force int=superfine pop=saveNBO
 ---------------------------------------------------

 -------------------
 Title Card Required
 -------------------
 Symbolic Z-matrix:
 Charge =  0 Multiplicity = 1

                         Standard orientation:
 ---------------------------------------------------------------------
 Center     Atomic      Atomic             Coordinates (Angstroms)
 Number     Number       Type             X           Y           Z
 ---------------------------------------------------------------------
      1          8           0        0.000000    0.000000   -2.093424
      2         16           0        0.000000    0.000000    1.046712
 ---------------------------------------------------------------------

 SCF Done:  E(UM062X) =  -472.958368991     A.U. after   19 cycles

 Unable to determine electronic state:  an orbital has unidentified symmetry.
 Alpha  occ. eigenvalues --  -90.03451 -19.75581  -8.39094  -6.31127  -6.31117
 Alpha  occ. eigenvalues --   -6.30210  -1.04179  -0.81339  -0.42721  -0.37822
 Alpha  occ. eigenvalues --   -0.37296  -0.35224
 Alpha virt. eigenvalues --   -0.25559  -0.23238   0.02593   0.04704   0.05192
 Alpha virt. eigenvalues --    0.05652   0.17347   0.19602   0.19793   0.24506
 Alpha virt. eigenvalues --    0.32279   0.33228   0.34028   0.56670   0.73596

  Beta  occ. eigenvalues --  -90.03451 -19.75581  -8.39094  -6.31127  -6.31117
  Beta  occ. eigenvalues --   -6.30210  -1.04179  -0.81339  -0.42721  -0.37822
  Beta  occ. eigenvalues --   -0.37296  -0.35224
  Beta virt. eigenvalues --   -0.25559  -0.23238   0.02593   0.04704   0.05192
  Beta virt. eigenvalues --    0.05652   0.17347   0.19602   0.19793   0.24506
  Beta virt. eigenvalues --    0.32279   0.33228   0.34028   0.56670   0.73596

 Mulliken charges and spin densities:
               1          2
     1  O   -0.189656   0.000000
     2  S    0.189656  -0.000000
 Sum of Mulliken charges =  -0.00000   0.00000

 Dipole moment (field-independent basis, Debye):
    X=              0.0000    Y=              0.0000    Z=              2.8770  Tot=              2.8770
 Quadrupole moment (field-independent basis, Debye-Ang):
   XX=            -20.8828   YY=            -17.4002   ZZ=            -18.8537
   XY=              0.0000   XZ=              0.0000   YZ=              0.0000

 Summary of Natural Population Analysis:

                                       Natural Population
                Natural  -----------------------------------------------
    Atom  No    Charge         Core      Valence    Rydberg      Total
 -----------------------------------------------------------------------
      O    1   -0.11336      1.00000     3.11245    0.00091     4.11336
      S    2    0.11336      5.00000     2.88584    0.00081     7.88664
 =======================================================================
   * Total *   -0.00000      6.00000     5.99829    0.00172    12.00000

 Normal termination of Gaussian 16 at Mon Apr 21 20:01:05 2025.
