 Gaussian 16, Revision A.03,
 Gaussian 16:  ES64L-G16RevA.03 25-Dec-2016

 ---------------------------------------------------------
 #p opt UM062X/6-311+G** nosymm int=superfine SCF=NoVarAcc
 ---------------------------------------------------------

 -------------------
 Title Card Required
 -------------------
 Symbolic Z-matrix:
 Charge =  1 Multiplicity = 2

 SCF Done:  E(UM062X) =  -77.9033461749     A.U. after   10 cycles
 SCF Done:  E(UM062X) =  -77.9072810963     A.U. after    9 cycles
 SCF Done:  E(UM062X) =  -77.9098180368     A.U. after    9 cycles
 SCF Done:  E(UM062X) =  -77.9098213723     A.U. after    8 cycles
 Optimization completed.
    -- Stationary point found.

                          Input orientation:
 ---------------------------------------------------------------------
 Center     Atomic      Atomic             Coordinates (Angstroms)
 Number     Number       Type             X           Y           Z
 ---------------------------------------------------------------------
      1          6           0       -1.931027    0.000000    0.000000
      2          6           0        1.931027    0.000000    0.000000
      3          1           0       -2.489010   -0.942785    0.000000
      4          1           0       -2.488954    0.942818    0.000000
      5          1           0        2.489010    0.942785   -0.000000
      6          1           0        2.488954   -0.942818   -0.000000
 ---------------------------------------------------------------------

 Alpha  occ. eigenvalues --  -10.88617 -10.88616  -0.99909  -0.99831  -0.74593
 Alpha  occ. eigenvalues --   -0.74551  -0.58305  -0.56713
 Alpha virt. eigenvalues --   -0.31854  -0.31463  -0.12734  -0.10858  -0.09126
 Alpha virt. eigenvalues --   -0.07181  -0.06452  -0.05542  -0.04245  -0.01575
 Alpha virt. eigenvalues --   -0.00436   0.00252   0.02204   0.05715   0.27328

  Beta  occ. eigenvalues --  -10.87812 -10.87811  -0.97719  -0.97513  -0.73560
  Beta  occ. eigenvalues --   -0.73506  -0.47166
  Beta virt. eigenvalues --   -0.35949  -0.30015  -0.29507  -0.12513  -0.10960
  Beta virt. eigenvalues --   -0.08952  -0.06971  -0.06527  -0.04488  -0.03818
  Beta virt. eigenvalues --   -0.01318   0.00259   0.00644   0.02300   0.06465

 Mulliken charges and spin densities:
               1          2
     1  C    0.022074   0.486326
     2  C    0.022074   0.486325
     3  H    0.238963   0.006837
     4  H    0.238963   0.006837
     5  H    0.238963   0.006837
     6  H    0.238963   0.006837
 Sum of Mulliken charges =   1.00000   1.00000

 Dipole moment (field-independent basis, Debye):
    X=             -0.0000    Y=              0.0000    Z=              0.0000  Tot=              0.0000
 Quadrupole moment (field-independent basis, Debye-Ang):
   XX=             18.4075   YY=             -9.4307   ZZ=            -10.7409
   XY=             -0.0000   XZ=             -0.0000   YZ=             -0.0000

 Normal termination of Gaussian 16 at Tue Dec  3 13:32:31 2024.
