 Gaussian 16, Revision A.03,
 Gaussian 16:  ES64L-G16RevA.03 25-Dec-2016

 ---------------------------------------------------
 #p UM062X/6-311+G** force int=superfine pop=saveNBO
 ---------------------------------------------------

 -------------------
 Title Card Required
 -------------------
 Symbolic Z-matrix:
 Charge =  0 Multiplicity = 1

                         Standard orientation:
 ---------------------------------------------------------------------
 Center     Atomic      Atomic             Coordinates (Angstroms)
 Number     Number       Type             X           Y           Z
 ---------------------------------------------------------------------
      1          6           0        0.000000    0.000000   -1.869808
      2          8           0        0.000000    0.000000    1.402356
 ---------------------------------------------------------------------

 SCF Done:  E(UM062X) =  -112.756954664     A.U. after   28 cycles

 The electronic state is 1-SG.
 Alpha  occ. eigenvalues --  -19.71686 -10.75210  -1.02027  -0.67393  -0.40787
 Alpha  occ. eigenvalues --   -0.40787  -0.31320
 Alpha virt. eigenvalues --   -0.16015  -0.13628  -0.13628   0.03812   0.06853
 Alpha virt. eigenvalues --    0.06853   0.07750   0.17420   0.20240   0.20240
 Alpha virt. eigenvalues --    0.26446   0.54618   0.54618   0.56063   0.64236

  Beta  occ. eigenvalues --  -19.71686 -10.75210  -1.02027  -0.67393  -0.40787
  Beta  occ. eigenvalues --   -0.40787  -0.31320
  Beta virt. eigenvalues --   -0.16015  -0.13628  -0.13628   0.03812   0.06853
  Beta virt. eigenvalues --    0.06853   0.07750   0.17420   0.20240   0.20240
  Beta virt. eigenvalues --    0.26446   0.54618   0.54618   0.56063   0.64236

 Mulliken charges and spin densities:
               1          2
     1  C    0.141382  -0.000000
     2  O   -0.141382   0.000000
 Sum of Mulliken charges =  -0.00000  -0.00000

 Dipole moment (field-independent basis, Debye):
    X=              0.0000    Y=              0.0000    Z=             -2.2845  Tot=              2.2845
 Quadrupole moment (field-independent basis, Debye-Ang):
   XX=            -11.1592   YY=            -11.1592   ZZ=            -11.4866
   XY=              0.0000   XZ=              0.0000   YZ=              0.0000

 Summary of Natural Population Analysis:

                                       Natural Population
                Natural  -----------------------------------------------
    Atom  No    Charge         Core      Valence    Rydberg      Total
 -----------------------------------------------------------------------
      C    1    0.08243      1.00000     1.91726    0.00032     2.91757
      O    2   -0.08243      1.00000     3.08208    0.00035     4.08243
 =======================================================================
   * Total *   -0.00000      2.00000     4.99934    0.00066     7.00000

 Normal termination of Gaussian 16 at Mon Apr 21 19:31:54 2025.
