 Gaussian 16, Revision A.03,
 Gaussian 16:  ES64L-G16RevA.03 25-Dec-2016

 --------------------------------------------
 #p opt UM062X/6-311+G** nosymm int=superfine
 --------------------------------------------

 -------------------
 Title Card Required
 -------------------
 Symbolic Z-matrix:
 Charge =  1 Multiplicity = 2

 SCF Done:  E(UM062X) =  -76.6465538072     A.U. after   11 cycles
 SCF Done:  E(UM062X) =  -76.7321402801     A.U. after   11 cycles
 SCF Done:  E(UM062X) =  -76.8356417330     A.U. after   10 cycles
 SCF Done:  E(UM062X) =  -76.8770065455     A.U. after   11 cycles
 SCF Done:  E(UM062X) =  -76.8920476633     A.U. after    9 cycles
 SCF Done:  E(UM062X) =  -76.8992037642     A.U. after    9 cycles
 SCF Done:  E(UM062X) =  -76.8993846137     A.U. after    8 cycles
 SCF Done:  E(UM062X) =  -76.8993854717     A.U. after    7 cycles
 Optimization completed.
    -- Stationary point found.

                          Input orientation:
 ---------------------------------------------------------------------
 Center     Atomic      Atomic             Coordinates (Angstroms)
 Number     Number       Type             X           Y           Z
 ---------------------------------------------------------------------
      1          6           0       -0.374653    0.000000    0.000000
      2          6           0        0.374653    0.000000    0.000000
      3          1           0       -1.242906   -0.739997   -0.000000
      4          1           0       -1.240959    0.743350    0.000000
      5          1           0        1.242906    0.739997   -0.000000
      6          1           0        1.240959   -0.743350    0.000000
 ---------------------------------------------------------------------

 Alpha  occ. eigenvalues --  -10.89472 -10.77512  -1.22716  -0.95914  -0.92827
 Alpha  occ. eigenvalues --   -0.87936  -0.82875  -0.57959
 Alpha virt. eigenvalues --   -0.20829  -0.15793  -0.13993  -0.11838  -0.11726
 Alpha virt. eigenvalues --   -0.09248  -0.07837  -0.06148  -0.01507   0.00076
 Alpha virt. eigenvalues --    0.01395   0.02988   0.17342   0.17484   0.20785

  Beta  occ. eigenvalues --  -10.89581 -10.77578  -1.21959  -0.91320  -0.89865
  Beta  occ. eigenvalues --   -0.85349  -0.82800
  Beta virt. eigenvalues --   -0.37718  -0.18411  -0.15597  -0.13583  -0.11639
  Beta virt. eigenvalues --   -0.11486  -0.09091  -0.04475  -0.02615  -0.00967
  Beta virt. eigenvalues --    0.00984   0.02691   0.04068   0.16374   0.16964

 Mulliken charges and spin densities:
               1          2
     1  C   -0.130494   0.075309
     2  C   -0.130494   0.075309
     3  H    0.315158   0.211642
     4  H    0.315336   0.213050
     5  H    0.315158   0.211642
     6  H    0.315336   0.213050
 Sum of Mulliken charges =   1.00000   1.00000

 Dipole moment (field-independent basis, Debye):
    X=             -0.0000    Y=              0.0000    Z=             -0.0000  Tot=              0.0000
 Quadrupole moment (field-independent basis, Debye-Ang):
   XX=             -2.5150   YY=             -7.8103   ZZ=            -11.2263
   XY=             -0.0093   XZ=              0.0000   YZ=             -0.0000

 Normal termination of Gaussian 16 at Tue Nov 19 10:29:35 2024.
