 Gaussian 16, Revision A.03,
 Gaussian 16:  ES64L-G16RevA.03 25-Dec-2016

 --------------------------------------------
 #p opt UM062X/6-311+G** nosymm int=superfine
 --------------------------------------------

 -------------------
 Title Card Required
 -------------------
 Symbolic Z-matrix:
 Charge =  0 Multiplicity = 1

 SCF Done:  E(UM062X) =  -582.372724165     A.U. after   10 cycles
 SCF Done:  E(UM062X) =  -582.375036852     A.U. after    9 cycles
 SCF Done:  E(UM062X) =  -582.375684532     A.U. after    9 cycles
 Optimization completed.
    -- Stationary point found.

                          Input orientation:
 ---------------------------------------------------------------------
 Center     Atomic      Atomic             Coordinates (Angstroms)
 Number     Number       Type             X           Y           Z
 ---------------------------------------------------------------------
      1         14           0       -2.344819    0.000000    0.000000
      2         14           0        2.344819    0.000000    0.000000
      3          1           0        2.747513   -1.419561   -0.000054
      4          1           0       -2.747455   -0.709695    1.229452
      5          1           0        2.747595    0.709867   -1.229306
      6          1           0        2.747464    0.709748    1.229417
      7          1           0       -2.747517    1.419560   -0.000109
      8          1           0       -2.747602   -0.709922   -1.229272
 ---------------------------------------------------------------------

 Alpha  occ. eigenvalues --  -67.01901 -67.01901  -5.56806  -5.56805  -3.88040
 Alpha  occ. eigenvalues --   -3.88040  -3.87798  -3.87798  -3.87797  -3.87797
 Alpha  occ. eigenvalues --   -0.61171  -0.60911  -0.42135  -0.42135  -0.42083
 Alpha  occ. eigenvalues --   -0.42083  -0.21641
 Alpha virt. eigenvalues --   -0.11080   0.02018   0.02947   0.02947   0.03251
 Alpha virt. eigenvalues --    0.05028   0.05028   0.06166   0.06697   0.07508
 Alpha virt. eigenvalues --    0.07508   0.08549   0.08550   0.11641   0.15723

  Beta  occ. eigenvalues --  -67.01901 -67.01901  -5.56806  -5.56805  -3.88040
  Beta  occ. eigenvalues --   -3.88040  -3.87798  -3.87798  -3.87797  -3.87797
  Beta  occ. eigenvalues --   -0.61171  -0.60911  -0.42135  -0.42135  -0.42083
  Beta  occ. eigenvalues --   -0.42083  -0.21641
  Beta virt. eigenvalues --   -0.11080   0.02018   0.02947   0.02947   0.03251
  Beta virt. eigenvalues --    0.05028   0.05028   0.06166   0.06697   0.07508
  Beta virt. eigenvalues --    0.07508   0.08549   0.08550   0.11641   0.15723

 Mulliken charges and spin densities:
               1          2
     1  Si   0.265915   0.000000
     2  Si   0.265915  -0.000000
     3  H   -0.088637  -0.000000
     4  H   -0.088639   0.000000
     5  H   -0.088640  -0.000000
     6  H   -0.088639  -0.000000
     7  H   -0.088637   0.000000
     8  H   -0.088640   0.000000
 Sum of Mulliken charges =  -0.00000  -0.00000

 Dipole moment (field-independent basis, Debye):
    X=              0.0000    Y=             -0.0000    Z=              0.0000  Tot=              0.0000
 Quadrupole moment (field-independent basis, Debye-Ang):
   XX=            -27.9562   YY=            -32.1843   ZZ=            -32.1844
   XY=             -0.0004   XZ=              0.0000   YZ=              0.0000

 Normal termination of Gaussian 16 at Mon Apr 21 20:21:15 2025.
