 Gaussian 16, Revision A.03,
 Gaussian 16:  ES64L-G16RevA.03 25-Dec-2016

 --------------------------------------------
 #p opt UM062X/6-311+G** nosymm int=superfine
 --------------------------------------------

 -------------------
 Title Card Required
 -------------------
 Symbolic Z-matrix:
 Charge =  1 Multiplicity = 2

 SCF Done:  E(UM062X) =  -76.5855646970     A.U. after   11 cycles
 SCF Done:  E(UM062X) =  -76.5859919135     A.U. after   10 cycles
 Optimization completed.
    -- Stationary point found.

                          Input orientation:
 ---------------------------------------------------------------------
 Center     Atomic      Atomic             Coordinates (Angstroms)
 Number     Number       Type             X           Y           Z
 ---------------------------------------------------------------------
      1          6           0       -1.432160    0.000000    0.000000
      2          6           0        1.432160    0.000000    0.000000
      3          1           0       -2.551826    0.000000   -0.000000
      4          1           0        2.551825    0.000000   -0.000000
 ---------------------------------------------------------------------

 Alpha  occ. eigenvalues --  -10.95337 -10.95336  -0.99299  -0.98574  -0.67531
 Alpha  occ. eigenvalues --   -0.61212  -0.50690
 Alpha virt. eigenvalues --   -0.39863  -0.35024  -0.33381  -0.13037  -0.11676
 Alpha virt. eigenvalues --   -0.08140  -0.07599  -0.06033  -0.05174  -0.04776
 Alpha virt. eigenvalues --   -0.01263   0.01012   0.05962   0.24166   0.31554

  Beta  occ. eigenvalues --  -10.94947 -10.94946  -0.96878  -0.96379  -0.66246
  Beta  occ. eigenvalues --   -0.59746
  Beta virt. eigenvalues --   -0.33341  -0.31775  -0.31473  -0.29815  -0.13616
  Beta virt. eigenvalues --   -0.11605  -0.07688  -0.06963  -0.06852  -0.04478
  Beta virt. eigenvalues --   -0.03568  -0.02002   0.02741   0.07211   0.23359

 Mulliken charges and spin densities:
               1          2
     1  C    0.251834   0.516070
     2  C    0.251833   0.516070
     3  H    0.248167  -0.016070
     4  H    0.248166  -0.016070
 Sum of Mulliken charges =   1.00000   1.00000

 Dipole moment (field-independent basis, Debye):
    X=             -0.0000    Y=             -0.0000    Z=             -0.0000  Tot=              0.0000
 Quadrupole moment (field-independent basis, Debye-Ang):
   XX=             10.8759   YY=            -10.7125   ZZ=            -10.3712
   XY=              0.0000   XZ=              0.0000   YZ=              1.0188

 Normal termination of Gaussian 16 at Tue Dec  3 11:27:27 2024.
