 Gaussian 16, Revision A.03,
 Gaussian 16:  ES64L-G16RevA.03 25-Dec-2016

 --------------------------------------------
 #p opt UM062X/6-311+G** nosymm int=superfine
 --------------------------------------------

 -------------------
 Title Card Required
 -------------------
 Symbolic Z-matrix:
 Charge =  0 Multiplicity = 1

 SCF Done:  E(UM062X) =  -80.7021718309     A.U. after   10 cycles
 SCF Done:  E(UM062X) =  -80.7022068812     A.U. after    8 cycles
 SCF Done:  E(UM062X) =  -80.7022069593     A.U. after    7 cycles
 SCF Done:  E(UM062X) =  -80.7022071540     A.U. after    7 cycles
 Optimization completed.
    -- Stationary point found.

                          Input orientation:
 ---------------------------------------------------------------------
 Center     Atomic      Atomic             Coordinates (Angstroms)
 Number     Number       Type             X           Y           Z
 ---------------------------------------------------------------------
      1          5           0       -0.767066    0.000000    0.000000
      2          7           0        0.767066    0.000000    0.000000
      3          1           0       -1.934072    0.000432   -0.000017
      4          1           0        1.767231    0.001775   -0.000000
 ---------------------------------------------------------------------

 Alpha  occ. eigenvalues --  -14.75287  -7.14295  -0.88157  -0.60112  -0.53112
 Alpha  occ. eigenvalues --   -0.32142  -0.32142
 Alpha virt. eigenvalues --   -0.00631  -0.00631   0.01230   0.02011   0.05818
 Alpha virt. eigenvalues --    0.05818   0.09081   0.11380   0.18303   0.18303
 Alpha virt. eigenvalues --    0.21816   0.25348   0.32689   0.40853   0.40853

  Beta  occ. eigenvalues --  -14.75287  -7.14295  -0.88157  -0.60112  -0.53112
  Beta  occ. eigenvalues --   -0.32142  -0.32142
  Beta virt. eigenvalues --   -0.00631  -0.00631   0.01230   0.02011   0.05818
  Beta virt. eigenvalues --    0.05818   0.09081   0.11380   0.18303   0.18303
  Beta virt. eigenvalues --    0.21816   0.25348   0.32689   0.40853   0.40853

 Mulliken charges and spin densities:
               1          2
     1  B    0.251483  -0.000000
     2  N   -0.614095   0.000000
     3  H    0.064558  -0.000000
     4  H    0.298053  -0.000000
 Sum of Mulliken charges =  -0.00000  -0.00000

 Dipole moment (field-independent basis, Debye):
    X=             -1.2893    Y=              0.0027    Z=             -0.0000  Tot=              1.2893
 Quadrupole moment (field-independent basis, Debye-Ang):
   XX=             -7.0379   YY=            -14.3123   ZZ=            -14.3123
   XY=              0.0070   XZ=              0.0000   YZ=             -0.0000

 Normal termination of Gaussian 16 at Mon Apr 21 18:01:02 2025.
