 Gaussian 16, Revision A.03,
 Gaussian 16:  ES64L-G16RevA.03 25-Dec-2016

 --------------------------------------------
 #p opt UM062X/6-311+G** nosymm int=superfine
 --------------------------------------------

 -------------------
 Title Card Required
 -------------------
 Symbolic Z-matrix:
 Charge = -1 Multiplicity = 2

 SCF Done:  E(UM062X) =  -50.5550250162     A.U. after   15 cycles
 SCF Done:  E(UM062X) =  -50.5597372242     A.U. after   16 cycles
 SCF Done:  E(UM062X) =  -50.5600867073     A.U. after   10 cycles
 Optimization completed.
    -- Stationary point found.

                          Input orientation:
 ---------------------------------------------------------------------
 Center     Atomic      Atomic             Coordinates (Angstroms)
 Number     Number       Type             X           Y           Z
 ---------------------------------------------------------------------
      1          5           0       -1.766404    0.000000    0.000000
      2          5           0        1.766404    0.000000    0.000000
      3          1           0       -3.039921   -0.000963    0.000000
      4          1           0        3.039921    0.000963   -0.000000
 ---------------------------------------------------------------------

 Alpha  occ. eigenvalues --   -6.90775  -6.90775  -0.34233  -0.33969  -0.10032
 Alpha  occ. eigenvalues --   -0.05278   0.02536
 Alpha virt. eigenvalues --    0.11304   0.12463   0.14239   0.15632   0.16296
 Alpha virt. eigenvalues --    0.21894   0.22042   0.22262   0.22718   0.23560
 Alpha virt. eigenvalues --    0.25747   0.33900   0.37626   0.51743   0.57904

  Beta  occ. eigenvalues --   -6.90696  -6.90696  -0.33184  -0.33038  -0.08884
  Beta  occ. eigenvalues --   -0.04289
  Beta virt. eigenvalues --    0.10457   0.11444   0.12639   0.13191   0.13489
  Beta virt. eigenvalues --    0.13914   0.19163   0.20261   0.20527   0.21383
  Beta virt. eigenvalues --    0.21658   0.22301   0.33668   0.37676   0.51413

 Mulliken charges and spin densities:
               1          2
     1  B   -0.405700   0.509797
     2  B   -0.405700   0.509797
     3  H   -0.094300  -0.009797
     4  H   -0.094300  -0.009797
 Sum of Mulliken charges =  -1.00000   1.00000

 Dipole moment (field-independent basis, Debye):
    X=              0.0000    Y=              0.0000    Z=             -0.0000  Tot=              0.0000
 Quadrupole moment (field-independent basis, Debye-Ang):
   XX=            -37.8525   YY=            -19.2492   ZZ=            -26.8388
   XY=             -0.0016   XZ=              0.0000   YZ=             -0.0000

 Normal termination of Gaussian 16 at Mon Apr 21 17:30:56 2025.
