 Gaussian 16, Revision A.03,
 Gaussian 16:  ES64L-G16RevA.03 25-Dec-2016

 ---------------------------------------------------
 #p UM062X/6-311+G** force int=superfine pop=saveNBO
 ---------------------------------------------------

 -------------------
 Title Card Required
 -------------------
 Symbolic Z-matrix:
 Charge =  0 Multiplicity = 1

                         Standard orientation:
 ---------------------------------------------------------------------
 Center     Atomic      Atomic             Coordinates (Angstroms)
 Number     Number       Type             X           Y           Z
 ---------------------------------------------------------------------
      1          6           0        0.000000    0.000000   -1.657158
      2         16           0        0.000000    0.000000    0.621434
 ---------------------------------------------------------------------

 SCF Done:  E(UM062X) =  -436.001435674     A.U. after   13 cycles

 The electronic state is 1-SG.
 Alpha  occ. eigenvalues --  -89.95507 -10.78878  -8.31202  -6.23200  -6.22881
 Alpha  occ. eigenvalues --   -6.22881  -0.78594  -0.66407  -0.37441  -0.33254
 Alpha  occ. eigenvalues --   -0.33254
 Alpha virt. eigenvalues --   -0.14397  -0.14397  -0.06092   0.03732   0.05549
 Alpha virt. eigenvalues --    0.05943   0.05943   0.08661   0.09406   0.09406
 Alpha virt. eigenvalues --    0.15779   0.33870   0.35683   0.35683   0.53504

  Beta  occ. eigenvalues --  -89.95507 -10.78878  -8.31202  -6.23200  -6.22881
  Beta  occ. eigenvalues --   -6.22881  -0.78594  -0.66407  -0.37441  -0.33254
  Beta  occ. eigenvalues --   -0.33254
  Beta virt. eigenvalues --   -0.14397  -0.14397  -0.06092   0.03732   0.05549
  Beta virt. eigenvalues --    0.05943   0.05943   0.08661   0.09406   0.09406
  Beta virt. eigenvalues --    0.15779   0.33870   0.35683   0.35683   0.53504

 Mulliken charges and spin densities:
               1          2
     1  C    0.123854  -0.000000
     2  S   -0.123854   0.000000
 Sum of Mulliken charges =  -0.00000  -0.00000

 Dipole moment (field-independent basis, Debye):
    X=              0.0000    Y=              0.0000    Z=             -1.1104  Tot=              1.1104
 Quadrupole moment (field-independent basis, Debye-Ang):
   XX=            -20.2855   YY=            -20.2855   ZZ=            -17.5941
   XY=              0.0000   XZ=              0.0000   YZ=              0.0000

 Summary of Natural Population Analysis:

                                       Natural Population
                Natural  -----------------------------------------------
    Atom  No    Charge         Core      Valence    Rydberg      Total
 -----------------------------------------------------------------------
      C    1    0.10546      0.99999     1.89136    0.00318     2.89454
      S    2   -0.10546      4.99996     3.10199    0.00351     8.10546
 =======================================================================
   * Total *   -0.00000      5.99996     4.99335    0.00670    11.00000

 Normal termination of Gaussian 16 at Mon Apr 21 19:46:30 2025.
