 Gaussian 16, Revision A.03,
 Gaussian 16:  ES64L-G16RevA.03 25-Dec-2016

 --------------------------------------------
 #p opt UM062X/6-311+G** nosymm int=superfine
 --------------------------------------------

 -------------------
 Title Card Required
 -------------------
 Symbolic Z-matrix:
 Charge =  0 Multiplicity = 1

 SCF Done:  E(UM062X) =  -379.557758521     A.U. after   16 cycles
 SCF Done:  E(UM062X) =  -379.559195225     A.U. after   10 cycles
 SCF Done:  E(UM062X) =  -379.559201537     A.U. after   10 cycles
 Optimization completed.
    -- Stationary point found.

                          Input orientation:
 ---------------------------------------------------------------------
 Center     Atomic      Atomic             Coordinates (Angstroms)
 Number     Number       Type             X           Y           Z
 ---------------------------------------------------------------------
      1          6           0       -1.990377    0.000000    0.000000
      2         15           0        1.990377    0.000000    0.000000
      3          1           0       -3.113361    0.000000   -0.000000
 ---------------------------------------------------------------------

 Alpha  occ. eigenvalues --  -78.06774 -10.72170  -6.88696  -5.00614  -4.99669
 Alpha  occ. eigenvalues --   -4.99669  -0.76930  -0.60191  -0.42575  -0.23372
 Alpha  occ. eigenvalues --   -0.23372
 Alpha virt. eigenvalues --   -0.15811  -0.15811  -0.11642   0.01050   0.04170
 Alpha virt. eigenvalues --    0.05968   0.05968   0.07641   0.08360   0.08360
 Alpha virt. eigenvalues --    0.12878   0.15843   0.32895   0.33562   0.33562

  Beta  occ. eigenvalues --  -78.06774 -10.72170  -6.88696  -5.00614  -4.99669
  Beta  occ. eigenvalues --   -4.99669  -0.76930  -0.60191  -0.42575  -0.23372
  Beta  occ. eigenvalues --   -0.23372
  Beta virt. eigenvalues --   -0.15811  -0.15811  -0.11642   0.01050   0.04170
  Beta virt. eigenvalues --    0.05968   0.05968   0.07641   0.08360   0.08360
  Beta virt. eigenvalues --    0.12878   0.15843   0.32895   0.33562   0.33562

 Mulliken charges and spin densities:
               1          2
     1  C   -0.080069   0.000000
     2  P   -0.081517  -0.000000
     3  H    0.161586  -0.000000
 Sum of Mulliken charges =  -0.00000   0.00000

 Dipole moment (field-independent basis, Debye):
    X=             -3.5621    Y=              0.0000    Z=             -0.0000  Tot=              3.5621
 Quadrupole moment (field-independent basis, Debye-Ang):
   XX=             -9.9523   YY=            -24.1718   ZZ=            -24.1718
   XY=             -0.0000   XZ=              0.0000   YZ=              0.0000

 Normal termination of Gaussian 16 at Mon Apr 21 19:30:07 2025.
