 Gaussian 16, Revision A.03,
 Gaussian 16:  ES64L-G16RevA.03 25-Dec-2016

 --------------------------------------------
 #p opt UM062X/6-311+G** nosymm int=superfine
 --------------------------------------------

 -------------------
 Title Card Required
 -------------------
 Symbolic Z-matrix:
 Charge =  0 Multiplicity = 1

 SCF Done:  E(UM062X) =  -75.9005294222     A.U. after    9 cycles
 SCF Done:  E(UM062X) =  -76.1897294712     A.U. after    9 cycles
 SCF Done:  E(UM062X) =  -76.3595084432     A.U. after   11 cycles
 SCF Done:  E(UM062X) =  -76.3616416387     A.U. after    9 cycles
 SCF Done:  E(UM062X) =  -76.3617231884     A.U. after    7 cycles
 Optimization completed.
    -- Stationary point found.

                          Input orientation:
 ---------------------------------------------------------------------
 Center     Atomic      Atomic             Coordinates (Angstroms)
 Number     Number       Type             X           Y           Z
 ---------------------------------------------------------------------
      1          6           0       -0.383050    0.000000    0.000000
      2          6           0        0.383050    0.000000    0.000000
      3          1           0       -1.438597    0.000000   -0.000000
      4          1           0        1.438594    0.000000   -0.000000
 ---------------------------------------------------------------------

 Alpha  occ. eigenvalues --  -10.53078 -10.42722  -0.86427  -0.57498  -0.53624
 Alpha  occ. eigenvalues --   -0.48254  -0.48254
 Alpha virt. eigenvalues --    0.02982   0.03851   0.06651   0.06651   0.08592
 Alpha virt. eigenvalues --    0.08592   0.10128   0.17174   0.23866   0.25272
 Alpha virt. eigenvalues --    0.27427   0.27427   0.45035   0.50458   0.50458

  Beta  occ. eigenvalues --  -10.53078 -10.42722  -0.86427  -0.57498  -0.53624
  Beta  occ. eigenvalues --   -0.48254  -0.48254
  Beta virt. eigenvalues --    0.02982   0.03851   0.06651   0.06651   0.08592
  Beta virt. eigenvalues --    0.08592   0.10128   0.17174   0.23866   0.25272
  Beta virt. eigenvalues --    0.27427   0.27427   0.45035   0.50458   0.50458

 Mulliken charges and spin densities:
               1          2
     1  C   -0.088128   0.000000
     2  C   -0.088129  -0.000000
     3  H    0.088129  -0.000000
     4  H    0.088128  -0.000000
 Sum of Mulliken charges =  -0.00000   0.00000

 Dipole moment (field-independent basis, Debye):
    X=             -0.0000    Y=              0.0000    Z=             -0.0000  Tot=              0.0000
 Quadrupole moment (field-independent basis, Debye-Ang):
   XX=             -8.1486   YY=            -11.3521   ZZ=            -11.3521
   XY=              0.0000   XZ=             -0.0000   YZ=             -0.0000

 Normal termination of Gaussian 16 at Tue Dec  3 19:52:40 2024.
