 Gaussian 16, Revision A.03,
 Gaussian 16:  ES64L-G16RevA.03 25-Dec-2016

 --------------------------------------------
 #p opt UM062X/6-311+G** nosymm int=superfine
 --------------------------------------------

 -------------------
 Title Card Required
 -------------------
 Symbolic Z-matrix:
 Charge =  0 Multiplicity = 1

 SCF Done:  E(UM062X) =  -380.931935496     A.U. after   19 cycles
 SCF Done:  E(UM062X) =  -380.934541048     A.U. after   16 cycles
 SCF Done:  E(UM062X) =  -380.935492363     A.U. after   17 cycles
 SCF Done:  E(UM062X) =  -380.935558749     A.U. after   16 cycles
 SCF Done:  E(UM062X) =  -380.935696063     A.U. after   18 cycles
 SCF Done:  E(UM062X) =  -380.935773760     A.U. after   19 cycles
 SCF Done:  E(UM062X) =  -380.935860254     A.U. after   16 cycles
 SCF Done:  E(UM062X) =  -380.935862832     A.U. after   19 cycles
 SCF Done:  E(UM062X) =  -380.935863073     A.U. after   13 cycles
 SCF Done:  E(UM062X) =  -380.935863772     A.U. after   15 cycles
 SCF Done:  E(UM062X) =  -380.935870277     A.U. after   18 cycles
 SCF Done:  E(UM062X) =  -380.935870700     A.U. after   14 cycles
 SCF Done:  E(UM062X) =  -380.935871223     A.U. after   16 cycles
 SCF Done:  E(UM062X) =  -380.935871441     A.U. after   18 cycles
 SCF Done:  E(UM062X) =  -380.935871456     A.U. after   14 cycles
 SCF Done:  E(UM062X) =  -380.935871440     A.U. after   20 cycles
 SCF Done:  E(UM062X) =  -380.935871417     A.U. after   19 cycles
 SCF Done:  E(UM062X) =  -380.935871393     A.U. after   14 cycles
 SCF Done:  E(UM062X) =  -380.935871401     A.U. after   15 cycles
 SCF Done:  E(UM062X) =  -380.935871397     A.U. after   13 cycles
 Optimization completed.
    -- Stationary point found.

                          Input orientation:
 ---------------------------------------------------------------------
 Center     Atomic      Atomic             Coordinates (Angstroms)
 Number     Number       Type             X           Y           Z
 ---------------------------------------------------------------------
      1          6           0       -1.930452    0.000000    0.000000
      2         15           0        1.930452    0.000000    0.000000
      3          1           0       -2.646688   -0.842736    0.004822
      4          1           0        1.675019   -1.398112   -0.010615
      5          1           0       -2.581831    0.893676   -0.003578
 ---------------------------------------------------------------------

 Alpha  occ. eigenvalues --  -78.04265 -10.62847  -6.86508  -4.98514  -4.97750
 Alpha  occ. eigenvalues --   -4.97295  -0.77313  -0.65300  -0.49578  -0.38003
 Alpha  occ. eigenvalues --   -0.33317  -0.24141
 Alpha virt. eigenvalues --   -0.10921  -0.09803   0.01321   0.03897   0.04688
 Alpha virt. eigenvalues --    0.06156   0.06932   0.07459   0.08769   0.10843
 Alpha virt. eigenvalues --    0.13539   0.17194   0.18635   0.31266   0.33695

  Beta  occ. eigenvalues --  -78.04265 -10.62847  -6.86508  -4.98514  -4.97750
  Beta  occ. eigenvalues --   -4.97295  -0.77313  -0.65300  -0.49578  -0.38003
  Beta  occ. eigenvalues --   -0.33317  -0.24141
  Beta virt. eigenvalues --   -0.10921  -0.09803   0.01321   0.03897   0.04688
  Beta virt. eigenvalues --    0.06156   0.06932   0.07459   0.08769   0.10843
  Beta virt. eigenvalues --    0.13539   0.17194   0.18635   0.31266   0.33695

 Mulliken charges and spin densities:
               1          2
     1  C   -0.293527   0.000000
     2  P    0.037840  -0.000000
     3  H    0.144274  -0.000000
     4  H   -0.032783   0.000000
     5  H    0.144196   0.000000
 Sum of Mulliken charges =   0.00000  -0.00000

 Dipole moment (field-independent basis, Debye):
    X=             -2.7105    Y=             -0.5869    Z=             -0.0032  Tot=              2.7733
 Quadrupole moment (field-independent basis, Debye-Ang):
   XX=            -12.9401   YY=            -21.3527   ZZ=            -25.3670
   XY=             -1.9411   XZ=             -0.0105   YZ=              0.0367

 Normal termination of Gaussian 16 at Mon Apr 21 19:22:46 2025.
