 Gaussian 16, Revision A.03,
 Gaussian 16:  ES64L-G16RevA.03 25-Dec-2016

 --------------------------------------------
 #p opt UM062X/6-311+G** nosymm int=superfine
 --------------------------------------------

 -------------------
 Title Card Required
 -------------------
 Symbolic Z-matrix:
 Charge =  0 Multiplicity = 1

 SCF Done:  E(UM062X) =  -77.2652823428     A.U. after    9 cycles
 SCF Done:  E(UM062X) =  -77.2832946904     A.U. after    9 cycles
 SCF Done:  E(UM062X) =  -77.2835155496     A.U. after    8 cycles
 Optimization completed.
    -- Stationary point found.

                          Input orientation:
 ---------------------------------------------------------------------
 Center     Atomic      Atomic             Coordinates (Angstroms)
 Number     Number       Type             X           Y           Z
 ---------------------------------------------------------------------
      1          6           0       -0.670337    0.000000    0.000000
      2          6           0        0.670337    0.000000    0.000000
      3          1           0       -1.737613   -0.000000    0.000000
      4          1           0        1.737613   -0.000000    0.000000
 ---------------------------------------------------------------------

 Alpha  occ. eigenvalues --  -10.58767 -10.58655  -0.82499  -0.66480  -0.56301
 Alpha  occ. eigenvalues --   -0.33716  -0.33716
 Alpha virt. eigenvalues --    0.02033   0.02033   0.02463   0.02503   0.07889
 Alpha virt. eigenvalues --    0.07889   0.09315   0.12912   0.12912   0.14132
 Alpha virt. eigenvalues --    0.18893   0.23915   0.35957   0.45394   0.58007

  Beta  occ. eigenvalues --  -10.58767 -10.58655  -0.82499  -0.66480  -0.56301
  Beta  occ. eigenvalues --   -0.33716  -0.33716
  Beta virt. eigenvalues --    0.02033   0.02033   0.02463   0.02503   0.07889
  Beta virt. eigenvalues --    0.07889   0.09315   0.12912   0.12912   0.14132
  Beta virt. eigenvalues --    0.18893   0.23915   0.35957   0.45394   0.58007

 Mulliken charges and spin densities:
               1          2
     1  C   -0.200217   0.000000
     2  C   -0.200217  -0.000000
     3  H    0.200217  -0.000000
     4  H    0.200217  -0.000000
 Sum of Mulliken charges =  -0.00000   0.00000

 Dipole moment (field-independent basis, Debye):
    X=              0.0000    Y=             -0.0000    Z=              0.0000  Tot=              0.0000
 Quadrupole moment (field-independent basis, Debye-Ang):
   XX=             -6.3825   YY=            -14.4566   ZZ=            -14.4566
   XY=              0.0000   XZ=             -0.0000   YZ=              0.0000

 Normal termination of Gaussian 16 at Tue Dec  3 20:05:35 2024.
