 Gaussian 16, Revision A.03,
 Gaussian 16:  ES64L-G16RevA.03 25-Dec-2016

 --------------------------------------------
 #p opt UM062X/6-311+G** nosymm int=superfine
 --------------------------------------------

 -------------------
 Title Card Required
 -------------------
 Symbolic Z-matrix:
 Charge =  0 Multiplicity = 1

 SCF Done:  E(UM062X) =  -81.6873417555     A.U. after   25 cycles
 SCF Done:  E(UM062X) =  -81.6954841030     A.U. after   12 cycles
 SCF Done:  E(UM062X) =  -81.7010142491     A.U. after   26 cycles
 SCF Done:  E(UM062X) =  -81.7118939366     A.U. after   21 cycles
 SCF Done:  E(UM062X) =  -81.7261426670     A.U. after   16 cycles
 SCF Done:  E(UM062X) =  -81.7308387025     A.U. after   16 cycles
 SCF Done:  E(UM062X) =  -81.7259982286     A.U. after   21 cycles
 SCF Done:  E(UM062X) =  -81.7331660191     A.U. after   16 cycles
 SCF Done:  E(UM062X) =  -81.7349673085     A.U. after   15 cycles
 SCF Done:  E(UM062X) =  -81.7354997362     A.U. after   14 cycles
 SCF Done:  E(UM062X) =  -81.7355479405     A.U. after   11 cycles
 SCF Done:  E(UM062X) =  -81.7355489442     A.U. after   12 cycles
 Optimization completed.
    -- Stationary point found.

                          Input orientation:
 ---------------------------------------------------------------------
 Center     Atomic      Atomic             Coordinates (Angstroms)
 Number     Number       Type             X           Y           Z
 ---------------------------------------------------------------------
      1          5           0       -1.845399    0.000000    0.000000
      2          7           0        1.845399    0.000000    0.000000
      3          1           0       -2.175668   -1.123876    0.026553
      4          1           0        1.832152    0.802047   -0.638595
      5          1           0       -2.175673    1.123898    0.025547
      6          1           0        1.832153   -0.802567   -0.637941
 ---------------------------------------------------------------------

 Alpha  occ. eigenvalues --  -14.71685  -7.18460  -0.87362  -0.63133  -0.51803
 Alpha  occ. eigenvalues --   -0.48017  -0.33291  -0.23424
 Alpha virt. eigenvalues --   -0.11031  -0.08955   0.00657   0.02670   0.04162
 Alpha virt. eigenvalues --    0.05007   0.09324   0.11563   0.13583   0.17407
 Alpha virt. eigenvalues --    0.20054   0.20497   0.21680   0.27531   0.32359

  Beta  occ. eigenvalues --  -14.71685  -7.18460  -0.87362  -0.63133  -0.51803
  Beta  occ. eigenvalues --   -0.48017  -0.33291  -0.23424
  Beta virt. eigenvalues --   -0.11031  -0.08955   0.00657   0.02670   0.04162
  Beta virt. eigenvalues --    0.05007   0.09324   0.11563   0.13583   0.17407
  Beta virt. eigenvalues --    0.20054   0.20497   0.21680   0.27531   0.32359

 Mulliken charges and spin densities:
               1          2
     1  B    0.152148   0.000000
     2  N   -0.695228  -0.000000
     3  H    0.068146  -0.000000
     4  H    0.203393   0.000000
     5  H    0.068146  -0.000000
     6  H    0.203393   0.000000
 Sum of Mulliken charges =  -0.00000   0.00000

 Dipole moment (field-independent basis, Debye):
    X=             -5.3712    Y=             -0.0008    Z=             -1.8743  Tot=              5.6888
 Quadrupole moment (field-independent basis, Debye-Ang):
   XX=            -13.9188   YY=            -13.4537   ZZ=            -14.5989
   XY=             -0.0015   XZ=             -3.7245   YZ=             -0.0004

 Normal termination of Gaussian 16 at Mon Apr 21 17:53:10 2025.
