 Gaussian 16, Revision A.03,
 Gaussian 16:  ES64L-G16RevA.03 25-Dec-2016

 ---------------------------------------
 #p UM062X/6-311+G** force int=superfine
 ---------------------------------------

 -------------------
 Title Card Required
 -------------------
 Symbolic Z-matrix:
 Charge =  0 Multiplicity = 1

                         Standard orientation:
 ---------------------------------------------------------------------
 Center     Atomic      Atomic             Coordinates (Angstroms)
 Number     Number       Type             X           Y           Z
 ---------------------------------------------------------------------
      1          7           0        0.000000    0.000000    0.645048
      2          7           0        0.000000    0.000000   -0.645048
 ---------------------------------------------------------------------

 SCF Done:  E(UM062X) =  -109.443569208     A.U. after    9 cycles

 The electronic state is 1-SGG.
 Alpha  occ. eigenvalues --  -14.90948 -14.90862  -1.13841  -0.69798  -0.50161
 Alpha  occ. eigenvalues --   -0.48429  -0.48429
 Alpha virt. eigenvalues --   -0.05215  -0.05215   0.08076   0.08357   0.10752
 Alpha virt. eigenvalues --    0.10752   0.15409   0.17024   0.17024   0.26643
 Alpha virt. eigenvalues --    0.37203   0.74748   0.77386   0.77386   0.82514

  Beta  occ. eigenvalues --  -14.90948 -14.90862  -1.13841  -0.69798  -0.50161
  Beta  occ. eigenvalues --   -0.48429  -0.48429
  Beta virt. eigenvalues --   -0.05215  -0.05215   0.08076   0.08357   0.10752
  Beta virt. eigenvalues --    0.10752   0.15409   0.17024   0.17024   0.26643
  Beta virt. eigenvalues --    0.37203   0.74748   0.77386   0.77386   0.82514

 Mulliken charges and spin densities:
               1          2
     1  N    0.000000  -0.000000
     2  N    0.000000  -0.000000
 Sum of Mulliken charges =   0.00000  -0.00000

 Dipole moment (field-independent basis, Debye):
    X=              0.0000    Y=              0.0000    Z=             -0.0000  Tot=              0.0000
 Quadrupole moment (field-independent basis, Debye-Ang):
   XX=            -10.9044   YY=            -10.9044   ZZ=            -12.0154
   XY=              0.0000   XZ=              0.0000   YZ=             -0.0000

 Optimization completed.
    -- Stationary point found.
 Normal termination of Gaussian 16 at Wed Feb 26 13:45:16 2025.
