 Gaussian 16, Revision A.03,
 Gaussian 16:  ES64L-G16RevA.03 25-Dec-2016

 ----------------------------------------------------------------------
 #p opt UM062X/6-311+G** nosymm int=superfine SCF=(MaxCycle=200,NoVarAc
 c,noincfock) guess=read
 ----------------------------------------------------------------------

 -------------------
 Title Card Required
 -------------------
 Symbolic Z-matrix:
 Charge =  1 Multiplicity = 2

 SCF Done:  E(UM062X) =  -379.444680122     A.U. after  128 cycles
 SCF Done:  E(UM062X) =  -379.444886144     A.U. after   15 cycles
 Optimization completed.
    -- Stationary point found.

                          Input orientation:
 ---------------------------------------------------------------------
 Center     Atomic      Atomic             Coordinates (Angstroms)
 Number     Number       Type             X           Y           Z
 ---------------------------------------------------------------------
      1          6           0       -1.094427    0.000000    0.000000
      2         15           0        1.094427    0.000000    0.000000
      3          1           0       -2.197322    0.000000   -0.000000
 ---------------------------------------------------------------------

 Alpha  occ. eigenvalues --  -78.40483 -10.96431  -7.21529  -5.33498  -5.32856
 Alpha  occ. eigenvalues --   -5.32558  -1.02298  -0.91557  -0.69890  -0.57181
 Alpha  occ. eigenvalues --   -0.55203
 Alpha virt. eigenvalues --   -0.37538  -0.35915  -0.29278  -0.13713  -0.10501
 Alpha virt. eigenvalues --   -0.09417  -0.09191  -0.08926  -0.05363  -0.05216
 Alpha virt. eigenvalues --   -0.00235   0.04072   0.11261   0.14143   0.14222

  Beta  occ. eigenvalues --  -78.39999 -10.96315  -7.21413  -5.32745  -5.32437
  Beta  occ. eigenvalues --   -5.32098  -0.99824  -0.88835  -0.68787  -0.53889
  Beta virt. eigenvalues --   -0.38518  -0.34806  -0.30849  -0.27712  -0.14873
  Beta virt. eigenvalues --   -0.10983  -0.09284  -0.09267  -0.09051  -0.05393
  Beta virt. eigenvalues --   -0.05381  -0.01059   0.04254   0.11107   0.11340

 Mulliken charges and spin densities:
               1          2
     1  C   -0.016473   0.358897
     2  P    0.694709   0.655170
     3  H    0.321764  -0.014068
 Sum of Mulliken charges =   1.00000   1.00000

 Dipole moment (field-independent basis, Debye):
    X=              0.1604    Y=             -0.0000    Z=             -0.0000  Tot=              0.1604
 Quadrupole moment (field-independent basis, Debye-Ang):
   XX=             -3.0241   YY=            -16.4100   ZZ=            -18.1746
   XY=              0.0000   XZ=              0.0000   YZ=             -1.0568

 Normal termination of Gaussian 16 at Mon Apr 21 23:45:50 2025.
