 Gaussian 16, Revision A.03,
 Gaussian 16:  ES64L-G16RevA.03 25-Dec-2016

 --------------------------------------------
 #p opt UM062X/6-311+G** nosymm int=superfine
 --------------------------------------------

 -------------------
 Title Card Required
 -------------------
 Symbolic Z-matrix:
 Charge =  1 Multiplicity = 2

 SCF Done:  E(UM062X) =  -582.173016444     A.U. after   10 cycles
 SCF Done:  E(UM062X) =  -582.173027500     A.U. after    7 cycles
 SCF Done:  E(UM062X) =  -582.173027817     A.U. after    7 cycles
 Optimization completed.
    -- Stationary point found.

                          Input orientation:
 ---------------------------------------------------------------------
 Center     Atomic      Atomic             Coordinates (Angstroms)
 Number     Number       Type             X           Y           Z
 ---------------------------------------------------------------------
      1         14           0       -1.426292    0.000000    0.000000
      2         14           0        1.426292    0.000000    0.000000
      3          1           0        1.617124   -1.454300    0.000038
      4          1           0       -1.616975   -0.727068    1.259522
      5          1           0        1.617483    0.727167   -1.259385
      6          1           0        1.616820    0.727161    1.259494
      7          1           0       -1.617150    1.454297   -0.000069
      8          1           0       -1.617302   -0.727268   -1.259356
 ---------------------------------------------------------------------

 Alpha  occ. eigenvalues --  -67.24116 -67.24116  -5.79015  -5.79014  -4.10741
 Alpha  occ. eigenvalues --   -4.10734  -4.09901  -4.09901  -4.09901  -4.09901
 Alpha  occ. eigenvalues --   -0.85796  -0.81198  -0.64320  -0.64319  -0.62492
 Alpha  occ. eigenvalues --   -0.62492  -0.51809
 Alpha virt. eigenvalues --   -0.22067  -0.16197  -0.11940  -0.11939  -0.11477
 Alpha virt. eigenvalues --   -0.11251  -0.11250  -0.10064  -0.09270  -0.09270
 Alpha virt. eigenvalues --   -0.06952  -0.06568  -0.06568  -0.03357   0.00518

  Beta  occ. eigenvalues --  -67.23836 -67.23836  -5.78941  -5.78940  -4.10024
  Beta  occ. eigenvalues --   -4.10019  -4.09810  -4.09810  -4.09810  -4.09810
  Beta  occ. eigenvalues --   -0.83082  -0.79553  -0.63769  -0.63768  -0.62109
  Beta  occ. eigenvalues --   -0.62108
  Beta virt. eigenvalues --   -0.33554  -0.18334  -0.15336  -0.11252  -0.11251
  Beta virt. eigenvalues --   -0.11074  -0.11073  -0.10593  -0.09848  -0.08599
  Beta virt. eigenvalues --   -0.08598  -0.06243  -0.06243  -0.04328  -0.02388

 Mulliken charges and spin densities:
               1          2
     1  Si   0.483643   0.523019
     2  Si   0.483643   0.523019
     3  H    0.005454  -0.007671
     4  H    0.005448  -0.007670
     5  H    0.005461  -0.007689
     6  H    0.005442  -0.007659
     7  H    0.005454  -0.007672
     8  H    0.005454  -0.007677
 Sum of Mulliken charges =   1.00000   1.00000

 Dipole moment (field-independent basis, Debye):
    X=              0.0000    Y=              0.0000    Z=             -0.0001  Tot=              0.0001
 Quadrupole moment (field-independent basis, Debye-Ang):
   XX=            -11.6844   YY=            -25.6283   ZZ=            -25.6285
   XY=             -0.0002   XZ=              0.0000   YZ=              0.0000

 Normal termination of Gaussian 16 at Mon Apr 21 20:09:08 2025.
