 Gaussian 16, Revision A.03,
 Gaussian 16:  ES64L-G16RevA.03 25-Dec-2016

 --------------------------------------------
 #p opt UM062X/6-311+G** nosymm int=superfine
 --------------------------------------------

 -------------------
 Title Card Required
 -------------------
 Symbolic Z-matrix:
 Charge =  0 Multiplicity = 1

 SCF Done:  E(UM062X) =  -78.5151803162     A.U. after    8 cycles
 SCF Done:  E(UM062X) =  -78.5237180807     A.U. after    8 cycles
 SCF Done:  E(UM062X) =  -78.5243232045     A.U. after    7 cycles
 SCF Done:  E(UM062X) =  -78.5243244656     A.U. after    6 cycles
 Optimization completed.
    -- Stationary point found.

                          Input orientation:
 ---------------------------------------------------------------------
 Center     Atomic      Atomic             Coordinates (Angstroms)
 Number     Number       Type             X           Y           Z
 ---------------------------------------------------------------------
      1          6           0       -0.583327    0.000000    0.000000
      2          6           0        0.583327    0.000000    0.000000
      3          1           0       -1.182795   -0.908564    0.000000
      4          1           0       -1.182805    0.908538    0.000000
      5          1           0        1.182795    0.908564   -0.000000
      6          1           0        1.182805   -0.908538   -0.000000
 ---------------------------------------------------------------------

 Alpha  occ. eigenvalues --  -10.51267 -10.50924  -0.90143  -0.64696  -0.55731
 Alpha  occ. eigenvalues --   -0.50932  -0.38703  -0.36930
 Alpha virt. eigenvalues --    0.03388   0.04200   0.04842   0.05169   0.07258
 Alpha virt. eigenvalues --    0.08488   0.09768   0.15451   0.16108   0.17742
 Alpha virt. eigenvalues --    0.19245   0.24065   0.32710   0.39379   0.44014

  Beta  occ. eigenvalues --  -10.51267 -10.50924  -0.90143  -0.64696  -0.55731
  Beta  occ. eigenvalues --   -0.50932  -0.38703  -0.36930
  Beta virt. eigenvalues --    0.03388   0.04200   0.04842   0.05169   0.07258
  Beta virt. eigenvalues --    0.08488   0.09768   0.15451   0.16108   0.17742
  Beta virt. eigenvalues --    0.19245   0.24065   0.32710   0.39379   0.44014

 Mulliken charges and spin densities:
               1          2
     1  C   -0.276724   0.000000
     2  C   -0.276724  -0.000000
     3  H    0.138361  -0.000000
     4  H    0.138363  -0.000000
     5  H    0.138361   0.000000
     6  H    0.138363   0.000000
 Sum of Mulliken charges =  -0.00000   0.00000

 Dipole moment (field-independent basis, Debye):
    X=             -0.0000    Y=             -0.0000    Z=             -0.0000  Tot=              0.0000
 Quadrupole moment (field-independent basis, Debye-Ang):
   XX=            -12.4026   YY=            -12.3377   ZZ=            -15.1674
   XY=             -0.0000   XZ=             -0.0000   YZ=             -0.0000

 Normal termination of Gaussian 16 at Tue Nov 19 10:32:08 2024.
