 Gaussian 16, Revision A.03,
 Gaussian 16:  ES64L-G16RevA.03 25-Dec-2016

 --------------------------------------------
 #p opt UM062X/6-311+G** nosymm int=superfine
 --------------------------------------------

 -------------------
 Title Card Required
 -------------------
 Symbolic Z-matrix:
 Charge =  1 Multiplicity = 2

 SCF Done:  E(UM062X) =  -76.5067464544     A.U. after   12 cycles
 SCF Done:  E(UM062X) =  -76.5433160317     A.U. after   13 cycles
 SCF Done:  E(UM062X) =  -76.6033380340     A.U. after   12 cycles
 SCF Done:  E(UM062X) =  -76.6443062619     A.U. after   13 cycles
 Optimization completed.
    -- Stationary point found.

                          Input orientation:
 ---------------------------------------------------------------------
 Center     Atomic      Atomic             Coordinates (Angstroms)
 Number     Number       Type             X           Y           Z
 ---------------------------------------------------------------------
      1          6           0       -0.938227    0.000000    0.000000
      2          6           0        0.938227    0.000000    0.000000
      3          1           0       -2.040914   -0.000000    0.000000
      4          1           0        2.040923    0.000000    0.000000
 ---------------------------------------------------------------------

 Alpha  occ. eigenvalues --  -11.01001 -11.00976  -1.07322  -0.99658  -0.81244
 Alpha  occ. eigenvalues --   -0.61117  -0.59097
 Alpha virt. eigenvalues --   -0.38434  -0.36462  -0.34428  -0.14099  -0.11815
 Alpha virt. eigenvalues --   -0.10095  -0.08761  -0.08535  -0.05368  -0.05083
 Alpha virt. eigenvalues --    0.00575   0.03201   0.06169   0.23764   0.30976

  Beta  occ. eigenvalues --  -11.00736 -11.00719  -1.03896  -0.97796  -0.80179
  Beta  occ. eigenvalues --   -0.57240
  Beta virt. eigenvalues --   -0.39243  -0.34715  -0.32406  -0.29779  -0.15029
  Beta virt. eigenvalues --   -0.12133  -0.10681  -0.09118  -0.08974  -0.05391
  Beta virt. eigenvalues --   -0.05162  -0.00397   0.03289   0.06290   0.24061

 Mulliken charges and spin densities:
               1          2
     1  C    0.125446   0.522805
     2  C    0.125446   0.522806
     3  H    0.374552  -0.022805
     4  H    0.374556  -0.022806
 Sum of Mulliken charges =   1.00000   1.00000

 Dipole moment (field-independent basis, Debye):
    X=              0.0000    Y=              0.0000    Z=              0.0000  Tot=              0.0000
 Quadrupole moment (field-independent basis, Debye-Ang):
   XX=              4.8681   YY=            -10.9987   ZZ=            -13.1503
   XY=              0.0000   XZ=             -0.0000   YZ=             -0.0256

 Normal termination of Gaussian 16 at Tue Nov 19 13:26:11 2024.
