 Gaussian 16, Revision A.03,
 Gaussian 16:  ES64L-G16RevA.03 25-Dec-2016

 --------------------------------------------
 #p opt UM062X/6-311+G** nosymm int=superfine
 --------------------------------------------

 -------------------
 Title Card Required
 -------------------
 Symbolic Z-matrix:
 Charge =  0 Multiplicity = 1

 SCF Done:  E(UM062X) =  -582.365794257     A.U. after   10 cycles
 SCF Done:  E(UM062X) =  -582.368134259     A.U. after    9 cycles
 SCF Done:  E(UM062X) =  -582.368820763     A.U. after    9 cycles
 SCF Done:  E(UM062X) =  -582.368821174     A.U. after    7 cycles
 Optimization completed.
    -- Stationary point found.

                          Input orientation:
 ---------------------------------------------------------------------
 Center     Atomic      Atomic             Coordinates (Angstroms)
 Number     Number       Type             X           Y           Z
 ---------------------------------------------------------------------
      1         14           0       -2.444819    0.000000    0.000000
      2         14           0        2.444819    0.000000    0.000000
      3          1           0        2.844399   -1.420816   -0.000055
      4          1           0       -2.844173   -0.710386    1.230553
      5          1           0        2.844306    0.710562   -1.230409
      6          1           0        2.844182    0.710438    1.230520
      7          1           0       -2.844403    1.420815   -0.000112
      8          1           0       -2.844312   -0.710616   -1.230375
 ---------------------------------------------------------------------

 Alpha  occ. eigenvalues --  -67.01917 -67.01917  -5.56832  -5.56832  -3.88068
 Alpha  occ. eigenvalues --   -3.88068  -3.87821  -3.87821  -3.87821  -3.87821
 Alpha  occ. eigenvalues --   -0.61186  -0.60970  -0.42178  -0.42177  -0.42141
 Alpha  occ. eigenvalues --   -0.42140  -0.21259
 Alpha virt. eigenvalues --   -0.11556   0.01977   0.02964   0.02964   0.03219
 Alpha virt. eigenvalues --    0.04970   0.04970   0.06280   0.06652   0.07561
 Alpha virt. eigenvalues --    0.07561   0.08445   0.08446   0.11262   0.15504

  Beta  occ. eigenvalues --  -67.01917 -67.01917  -5.56832  -5.56832  -3.88068
  Beta  occ. eigenvalues --   -3.88068  -3.87821  -3.87821  -3.87821  -3.87821
  Beta  occ. eigenvalues --   -0.61186  -0.60970  -0.42178  -0.42177  -0.42141
  Beta  occ. eigenvalues --   -0.42140  -0.21259
  Beta virt. eigenvalues --   -0.11556   0.01977   0.02964   0.02964   0.03219
  Beta virt. eigenvalues --    0.04970   0.04970   0.06280   0.06652   0.07561
  Beta virt. eigenvalues --    0.07561   0.08445   0.08446   0.11262   0.15504

 Mulliken charges and spin densities:
               1          2
     1  Si   0.264125   0.000000
     2  Si   0.264125  -0.000000
     3  H   -0.088040  -0.000000
     4  H   -0.088042   0.000000
     5  H   -0.088043  -0.000000
     6  H   -0.088042  -0.000000
     7  H   -0.088040   0.000000
     8  H   -0.088043   0.000000
 Sum of Mulliken charges =  -0.00000   0.00000

 Dipole moment (field-independent basis, Debye):
    X=              0.0000    Y=             -0.0000    Z=              0.0000  Tot=              0.0000
 Quadrupole moment (field-independent basis, Debye-Ang):
   XX=            -27.8393   YY=            -32.2107   ZZ=            -32.2109
   XY=             -0.0007   XZ=              0.0000   YZ=              0.0000

 Normal termination of Gaussian 16 at Mon Apr 21 20:21:55 2025.
