 Gaussian 16, Revision A.03,
 Gaussian 16:  ES64L-G16RevA.03 25-Dec-2016

 --------------------------------------------
 #p opt UM062X/6-311+G** nosymm int=superfine
 --------------------------------------------

 -------------------
 Title Card Required
 -------------------
 Symbolic Z-matrix:
 Charge =  0 Multiplicity = 1

 SCF Done:  E(UM062X) =  -581.136968493     A.U. after    9 cycles
 SCF Done:  E(UM062X) =  -581.157362190     A.U. after    8 cycles
 SCF Done:  E(UM062X) =  -581.170450024     A.U. after    9 cycles
 SCF Done:  E(UM062X) =  -581.170470054     A.U. after    8 cycles
 Optimization completed.
    -- Stationary point found.

                          Input orientation:
 ---------------------------------------------------------------------
 Center     Atomic      Atomic             Coordinates (Angstroms)
 Number     Number       Type             X           Y           Z
 ---------------------------------------------------------------------
      1         14           0       -1.937518    0.000000    0.000000
      2         14           0        1.937518    0.000000    0.000000
      3          1           0       -3.008267   -1.080485    0.000424
      4          1           0        3.008267    1.080485   -0.000157
      5          1           0       -3.008273    1.080480    0.000670
      6          1           0        3.008273   -1.080479    0.001252
 ---------------------------------------------------------------------

 Alpha  occ. eigenvalues --  -67.00969 -67.00969  -5.55714  -5.55712  -3.86944
 Alpha  occ. eigenvalues --   -3.86944  -3.86407  -3.86407  -3.86279  -3.86279
 Alpha  occ. eigenvalues --   -0.57130  -0.56820  -0.37524  -0.37408  -0.30513
 Alpha  occ. eigenvalues --   -0.25637
 Alpha virt. eigenvalues --   -0.08582  -0.07044   0.02094   0.02098   0.03229
 Alpha virt. eigenvalues --    0.04551   0.05944   0.06198   0.06275   0.06324
 Alpha virt. eigenvalues --    0.09528   0.09687   0.11908   0.14261   0.28243

  Beta  occ. eigenvalues --  -67.00969 -67.00969  -5.55714  -5.55712  -3.86944
  Beta  occ. eigenvalues --   -3.86944  -3.86407  -3.86407  -3.86279  -3.86279
  Beta  occ. eigenvalues --   -0.57130  -0.56820  -0.37524  -0.37408  -0.30513
  Beta  occ. eigenvalues --   -0.25637
  Beta virt. eigenvalues --   -0.08582  -0.07044   0.02094   0.02098   0.03229
  Beta virt. eigenvalues --    0.04551   0.05944   0.06198   0.06275   0.06324
  Beta virt. eigenvalues --    0.09528   0.09687   0.11908   0.14261   0.28243

 Mulliken charges and spin densities:
               1          2
     1  Si   0.318372   0.000000
     2  Si   0.318372   0.000000
     3  H   -0.159186  -0.000000
     4  H   -0.159186   0.000000
     5  H   -0.159186   0.000000
     6  H   -0.159186   0.000000
 Sum of Mulliken charges =  -0.00000   0.00000

 Dipole moment (field-independent basis, Debye):
    X=              0.0000    Y=              0.0000    Z=              0.0001  Tot=              0.0001
 Quadrupole moment (field-independent basis, Debye-Ang):
   XX=            -37.3674   YY=            -32.8479   ZZ=            -24.4043
   XY=             -0.0000   XZ=              0.0000   YZ=              0.0023

 Normal termination of Gaussian 16 at Mon Apr 21 20:34:02 2025.
