 Gaussian 16, Revision A.03,
 Gaussian 16:  ES64L-G16RevA.03 25-Dec-2016

 --------------------------------------------
 #p opt UM062X/6-311+G** nosymm int=superfine
 --------------------------------------------

 -------------------
 Title Card Required
 -------------------
 Symbolic Z-matrix:
 Charge =  0 Multiplicity = 1

 SCF Done:  E(UM062X) =  -683.687582813     A.U. after   10 cycles
 SCF Done:  E(UM062X) =  -683.688735924     A.U. after   10 cycles
 SCF Done:  E(UM062X) =  -683.688965832     A.U. after   10 cycles
 SCF Done:  E(UM062X) =  -683.688965894     A.U. after    8 cycles
 Optimization completed.
    -- Stationary point found.

                          Input orientation:
 ---------------------------------------------------------------------
 Center     Atomic      Atomic             Coordinates (Angstroms)
 Number     Number       Type             X           Y           Z
 ---------------------------------------------------------------------
      1         15           0       -1.584490    0.000000    0.000000
      2         15           0        1.584490    0.000000    0.000000
      3          1           0       -1.517068   -1.420963    0.000000
      4          1           0        1.517068    1.420963    0.000000
 ---------------------------------------------------------------------

 Alpha  occ. eigenvalues --  -78.08233 -78.08233  -6.90186  -6.90185  -5.01612
 Alpha  occ. eigenvalues --   -5.01612  -5.01589  -5.01588  -5.01407  -5.01406
 Alpha  occ. eigenvalues --   -0.69574  -0.66881  -0.40740  -0.39953  -0.29161
 Alpha  occ. eigenvalues --   -0.25832
 Alpha virt. eigenvalues --   -0.14867  -0.10337   0.01965   0.03204   0.03798
 Alpha virt. eigenvalues --    0.04681   0.05131   0.05979   0.06643   0.08650
 Alpha virt. eigenvalues --    0.08664   0.12334   0.27733   0.29514   0.30376

  Beta  occ. eigenvalues --  -78.08233 -78.08233  -6.90186  -6.90185  -5.01612
  Beta  occ. eigenvalues --   -5.01612  -5.01589  -5.01588  -5.01407  -5.01406
  Beta  occ. eigenvalues --   -0.69574  -0.66881  -0.40740  -0.39953  -0.29161
  Beta  occ. eigenvalues --   -0.25832
  Beta virt. eigenvalues --   -0.14867  -0.10337   0.01965   0.03204   0.03798
  Beta virt. eigenvalues --    0.04681   0.05131   0.05979   0.06643   0.08650
  Beta virt. eigenvalues --    0.08664   0.12334   0.27733   0.29514   0.30376

 Mulliken charges and spin densities:
               1          2
     1  P    0.005555   0.000002
     2  P    0.005555  -0.000002
     3  H   -0.005555  -0.000000
     4  H   -0.005555   0.000000
 Sum of Mulliken charges =  -0.00000  -0.00000

 Dipole moment (field-independent basis, Debye):
    X=             -0.0000    Y=              0.0000    Z=              0.0000  Tot=              0.0000
 Quadrupole moment (field-independent basis, Debye-Ang):
   XX=            -27.4157   YY=            -28.2511   ZZ=            -30.6732
   XY=              2.7816   XZ=              0.0000   YZ=              0.0000

 Normal termination of Gaussian 16 at Mon Apr 21 21:09:38 2025.
