 Gaussian 16, Revision A.03,
 Gaussian 16:  ES64L-G16RevA.03 25-Dec-2016

 ---------------------------------------------------
 #p UM062X/6-311+G** force int=superfine pop=saveNBO
 ---------------------------------------------------

 -------------------
 Title Card Required
 -------------------
 Symbolic Z-matrix:
 Charge =  0 Multiplicity = 1

                         Standard orientation:
 ---------------------------------------------------------------------
 Center     Atomic      Atomic             Coordinates (Angstroms)
 Number     Number       Type             X           Y           Z
 ---------------------------------------------------------------------
      1         16           0        0.000000    0.000000    1.250200
      2         16           0        0.000000    0.000000   -1.250200
 ---------------------------------------------------------------------

 SCF Done:  E(UM062X) =  -796.216333617     A.U. after    9 cycles

 Unable to determine electronic state:  partially filled degenerate orbitals.
 Alpha  occ. eigenvalues --  -89.98550 -89.98550  -8.34261  -8.34257  -6.26320
 Alpha  occ. eigenvalues --   -6.26320  -6.26267  -6.26264  -6.25462  -6.25462
 Alpha  occ. eigenvalues --   -0.82511  -0.74254  -0.40526  -0.37230  -0.35460
 Alpha  occ. eigenvalues --   -0.31828
 Alpha virt. eigenvalues --   -0.19695  -0.11141   0.03151   0.04074   0.04886
 Alpha virt. eigenvalues --    0.05533   0.07349   0.07499   0.08018   0.14318
 Alpha virt. eigenvalues --    0.31539   0.32521   0.33598   0.35424   0.35993

  Beta  occ. eigenvalues --  -89.98550 -89.98550  -8.34261  -8.34257  -6.26320
  Beta  occ. eigenvalues --   -6.26320  -6.26267  -6.26264  -6.25462  -6.25462
  Beta  occ. eigenvalues --   -0.82511  -0.74254  -0.40526  -0.37230  -0.35460
  Beta  occ. eigenvalues --   -0.31828
  Beta virt. eigenvalues --   -0.19695  -0.11141   0.03151   0.04074   0.04886
  Beta virt. eigenvalues --    0.05533   0.07349   0.07499   0.08018   0.14318
  Beta virt. eigenvalues --    0.31539   0.32521   0.33598   0.35424   0.35993

 Mulliken charges and spin densities:
               1          2
     1  S   -0.000000   0.000000
     2  S    0.000000   0.000000
 Sum of Mulliken charges =  -0.00000   0.00000

 Dipole moment (field-independent basis, Debye):
    X=             -0.0000    Y=              0.0000    Z=              0.0000  Tot=              0.0000
 Quadrupole moment (field-independent basis, Debye-Ang):
   XX=            -24.9308   YY=            -29.8450   ZZ=            -23.6545
   XY=              0.0000   XZ=             -0.0000   YZ=              0.0000

 Summary of Natural Population Analysis:

                                       Natural Population
                Natural  -----------------------------------------------
    Atom  No    Charge         Core      Valence    Rydberg      Total
 -----------------------------------------------------------------------
      S    1    0.00000      4.99998     2.99582    0.00421     8.00000
      S    2    0.00000      4.99998     2.99582    0.00421     8.00000
 =======================================================================
   * Total *    0.00000      9.99995     5.99164    0.00841    16.00000

 Normal termination of Gaussian 16 at Mon Apr 21 20:02:57 2025.
