 Gaussian 16, Revision A.03,
 Gaussian 16:  ES64L-G16RevA.03 25-Dec-2016

 --------------------------------------------
 #p opt UM062X/6-311+G** nosymm int=superfine
 --------------------------------------------

 -------------------
 Title Card Required
 -------------------
 Symbolic Z-matrix:
 Charge =  0 Multiplicity = 1

 SCF Done:  E(UM062X) =  -379.614207902     A.U. after   14 cycles
 SCF Done:  E(UM062X) =  -379.615371786     A.U. after   10 cycles
 SCF Done:  E(UM062X) =  -379.615375512     A.U. after    9 cycles
 Optimization completed.
    -- Stationary point found.

                          Input orientation:
 ---------------------------------------------------------------------
 Center     Atomic      Atomic             Coordinates (Angstroms)
 Number     Number       Type             X           Y           Z
 ---------------------------------------------------------------------
      1          6           0       -1.490377    0.000000    0.000000
      2         15           0        1.490377    0.000000    0.000000
      3          1           0       -2.608061   -0.000000    0.000000
 ---------------------------------------------------------------------

 Alpha  occ. eigenvalues --  -78.08960 -10.70710  -6.90709  -5.02526  -5.01709
 Alpha  occ. eigenvalues --   -5.01709  -0.75614  -0.61649  -0.41766  -0.25251
 Alpha  occ. eigenvalues --   -0.25251
 Alpha virt. eigenvalues --   -0.13906  -0.13906  -0.10970   0.01340   0.03989
 Alpha virt. eigenvalues --    0.05881   0.05881   0.07489   0.09090   0.09090
 Alpha virt. eigenvalues --    0.14330   0.18469   0.32612   0.32775   0.32775

  Beta  occ. eigenvalues --  -78.08960 -10.70710  -6.90709  -5.02526  -5.01709
  Beta  occ. eigenvalues --   -5.01709  -0.75614  -0.61649  -0.41766  -0.25251
  Beta  occ. eigenvalues --   -0.25251
  Beta virt. eigenvalues --   -0.13906  -0.13906  -0.10970   0.01340   0.03989
  Beta virt. eigenvalues --    0.05881   0.05881   0.07489   0.09090   0.09090
  Beta virt. eigenvalues --    0.14330   0.18469   0.32612   0.32775   0.32775

 Mulliken charges and spin densities:
               1          2
     1  C   -0.212193   0.000003
     2  P    0.026693  -0.000003
     3  H    0.185500  -0.000000
 Sum of Mulliken charges =  -0.00000   0.00000

 Dipole moment (field-independent basis, Debye):
    X=             -1.8069    Y=             -0.0000    Z=             -0.0000  Tot=              1.8069
 Quadrupole moment (field-independent basis, Debye-Ang):
   XX=            -10.9898   YY=            -23.8825   ZZ=            -23.8825
   XY=             -0.0000   XZ=             -0.0000   YZ=             -0.0000

 Normal termination of Gaussian 16 at Mon Apr 21 19:29:21 2025.
