 Gaussian 16, Revision A.03,
 Gaussian 16:  ES64L-G16RevA.03 25-Dec-2016

 ---------------------------------------
 #p UM062X/6-311+G** force int=superfine
 ---------------------------------------

 -------------------
 Title Card Required
 -------------------
 Symbolic Z-matrix:
 Charge =  1 Multiplicity = 2

                         Standard orientation:
 ---------------------------------------------------------------------
 Center     Atomic      Atomic             Coordinates (Angstroms)
 Number     Number       Type             X           Y           Z
 ---------------------------------------------------------------------
      1          6           0        1.123191    0.914943   -1.594435
      2          6           0       -1.123192   -0.914939    1.594436
      3          1           0       -2.015649   -0.942109    0.980957
      4          1           0        0.936994    0.065895   -2.240976
      5          1           0       -0.937388   -0.066476    2.241860
      6          1           0       -0.450718   -1.764135    1.609078
      7          1           0        2.015622    0.942336   -0.980926
      8          1           0        0.451148    1.764465   -1.610000
 ---------------------------------------------------------------------

 SCF Done:  E(UM062X) =  -79.3146460220     A.U. after   10 cycles

 The electronic state is 2-A.
 Alpha  occ. eigenvalues --  -10.82961 -10.82960  -1.01576  -1.01362  -0.72680
 Alpha  occ. eigenvalues --   -0.72680  -0.72624  -0.72624  -0.46238
 Alpha virt. eigenvalues --   -0.37851  -0.12380  -0.10053  -0.09081  -0.09081
 Alpha virt. eigenvalues --   -0.06194  -0.06194  -0.04433  -0.02604   0.00512
 Alpha virt. eigenvalues --    0.00515   0.01511   0.01513   0.02321   0.09115

  Beta  occ. eigenvalues --  -10.82734 -10.82734  -0.98912  -0.98806  -0.72143
  Beta  occ. eigenvalues --   -0.72142  -0.72077  -0.72077
  Beta virt. eigenvalues --   -0.31636  -0.26684  -0.17112  -0.10352  -0.10351
  Beta virt. eigenvalues --   -0.10245  -0.06140  -0.06139  -0.05713  -0.01635
  Beta virt. eigenvalues --    0.00418   0.00421   0.01759   0.01761   0.02248

 Mulliken charges and spin densities:
               1          2
     1  C   -0.237798   0.558688
     2  C   -0.237796   0.558689
     3  H    0.245941  -0.019572
     4  H    0.245924  -0.019550
     5  H    0.245943  -0.019553
     6  H    0.245912  -0.019564
     7  H    0.245942  -0.019571
     8  H    0.245932  -0.019566
 Sum of Mulliken charges =   1.00000   1.00000

 Dipole moment (field-independent basis, Debye):
    X=              0.0000    Y=             -0.0000    Z=             -0.0000  Tot=              0.0000
 Quadrupole moment (field-independent basis, Debye-Ang):
   XX=             -5.2026   YY=             -7.1952   ZZ=              0.8002
   XY=              4.8209   XZ=             -8.4004   YZ=             -6.8417

 Normal termination of Gaussian 16 at Tue Nov 19 08:46:09 2024.
