 Gaussian 16, Revision A.03,
 Gaussian 16:  ES64L-G16RevA.03 25-Dec-2016

 --------------------------------------------
 #p opt UM062X/6-311+G** nosymm int=superfine
 --------------------------------------------

 -------------------
 Title Card Required
 -------------------
 Symbolic Z-matrix:
 Charge =  1 Multiplicity = 2

 SCF Done:  E(UM062X) =  -78.1029800246     A.U. after    9 cycles
 SCF Done:  E(UM062X) =  -78.1231908868     A.U. after    9 cycles
 SCF Done:  E(UM062X) =  -78.1289097363     A.U. after    8 cycles
 SCF Done:  E(UM062X) =  -78.1292531480     A.U. after    8 cycles
 SCF Done:  E(UM062X) =  -78.1292553031     A.U. after    6 cycles
 Optimization completed.
    -- Stationary point found.

                          Input orientation:
 ---------------------------------------------------------------------
 Center     Atomic      Atomic             Coordinates (Angstroms)
 Number     Number       Type             X           Y           Z
 ---------------------------------------------------------------------
      1          6           0       -0.876546    0.000000    0.000000
      2          6           0        0.876546    0.000000    0.000000
      3          1           0       -1.375953   -0.963017    0.000000
      4          1           0       -1.375976    0.962982    0.000000
      5          1           0        1.375953    0.963017   -0.000000
      6          1           0        1.375976   -0.962982   -0.000000
 ---------------------------------------------------------------------

 Alpha  occ. eigenvalues --  -10.91495 -10.91468  -1.10429  -0.99201  -0.81887
 Alpha  occ. eigenvalues --   -0.76024  -0.72548  -0.59929
 Alpha virt. eigenvalues --   -0.34143  -0.16389  -0.14414  -0.11363  -0.08849
 Alpha virt. eigenvalues --   -0.08080  -0.07418  -0.07280  -0.04686  -0.04488
 Alpha virt. eigenvalues --   -0.01685  -0.01471   0.02689   0.09759   0.18621

  Beta  occ. eigenvalues --  -10.91267 -10.91249  -1.07049  -0.97099  -0.81152
  Beta  occ. eigenvalues --   -0.75673  -0.71317
  Beta virt. eigenvalues --   -0.37779  -0.26041  -0.15989  -0.14800  -0.11727
  Beta virt. eigenvalues --   -0.08766  -0.08064  -0.07288  -0.07057  -0.04520
  Beta virt. eigenvalues --   -0.04021  -0.01269  -0.00858   0.02098   0.10315

 Mulliken charges and spin densities:
               1          2
     1  C   -0.062869   0.539895
     2  C   -0.062869   0.539895
     3  H    0.281435  -0.019948
     4  H    0.281434  -0.019947
     5  H    0.281435  -0.019948
     6  H    0.281434  -0.019947
 Sum of Mulliken charges =   1.00000   1.00000

 Dipole moment (field-independent basis, Debye):
    X=              0.0000    Y=              0.0000    Z=             -0.0000  Tot=              0.0000
 Quadrupole moment (field-independent basis, Debye-Ang):
   XX=             -3.7949   YY=             -8.3067   ZZ=            -12.1350
   XY=              0.0000   XZ=             -0.0000   YZ=             -0.0000

 Normal termination of Gaussian 16 at Tue Nov 19 11:10:52 2024.
