 Gaussian 16, Revision A.03,
 Gaussian 16:  ES64L-G16RevA.03 25-Dec-2016

 --------------------------------------------
 #p opt UM062X/6-311+G** nosymm int=superfine
 --------------------------------------------

 -------------------
 Title Card Required
 -------------------
 Symbolic Z-matrix:
 Charge =  0 Multiplicity = 1

 SCF Done:  E(UM062X) =  -151.324359720     A.U. after   22 cycles
 SCF Done:  E(UM062X) =  -151.325534428     A.U. after   27 cycles
 SCF Done:  E(UM062X) =  -151.328016040     A.U. after   19 cycles
 SCF Done:  E(UM062X) =  -151.328735298     A.U. after   21 cycles
 SCF Done:  E(UM062X) =  -151.328909784     A.U. after   22 cycles
 SCF Done:  E(UM062X) =  -151.328925133     A.U. after   19 cycles
 SCF Done:  E(UM062X) =  -151.328927126     A.U. after   17 cycles
 SCF Done:  E(UM062X) =  -151.328927375     A.U. after   16 cycles
 Optimization completed.
    -- Stationary point found.

                          Input orientation:
 ---------------------------------------------------------------------
 Center     Atomic      Atomic             Coordinates (Angstroms)
 Number     Number       Type             X           Y           Z
 ---------------------------------------------------------------------
      1          8           0       -1.611938    0.000000    0.000000
      2          8           0        1.611938    0.000000    0.000000
      3          1           0       -1.411015   -0.771214   -0.560170
      4          1           0        1.411144    0.770891    0.560662
 ---------------------------------------------------------------------

 Alpha  occ. eigenvalues --  -19.72663 -19.72661  -1.13181  -1.12740  -0.56968
 Alpha  occ. eigenvalues --   -0.56629  -0.44407  -0.44030  -0.37472
 Alpha virt. eigenvalues --   -0.25974   0.05179   0.08040   0.14805   0.15012
 Alpha virt. eigenvalues --    0.17640   0.18786   0.20436   0.21124   0.22017
 Alpha virt. eigenvalues --    0.31243   0.48606   0.52310   0.99620   1.00748

  Beta  occ. eigenvalues --  -19.72663 -19.72661  -1.13181  -1.12740  -0.56968
  Beta  occ. eigenvalues --   -0.56629  -0.44407  -0.44030  -0.37472
  Beta virt. eigenvalues --   -0.25974   0.05179   0.08040   0.14805   0.15012
  Beta virt. eigenvalues --    0.17640   0.18786   0.20436   0.21124   0.22017
  Beta virt. eigenvalues --    0.31243   0.48606   0.52310   0.99620   1.00748

 Mulliken charges and spin densities:
               1          2
     1  O   -0.268675   0.000000
     2  O   -0.268688  -0.000000
     3  H    0.268683   0.000000
     4  H    0.268680  -0.000000
 Sum of Mulliken charges =  -0.00000   0.00000

 Dipole moment (field-independent basis, Debye):
    X=              0.0002    Y=             -0.0007    Z=              0.0010  Tot=              0.0012
 Quadrupole moment (field-independent basis, Debye-Ang):
   XX=            -13.0621   YY=            -10.4543   ZZ=            -12.0144
   XY=              4.4865   XZ=              3.2609   YZ=              2.4037

 Normal termination of Gaussian 16 at Mon Apr 21 21:36:58 2025.
