 Gaussian 16, Revision A.03,
 Gaussian 16:  ES64L-G16RevA.03 25-Dec-2016

 --------------------------------------------
 #p opt UM062X/6-311+G** nosymm int=superfine
 --------------------------------------------

 -------------------
 Title Card Required
 -------------------
 Symbolic Z-matrix:
 Charge =  0 Multiplicity = 1

 SCF Done:  E(UM062X) =  -111.765845502     A.U. after   12 cycles
 SCF Done:  E(UM062X) =  -111.782696317     A.U. after   13 cycles
 SCF Done:  E(UM062X) =  -111.786424266     A.U. after   13 cycles
 SCF Done:  E(UM062X) =  -111.787238765     A.U. after   11 cycles
 SCF Done:  E(UM062X) =  -111.788486966     A.U. after   13 cycles
 SCF Done:  E(UM062X) =  -111.788674256     A.U. after   11 cycles
 SCF Done:  E(UM062X) =  -111.788726740     A.U. after   10 cycles
 SCF Done:  E(UM062X) =  -111.788727944     A.U. after    9 cycles
 SCF Done:  E(UM062X) =  -111.788728111     A.U. after    8 cycles
 Optimization completed.
    -- Stationary point found.

                          Input orientation:
 ---------------------------------------------------------------------
 Center     Atomic      Atomic             Coordinates (Angstroms)
 Number     Number       Type             X           Y           Z
 ---------------------------------------------------------------------
      1          7           0       -0.986540    0.000000    0.000000
      2          7           0        0.986540    0.000000    0.000000
      3          1           0       -1.056378   -0.815564   -0.612879
      4          1           0        1.056475    0.410229   -0.934065
      5          1           0       -1.056399   -0.409922    0.934205
      6          1           0        1.056309    0.815365    0.613155
 ---------------------------------------------------------------------

 Alpha  occ. eigenvalues --  -14.78507 -14.78500  -0.97933  -0.90074  -0.56337
 Alpha  occ. eigenvalues --   -0.51535  -0.41758  -0.41354  -0.33650
 Alpha virt. eigenvalues --   -0.02641   0.04532   0.08118   0.08848   0.12052
 Alpha virt. eigenvalues --    0.13362   0.13533   0.15550   0.16096   0.21541
 Alpha virt. eigenvalues --    0.22768   0.26917   0.28107   0.51587   0.52302

  Beta  occ. eigenvalues --  -14.78507 -14.78500  -0.97933  -0.90074  -0.56337
  Beta  occ. eigenvalues --   -0.51535  -0.41758  -0.41354  -0.33650
  Beta virt. eigenvalues --   -0.02641   0.04532   0.08118   0.08848   0.12052
  Beta virt. eigenvalues --    0.13362   0.13533   0.15550   0.16096   0.21541
  Beta virt. eigenvalues --    0.22768   0.26917   0.28107   0.51587   0.52302

 Mulliken charges and spin densities:
               1          2
     1  N   -0.522207   0.000000
     2  N   -0.522207   0.000000
     3  H    0.261113  -0.000000
     4  H    0.261116  -0.000000
     5  H    0.261094  -0.000000
     6  H    0.261091  -0.000000
 Sum of Mulliken charges =  -0.00000   0.00000

 Dipole moment (field-independent basis, Debye):
    X=              0.0000    Y=              0.0001    Z=              0.0006  Tot=              0.0006
 Quadrupole moment (field-independent basis, Debye-Ang):
   XX=            -15.2843   YY=            -13.9780   ZZ=            -11.1808
   XY=              4.8681   XZ=             -1.2759   YZ=              0.7870

 Normal termination of Gaussian 16 at Thu May 15 14:28:19 2025.
