 Gaussian 16, Revision A.03,
 Gaussian 16:  ES64L-G16RevA.03 25-Dec-2016

 ---------------------------------------
 #p UM062X/6-311+G** force int=superfine
 ---------------------------------------

 -------------------
 Title Card Required
 -------------------
 Symbolic Z-matrix:
 Charge =  1 Multiplicity = 2

                         Standard orientation:
 ---------------------------------------------------------------------
 Center     Atomic      Atomic             Coordinates (Angstroms)
 Number     Number       Type             X           Y           Z
 ---------------------------------------------------------------------
      1          6           0        0.000000    0.000000    0.385232
      2          6           0        0.000000    0.000000   -0.385232
      3          1           0        0.000000    0.000000    1.449289
      4          1           0        0.000000    0.000000   -1.449287
 ---------------------------------------------------------------------

 SCF Done:  E(UM062X) =  -75.8450087155     A.U. after   11 cycles

 Unable to determine electronic state:  partially filled degenerate orbitals.
 Alpha  occ. eigenvalues --  -10.98210 -10.88089  -1.32871  -0.94740  -0.93248
 Alpha  occ. eigenvalues --   -0.91951  -0.90322
 Alpha virt. eigenvalues --   -0.15122  -0.13466  -0.13183  -0.12519  -0.12361
 Alpha virt. eigenvalues --   -0.12111  -0.11601  -0.00598  -0.00123   0.00542
 Alpha virt. eigenvalues --    0.02829   0.03456   0.17348   0.21835   0.22850

  Beta  occ. eigenvalues --  -10.97537 -10.87630  -1.25525  -0.91725  -0.90812
  Beta  occ. eigenvalues --   -0.87442
  Beta virt. eigenvalues --   -0.59967  -0.15451  -0.12908  -0.12511  -0.12162
  Beta virt. eigenvalues --   -0.11878  -0.11655  -0.11494   0.00063   0.01187
  Beta virt. eigenvalues --    0.02233   0.03438   0.04031   0.17586   0.20907

 Mulliken charges and spin densities:
               1          2
     1  C    0.270401   0.525528
     2  C    0.270397   0.525528
     3  H    0.229602  -0.025528
     4  H    0.229600  -0.025528
 Sum of Mulliken charges =   1.00000   1.00000

 Dipole moment (field-independent basis, Debye):
    X=              0.0000    Y=              0.0000    Z=              0.0000  Tot=              0.0000
 Quadrupole moment (field-independent basis, Debye-Ang):
   XX=             -9.3844   YY=             -8.1115   ZZ=             -3.1544
   XY=              0.0000   XZ=              0.0000   YZ=              0.0000

 Normal termination of Gaussian 16 at Tue Nov 19 13:23:33 2024.
