 Gaussian 16, Revision A.03,
 Gaussian 16:  ES64L-G16RevA.03 25-Dec-2016

 --------------------------------------------
 #p opt UM062X/6-311+G** nosymm int=superfine
 --------------------------------------------

 -------------------
 Title Card Required
 -------------------
 Symbolic Z-matrix:
 Charge =  0 Multiplicity = 1

 SCF Done:  E(UM062X) =  -95.6556712853     A.U. after   13 cycles
 SCF Done:  E(UM062X) =  -95.6729754045     A.U. after   11 cycles
 SCF Done:  E(UM062X) =  -95.6819852597     A.U. after   11 cycles
 SCF Done:  E(UM062X) =  -95.6821125060     A.U. after   10 cycles
 SCF Done:  E(UM062X) =  -95.6821321275     A.U. after    9 cycles
 SCF Done:  E(UM062X) =  -95.6821432635     A.U. after   10 cycles
 SCF Done:  E(UM062X) =  -95.6821445730     A.U. after    9 cycles
 SCF Done:  E(UM062X) =  -95.6821448005     A.U. after    8 cycles
 Optimization completed.
    -- Stationary point found.

                          Input orientation:
 ---------------------------------------------------------------------
 Center     Atomic      Atomic             Coordinates (Angstroms)
 Number     Number       Type             X           Y           Z
 ---------------------------------------------------------------------
      1          6           0       -1.330542    0.000000    0.000000
      2          7           0        1.330542    0.000000    0.000000
      3          1           0        1.348033   -1.015593    0.136959
      4          1           0       -1.420497    1.076540    0.002877
      5          1           0        1.347926    0.368800    0.956127
      6          1           0       -1.420477   -0.518104   -0.943672
      7          1           0       -1.521570   -0.543173    0.915073
 ---------------------------------------------------------------------

 Alpha  occ. eigenvalues --  -14.75124 -10.60724  -0.90405  -0.79397  -0.51688
 Alpha  occ. eigenvalues --   -0.51510  -0.50322  -0.36082  -0.29003
 Alpha virt. eigenvalues --   -0.08297   0.01623   0.04950   0.05502   0.06773
 Alpha virt. eigenvalues --    0.10458   0.13427   0.15992   0.16643   0.17736
 Alpha virt. eigenvalues --    0.20049   0.21774   0.22221   0.31402   0.41441

  Beta  occ. eigenvalues --  -14.75124 -10.60724  -0.90405  -0.79397  -0.51688
  Beta  occ. eigenvalues --   -0.51510  -0.50322  -0.36082  -0.29003
  Beta virt. eigenvalues --   -0.08297   0.01623   0.04950   0.05502   0.06773
  Beta virt. eigenvalues --    0.10458   0.13427   0.15992   0.16643   0.17736
  Beta virt. eigenvalues --    0.20049   0.21774   0.22221   0.31402   0.41441

 Mulliken charges and spin densities:
               1          2
     1  C   -0.427409   0.000003
     2  N   -0.595312  -0.000003
     3  H    0.225780   0.000000
     4  H    0.195780  -0.000000
     5  H    0.225774   0.000000
     6  H    0.195822  -0.000000
     7  H    0.179565  -0.000000
 Sum of Mulliken charges =  -0.00000   0.00000

 Dipole moment (field-independent basis, Debye):
    X=             -2.3957    Y=             -0.9453    Z=              1.5976  Tot=              3.0307
 Quadrupole moment (field-independent basis, Debye-Ang):
   XX=            -15.2225   YY=            -13.3195   ZZ=            -14.1381
   XY=             -1.4646   XZ=              2.4751   YZ=              0.7454

 Normal termination of Gaussian 16 at Mon Apr 21 18:13:07 2025.
