 Gaussian 16, Revision A.03,
 Gaussian 16:  ES64L-G16RevA.03 25-Dec-2016

 --------------------------------------------
 #p opt UM062X/6-311+G** nosymm int=superfine
 --------------------------------------------

 -------------------
 Title Card Required
 -------------------
 Symbolic Z-matrix:
 Charge =  0 Multiplicity = 2

 SCF Done:  E(UM062X) =  -75.7264685880     A.U. after   12 cycles
 SCF Done:  E(UM062X) =  -75.7265269229     A.U. after    8 cycles
 Optimization completed.
    -- Stationary point found.

                          Input orientation:
 ---------------------------------------------------------------------
 Center     Atomic      Atomic             Coordinates (Angstroms)
 Number     Number       Type             X           Y           Z
 ---------------------------------------------------------------------
      1          8           0       -0.711185    0.003749    0.000000
      2          1           0       -0.902475   -0.949031    0.000000
 ---------------------------------------------------------------------

 Alpha  occ. eigenvalues --  -19.69503  -1.14856  -0.56785  -0.50633  -0.44206
 Alpha virt. eigenvalues --    0.06788   0.16661   0.17067   0.17221   0.20932
 Alpha virt. eigenvalues --    0.50055   1.00021   1.00521   1.04205   1.26663
 Alpha virt. eigenvalues --    1.35632   1.36996   2.01682   2.44802   2.81794

  Beta  occ. eigenvalues --  -19.67889  -1.06521  -0.53499  -0.40515
  Beta virt. eigenvalues --   -0.10729   0.06838   0.16791   0.17673   0.17815
  Beta virt. eigenvalues --    0.20102   0.51100   1.01244   1.05288   1.05477
  Beta virt. eigenvalues --    1.29193   1.37051   1.37484   2.03315   2.44824

 Mulliken charges and spin densities:
               1          2
     1  O   -0.251746   1.025518
     2  H    0.251746  -0.025518
 Sum of Mulliken charges =  -0.00000   1.00000

 Dipole moment (field-independent basis, Debye):
    X=             -0.3653    Y=             -1.8193    Z=             -0.0000  Tot=              1.8556
 Quadrupole moment (field-independent basis, Debye-Ang):
   XX=             -6.2422   YY=             -4.4370   ZZ=             -5.5163
   XY=              1.7817   XZ=              0.0000   YZ=             -0.0000

 1\1\GINC-NODE02\FOpt\UM062X\6-311+G(d,p)\H1O1(2)\SZHAO\16-Apr-2025\0\\
 #p opt UM062X/6-311+G** nosymm int=superfine\\Title Card Required\\0,2
 \O,-0.711185096,0.0037490892,0.\H,-0.902474644,-0.9490312892,0.\\Versi
 on=ES64L-G16RevA.03\HF=-75.7265269\S2=0.752706\S2-1=0.\S2A=0.750005\RM
 SD=7.051e-09\RMSF=1.428e-04\Dipole=-0.1437076,-0.7157791,0.\Quadrupole
 =-0.627273,0.7148422,-0.0875691,1.3246551,0.,0.\PG=C*V [C*(H1O1)]\\@

 Normal termination of Gaussian 16 at Wed Apr 16 08:43:49 2025.
