 Gaussian 16, Revision A.03,
 Gaussian 16:  ES64L-G16RevA.03 25-Dec-2016

 ---------------------------------------------------
 #p UM062X/6-311+G** force int=superfine pop=saveNBO
 ---------------------------------------------------

 -------------------
 Title Card Required
 -------------------
 Symbolic Z-matrix:
 Charge =  0 Multiplicity = 1

                         Standard orientation:
 ---------------------------------------------------------------------
 Center     Atomic      Atomic             Coordinates (Angstroms)
 Number     Number       Type             X           Y           Z
 ---------------------------------------------------------------------
      1         16           0        0.000000    0.000000    1.900200
      2         16           0        0.000000    0.000000   -1.900200
 ---------------------------------------------------------------------

 SCF Done:  E(UM062X) =  -796.045464808     A.U. after    9 cycles

 Unable to determine electronic state:  partially filled degenerate orbitals.
 Alpha  occ. eigenvalues --  -89.98914 -89.98914  -8.34690  -8.34690  -6.26720
 Alpha  occ. eigenvalues --   -6.26720  -6.26701  -6.26701  -6.25873  -6.25873
 Alpha  occ. eigenvalues --   -0.78290  -0.77378  -0.35005  -0.34390  -0.33084
 Alpha  occ. eigenvalues --   -0.31419
 Alpha virt. eigenvalues --   -0.23556  -0.21838   0.03009   0.03818   0.04769
 Alpha virt. eigenvalues --    0.05226   0.07099   0.07387   0.07552   0.12567
 Alpha virt. eigenvalues --    0.31881   0.32145   0.33006   0.35384   0.36051

  Beta  occ. eigenvalues --  -89.98914 -89.98914  -8.34690  -8.34690  -6.26720
  Beta  occ. eigenvalues --   -6.26720  -6.26701  -6.26701  -6.25873  -6.25873
  Beta  occ. eigenvalues --   -0.78290  -0.77378  -0.35005  -0.34390  -0.33084
  Beta  occ. eigenvalues --   -0.31419
  Beta virt. eigenvalues --   -0.23556  -0.21838   0.03009   0.03818   0.04769
  Beta virt. eigenvalues --    0.05226   0.07099   0.07387   0.07552   0.12567
  Beta virt. eigenvalues --    0.31881   0.32145   0.33006   0.35384   0.36051

 Mulliken charges and spin densities:
               1          2
     1  S   -0.000000   0.000000
     2  S   -0.000000   0.000000
 Sum of Mulliken charges =  -0.00000   0.00000

 Dipole moment (field-independent basis, Debye):
    X=              0.0000    Y=             -0.0000    Z=              0.0000  Tot=              0.0000
 Quadrupole moment (field-independent basis, Debye-Ang):
   XX=            -30.3941   YY=            -25.4023   ZZ=            -22.5446
   XY=              0.0000   XZ=             -0.0000   YZ=              0.0000

 Summary of Natural Population Analysis:

                                       Natural Population
                Natural  -----------------------------------------------
    Atom  No    Charge         Core      Valence    Rydberg      Total
 -----------------------------------------------------------------------
      S    1    0.00000      5.00000     2.99924    0.00077     8.00000
      S    2    0.00000      5.00000     2.99924    0.00077     8.00000
 =======================================================================
   * Total *    0.00000      9.99999     5.99847    0.00154    16.00000

 Normal termination of Gaussian 16 at Mon Apr 21 20:08:22 2025.
