 Gaussian 16, Revision A.03,
 Gaussian 16:  ES64L-G16RevA.03 25-Dec-2016

 --------------------------------------------
 #p opt UM062X/6-311+G** nosymm int=superfine
 --------------------------------------------

 -------------------
 Title Card Required
 -------------------
 Symbolic Z-matrix:
 Charge =  0 Multiplicity = 1

 SCF Done:  E(UM062X) =  -83.1852246931     A.U. after   10 cycles
 SCF Done:  E(UM062X) =  -83.1858815218     A.U. after    8 cycles
 SCF Done:  E(UM062X) =  -83.1858943884     A.U. after    7 cycles
 SCF Done:  E(UM062X) =  -83.1858951399     A.U. after    6 cycles
 Optimization completed.
    -- Stationary point found.

                          Input orientation:
 ---------------------------------------------------------------------
 Center     Atomic      Atomic             Coordinates (Angstroms)
 Number     Number       Type             X           Y           Z
 ---------------------------------------------------------------------
      1          5           0       -0.902429    0.000000    0.000000
      2          7           0        0.902429    0.000000    0.000000
      3          1           0        1.253048   -0.952358   -0.000004
      4          1           0       -1.161923   -0.587298    1.017235
      5          1           0        1.252967    0.476224   -0.824777
      6          1           0        1.252962    0.476216    0.824784
      7          1           0       -1.161898    1.174607    0.000009
      8          1           0       -1.161925   -0.587283   -1.017242
 ---------------------------------------------------------------------

 Alpha  occ. eigenvalues --  -14.81244  -6.97696  -1.04048  -0.61319  -0.61318
 Alpha  occ. eigenvalues --   -0.57447  -0.41296  -0.34304  -0.34304
 Alpha virt. eigenvalues --   -0.01154   0.04344   0.04344   0.04887   0.08366
 Alpha virt. eigenvalues --    0.10994   0.10994   0.14700   0.15277   0.15277
 Alpha virt. eigenvalues --    0.18387   0.21124   0.21124   0.25151   0.31467

  Beta  occ. eigenvalues --  -14.81244  -6.97696  -1.04048  -0.61319  -0.61318
  Beta  occ. eigenvalues --   -0.57447  -0.41296  -0.34304  -0.34304
  Beta virt. eigenvalues --   -0.01154   0.04344   0.04344   0.04887   0.08366
  Beta virt. eigenvalues --    0.10994   0.10994   0.14700   0.15277   0.15277
  Beta virt. eigenvalues --    0.18387   0.21124   0.21124   0.25151   0.31467

 Mulliken charges and spin densities:
               1          2
     1  B   -0.168234   0.000000
     2  N   -0.596924  -0.000000
     3  H    0.302100   0.000000
     4  H   -0.047049   0.000000
     5  H    0.302104   0.000000
     6  H    0.302104   0.000000
     7  H   -0.047052   0.000000
     8  H   -0.047049   0.000000
 Sum of Mulliken charges =  -0.00000   0.00000

 Dipole moment (field-independent basis, Debye):
    X=              5.0408    Y=              0.0001    Z=              0.0000  Tot=              5.0408
 Quadrupole moment (field-independent basis, Debye-Ang):
   XX=            -15.3213   YY=            -16.1274   ZZ=            -16.1274
   XY=             -0.0000   XZ=             -0.0000   YZ=              0.0000

 Normal termination of Gaussian 16 at Mon Apr 21 17:35:21 2025.
