 Gaussian 16, Revision A.03,
 Gaussian 16:  ES64L-G16RevA.03 25-Dec-2016

 --------------------------------------------
 #p opt UM062X/6-311+G** nosymm int=superfine
 --------------------------------------------

 -------------------
 Title Card Required
 -------------------
 Symbolic Z-matrix:
 Charge =  0 Multiplicity = 1

 SCF Done:  E(UM062X) =  -381.002312399     A.U. after   15 cycles
 SCF Done:  E(UM062X) =  -381.004288161     A.U. after   14 cycles
 SCF Done:  E(UM062X) =  -381.004610415     A.U. after   14 cycles
 SCF Done:  E(UM062X) =  -381.004140692     A.U. after   17 cycles
 SCF Done:  E(UM062X) =  -381.004651309     A.U. after   15 cycles
 SCF Done:  E(UM062X) =  -381.004573864     A.U. after   15 cycles
 SCF Done:  E(UM062X) =  -381.004679169     A.U. after   16 cycles
 SCF Done:  E(UM062X) =  -381.004683423     A.U. after   12 cycles
 SCF Done:  E(UM062X) =  -381.004683982     A.U. after   12 cycles
 SCF Done:  E(UM062X) =  -381.004684292     A.U. after    9 cycles
 Optimization completed.
    -- Stationary point found.

                          Input orientation:
 ---------------------------------------------------------------------
 Center     Atomic      Atomic             Coordinates (Angstroms)
 Number     Number       Type             X           Y           Z
 ---------------------------------------------------------------------
      1          6           0       -1.330452    0.000000    0.000000
      2         15           0        1.330452    0.000000    0.000000
      3          1           0       -1.882311   -0.937798    0.002957
      4          1           0        1.223249   -1.417290    0.004470
      5          1           0       -1.874260    0.941843   -0.002963
 ---------------------------------------------------------------------

 Alpha  occ. eigenvalues --  -78.06272 -10.63872  -6.88182  -4.99798  -4.99429
 Alpha  occ. eigenvalues --   -4.99384  -0.76944  -0.66318  -0.52203  -0.38937
 Alpha  occ. eigenvalues --   -0.33622  -0.25117
 Alpha virt. eigenvalues --   -0.11231  -0.06681   0.02124   0.04262   0.04606
 Alpha virt. eigenvalues --    0.05863   0.06601   0.07103   0.09871   0.10985
 Alpha virt. eigenvalues --    0.13997   0.18585   0.19752   0.30396   0.32232

  Beta  occ. eigenvalues --  -78.06272 -10.63872  -6.88182  -4.99798  -4.99429
  Beta  occ. eigenvalues --   -4.99384  -0.76944  -0.66318  -0.52203  -0.38937
  Beta  occ. eigenvalues --   -0.33622  -0.25117
  Beta virt. eigenvalues --   -0.11231  -0.06681   0.02124   0.04262   0.04606
  Beta virt. eigenvalues --    0.05863   0.06601   0.07103   0.09872   0.10985
  Beta virt. eigenvalues --    0.13997   0.18585   0.19752   0.30396   0.32232

 Mulliken charges and spin densities:
               1          2
     1  C   -0.430799  -0.000002
     2  P    0.080363   0.000002
     3  H    0.183274   0.000000
     4  H   -0.016651  -0.000000
     5  H    0.183814   0.000000
 Sum of Mulliken charges =  -0.00000   0.00000

 Dipole moment (field-independent basis, Debye):
    X=             -1.3299    Y=             -0.6042    Z=              0.0019  Tot=              1.4607
 Quadrupole moment (field-independent basis, Debye-Ang):
   XX=            -16.9429   YY=            -20.5305   ZZ=            -25.0259
   XY=             -1.2711   XZ=              0.0040   YZ=             -0.0142

 Normal termination of Gaussian 16 at Mon Apr 21 19:16:00 2025.
