 Gaussian 16, Revision A.03,
 Gaussian 16:  ES64L-G16RevA.03 25-Dec-2016

 --------------------------------------------
 #p opt UM062X/6-311+G** nosymm int=superfine
 --------------------------------------------

 -------------------
 Title Card Required
 -------------------
 Symbolic Z-matrix:
 Charge =  1 Multiplicity = 2

 SCF Done:  E(UM062X) =  -78.0630749754     A.U. after    9 cycles
 SCF Done:  E(UM062X) =  -78.0903308031     A.U. after    9 cycles
 SCF Done:  E(UM062X) =  -78.1037497016     A.U. after    9 cycles
 SCF Done:  E(UM062X) =  -78.1048023429     A.U. after    8 cycles
 SCF Done:  E(UM062X) =  -78.1048195806     A.U. after    7 cycles
 Optimization completed.
    -- Stationary point found.

                          Input orientation:
 ---------------------------------------------------------------------
 Center     Atomic      Atomic             Coordinates (Angstroms)
 Number     Number       Type             X           Y           Z
 ---------------------------------------------------------------------
      1          6           0       -0.926029    0.000000    0.000000
      2          6           0        0.926029    0.000000    0.000000
      3          1           0       -1.411010   -0.970217    0.000000
      4          1           0       -1.411044    0.970142    0.000000
      5          1           0        1.411010    0.970217   -0.000000
      6          1           0        1.411044   -0.970142   -0.000000
 ---------------------------------------------------------------------

 Alpha  occ. eigenvalues --  -10.91820 -10.91799  -1.08912  -0.99551  -0.81391
 Alpha  occ. eigenvalues --   -0.76639  -0.70584  -0.58495
 Alpha virt. eigenvalues --   -0.35094  -0.19211  -0.14318  -0.11208  -0.09291
 Alpha virt. eigenvalues --   -0.08671  -0.07359  -0.07331  -0.04724  -0.04375
 Alpha virt. eigenvalues --   -0.02066  -0.01146   0.02439   0.09586   0.18306

  Beta  occ. eigenvalues --  -10.91590 -10.91576  -1.05650  -0.97398  -0.80739
  Beta  occ. eigenvalues --   -0.76288  -0.69235
  Beta virt. eigenvalues --   -0.36856  -0.26766  -0.16975  -0.15802  -0.11579
  Beta virt. eigenvalues --   -0.08895  -0.08399  -0.07896  -0.07335  -0.04407
  Beta virt. eigenvalues --   -0.04002  -0.01655  -0.00532   0.01751   0.10197

 Mulliken charges and spin densities:
               1          2
     1  C   -0.064869   0.540462
     2  C   -0.064869   0.540462
     3  H    0.282436  -0.020232
     4  H    0.282433  -0.020230
     5  H    0.282436  -0.020232
     6  H    0.282433  -0.020230
 Sum of Mulliken charges =   1.00000   1.00000

 Dipole moment (field-independent basis, Debye):
    X=             -0.0000    Y=              0.0000    Z=              0.0000  Tot=              0.0000
 Quadrupole moment (field-independent basis, Debye-Ang):
   XX=             -3.1931   YY=             -8.2487   ZZ=            -12.2837
   XY=              0.0001   XZ=             -0.0000   YZ=             -0.0000

 Normal termination of Gaussian 16 at Tue Nov 19 11:14:33 2024.
