 Gaussian 16, Revision A.03,
 Gaussian 16:  ES64L-G16RevA.03 25-Dec-2016

 --------------------------------------------
 #p opt UM062X/6-311+G** nosymm int=superfine
 --------------------------------------------

 -------------------
 Title Card Required
 -------------------
 Symbolic Z-matrix:
 Charge =  1 Multiplicity = 2

 SCF Done:  E(UM062X) =  -582.154750230     A.U. after   11 cycles
 SCF Done:  E(UM062X) =  -582.155185994     A.U. after    9 cycles
 SCF Done:  E(UM062X) =  -582.155238822     A.U. after    8 cycles
 Optimization completed.
    -- Stationary point found.

                          Input orientation:
 ---------------------------------------------------------------------
 Center     Atomic      Atomic             Coordinates (Angstroms)
 Number     Number       Type             X           Y           Z
 ---------------------------------------------------------------------
      1         14           0       -1.876292    0.000000    0.000000
      2         14           0        1.876292    0.000000    0.000000
      3          1           0        2.021861   -1.457642    0.000000
      4          1           0       -2.021413   -0.728722    1.262457
      5          1           0        2.021912    0.728866   -1.262315
      6          1           0        2.021240    0.728813    1.262425
      7          1           0       -2.021886    1.457639   -0.000109
      8          1           0       -2.021714   -0.728963   -1.262283
 ---------------------------------------------------------------------

 Alpha  occ. eigenvalues --  -67.23341 -67.23341  -5.78166  -5.78165  -4.09845
 Alpha  occ. eigenvalues --   -4.09845  -4.09039  -4.09039  -4.09039  -4.09039
 Alpha  occ. eigenvalues --   -0.82353  -0.81204  -0.62378  -0.62377  -0.61976
 Alpha  occ. eigenvalues --   -0.61976  -0.44731
 Alpha virt. eigenvalues --   -0.27830  -0.13613  -0.12029  -0.10725  -0.10723
 Alpha virt. eigenvalues --   -0.09892  -0.09464  -0.09463  -0.08040  -0.08038
 Alpha virt. eigenvalues --   -0.07843  -0.06377  -0.06374  -0.04214   0.00829

  Beta  occ. eigenvalues --  -67.23082 -67.23082  -5.78093  -5.78090  -4.09230
  Beta  occ. eigenvalues --   -4.09230  -4.08951  -4.08951  -4.08951  -4.08951
  Beta  occ. eigenvalues --   -0.80352  -0.79700  -0.62165  -0.62165  -0.61792
  Beta  occ. eigenvalues --   -0.61792
  Beta virt. eigenvalues --   -0.29931  -0.21972  -0.14386  -0.12309  -0.12308
  Beta virt. eigenvalues --   -0.11025  -0.10103  -0.09850  -0.09849  -0.07542
  Beta virt. eigenvalues --   -0.07541  -0.06797  -0.06100  -0.06100  -0.04432

 Mulliken charges and spin densities:
               1          2
     1  Si   0.497604   0.550469
     2  Si   0.497604   0.550469
     3  H    0.000799  -0.016836
     4  H    0.000794  -0.016817
     5  H    0.000807  -0.016819
     6  H    0.000790  -0.016815
     7  H    0.000799  -0.016836
     8  H    0.000802  -0.016817
 Sum of Mulliken charges =   1.00000   1.00000

 Dipole moment (field-independent basis, Debye):
    X=              0.0000    Y=             -0.0000    Z=              0.0000  Tot=              0.0000
 Quadrupole moment (field-independent basis, Debye-Ang):
   XX=             -3.7574   YY=            -26.0637   ZZ=            -26.0636
   XY=              0.0002   XZ=              0.0001   YZ=              0.0000

 Normal termination of Gaussian 16 at Mon Apr 21 20:10:30 2025.
