 Gaussian 16, Revision A.03,
 Gaussian 16:  ES64L-G16RevA.03 25-Dec-2016

 ---------------------------------------
 #p UM062X/6-311+G** force int=superfine
 ---------------------------------------

 -------------------
 Title Card Required
 -------------------
 Symbolic Z-matrix:
 Charge =  1 Multiplicity = 2

                         Standard orientation:
 ---------------------------------------------------------------------
 Center     Atomic      Atomic             Coordinates (Angstroms)
 Number     Number       Type             X           Y           Z
 ---------------------------------------------------------------------
      1          6           0       -0.000000    0.000000    0.869878
      2          6           0       -0.000000    0.000000   -0.869882
      3          1           0        0.000000    0.000000    1.967765
      4          1           0        0.000000    0.000000   -1.967744
 ---------------------------------------------------------------------

 SCF Done:  E(UM062X) =  -76.7098487989     A.U. after   10 cycles

 Unable to determine electronic state:  an orbital has unidentified symmetry.
 Alpha  occ. eigenvalues --  -11.00289 -11.00257  -1.09334  -0.99345  -0.83491
 Alpha  occ. eigenvalues --   -0.62868  -0.60781
 Alpha virt. eigenvalues --   -0.36915  -0.34929  -0.29693  -0.14168  -0.11447
 Alpha virt. eigenvalues --   -0.10449  -0.08988  -0.08755  -0.05334  -0.05028
 Alpha virt. eigenvalues --    0.01182   0.03621   0.07095   0.22972   0.31342

  Beta  occ. eigenvalues --  -11.00035 -11.00013  -1.05609  -0.97551  -0.82555
  Beta  occ. eigenvalues --   -0.58848
  Beta virt. eigenvalues --   -0.40353  -0.33202  -0.28615  -0.27601  -0.15178
  Beta virt. eigenvalues --   -0.11771  -0.10935  -0.09362  -0.09197  -0.05302
  Beta virt. eigenvalues --   -0.05028   0.00259   0.03718   0.07352   0.23590

 Mulliken charges and spin densities:
               1          2
     1  C    0.134385   0.522064
     2  C    0.134382   0.522078
     3  H    0.365622  -0.022071
     4  H    0.365612  -0.022070
 Sum of Mulliken charges =   1.00000   1.00000

 Dipole moment (field-independent basis, Debye):
    X=              0.0000    Y=              0.0000    Z=              0.0001  Tot=              0.0001
 Quadrupole moment (field-independent basis, Debye-Ang):
   XX=            -12.8724   YY=            -10.7693   ZZ=              3.5823
   XY=             -0.0000   XZ=              0.0000   YZ=              0.0000

 Normal termination of Gaussian 16 at Tue Nov 19 13:38:14 2024.
