 Gaussian 16, Revision A.03,
 Gaussian 16:  ES64L-G16RevA.03 25-Dec-2016

 --------------------------------------------
 #p opt UM062X/6-311+G** nosymm int=superfine
 --------------------------------------------

 -------------------
 Title Card Required
 -------------------
 Symbolic Z-matrix:
 Charge =  1 Multiplicity = 2

 SCF Done:  E(UM062X) =  -80.3701979137     A.U. after   12 cycles
 SCF Done:  E(UM062X) =  -80.3702024501     A.U. after    9 cycles
 SCF Done:  E(UM062X) =  -80.3702013710     A.U. after    8 cycles
 SCF Done:  E(UM062X) =  -80.3702023061     A.U. after    9 cycles
 Optimization completed.
    -- Stationary point found.

                          Input orientation:
 ---------------------------------------------------------------------
 Center     Atomic      Atomic             Coordinates (Angstroms)
 Number     Number       Type             X           Y           Z
 ---------------------------------------------------------------------
      1          5           0       -0.702734    0.000000    0.000000
      2          7           0        0.702734    0.000000    0.000000
      3          1           0       -1.873761   -0.000094    0.000000
      4          1           0        1.722757    0.000223    0.000000
 ---------------------------------------------------------------------

 Alpha  occ. eigenvalues --  -15.11609  -7.46134  -1.27624  -0.95092  -0.81445
 Alpha  occ. eigenvalues --   -0.73459  -0.69238
 Alpha virt. eigenvalues --   -0.27370  -0.26017  -0.18632  -0.13401  -0.11001
 Alpha virt. eigenvalues --   -0.10600  -0.10151  -0.07743  -0.01851  -0.01465
 Alpha virt. eigenvalues --    0.02698   0.06251   0.13238   0.17988   0.18102

  Beta  occ. eigenvalues --  -15.10669  -7.46166  -1.21065  -0.92936  -0.81210
  Beta  occ. eigenvalues --   -0.66322
  Beta virt. eigenvalues --   -0.43208  -0.25306  -0.22433  -0.18368  -0.13128
  Beta virt. eigenvalues --   -0.10955  -0.10153  -0.09949  -0.07390  -0.01569
  Beta virt. eigenvalues --   -0.01424   0.01361   0.06585   0.13641   0.16900

 Mulliken charges and spin densities:
               1          2
     1  B    0.511429   0.091612
     2  N   -0.103111   0.949157
     3  H    0.187518  -0.010947
     4  H    0.404163  -0.029823
 Sum of Mulliken charges =   1.00000   1.00000

 Dipole moment (field-independent basis, Debye):
    X=             -0.3926    Y=              0.0004    Z=              0.0000  Tot=              0.3926
 Quadrupole moment (field-independent basis, Debye-Ang):
   XX=             -0.6002   YY=             -9.3683   ZZ=            -11.1115
   XY=              0.0008   XZ=             -0.0000   YZ=              0.0003

 Normal termination of Gaussian 16 at Mon Apr 21 17:49:46 2025.
