 Gaussian 16, Revision A.03,
 Gaussian 16:  ES64L-G16RevA.03 25-Dec-2016

 ---------------------------------------------------------
 #p opt UM062X/6-311+G** nosymm int=superfine SCF=NoVarAcc
 ---------------------------------------------------------

 -------------------
 Title Card Required
 -------------------
 Symbolic Z-matrix:
 Charge =  1 Multiplicity = 2

 SCF Done:  E(UM062X) =  -77.8973337336     A.U. after    9 cycles
 SCF Done:  E(UM062X) =  -77.8980660522     A.U. after    9 cycles
 SCF Done:  E(UM062X) =  -77.8984534639     A.U. after    9 cycles
 SCF Done:  E(UM062X) =  -77.8984545919     A.U. after    9 cycles
 Optimization completed.
    -- Stationary point found.

                          Input orientation:
 ---------------------------------------------------------------------
 Center     Atomic      Atomic             Coordinates (Angstroms)
 Number     Number       Type             X           Y           Z
 ---------------------------------------------------------------------
      1          6           0       -1.481027    0.000000    0.000000
      2          6           0        1.481027    0.000000    0.000000
      3          1           0       -1.859925   -1.017733   -0.000000
      4          1           0       -1.859908    1.017740   -0.000000
      5          1           0        1.859926    1.017732    0.000000
      6          1           0        1.859909   -1.017740    0.000000
 ---------------------------------------------------------------------

 Alpha  occ. eigenvalues --  -10.91755 -10.91750  -1.02214  -1.00883  -0.79218
 Alpha  occ. eigenvalues --   -0.78789  -0.55578  -0.50320
 Alpha virt. eigenvalues --   -0.39662  -0.36556  -0.13112  -0.10569  -0.10483
 Alpha virt. eigenvalues --   -0.07600  -0.07466  -0.06275  -0.04740  -0.04479
 Alpha virt. eigenvalues --   -0.03015   0.01587   0.01865   0.09315   0.20959

  Beta  occ. eigenvalues --  -10.91489 -10.91486  -0.99430  -0.98351  -0.78857
  Beta  occ. eigenvalues --   -0.78440  -0.53606
  Beta virt. eigenvalues --   -0.34370  -0.31480  -0.29466  -0.14131  -0.10864
  Beta virt. eigenvalues --   -0.10858  -0.07432  -0.07343  -0.06301  -0.04298
  Beta virt. eigenvalues --   -0.03865  -0.03495  -0.00092   0.02073   0.10229

 Mulliken charges and spin densities:
               1          2
     1  C   -0.062643   0.540834
     2  C   -0.062643   0.540836
     3  H    0.281322  -0.020417
     4  H    0.281322  -0.020417
     5  H    0.281322  -0.020417
     6  H    0.281321  -0.020417
 Sum of Mulliken charges =   1.00000   1.00000

 Dipole moment (field-independent basis, Debye):
    X=              0.0000    Y=             -0.0000    Z=              0.0000  Tot=              0.0000
 Quadrupole moment (field-independent basis, Debye-Ang):
   XX=              5.5187   YY=             -7.7543   ZZ=            -13.0106
   XY=              0.0000   XZ=              0.0000   YZ=              0.0000

 Normal termination of Gaussian 16 at Tue Dec  3 13:25:40 2024.
