 Gaussian 16, Revision A.03,
 Gaussian 16:  ES64L-G16RevA.03 25-Dec-2016

 --------------------------------------------
 #p opt UM062X/6-311+G** nosymm int=superfine
 --------------------------------------------

 -------------------
 Title Card Required
 -------------------
 Symbolic Z-matrix:
 Charge =  0 Multiplicity = 1

 SCF Done:  E(UM062X) =  -581.139837264     A.U. after    9 cycles
 SCF Done:  E(UM062X) =  -581.159928966     A.U. after    8 cycles
 SCF Done:  E(UM062X) =  -581.172533733     A.U. after    8 cycles
 SCF Done:  E(UM062X) =  -581.172553794     A.U. after    7 cycles
 Optimization completed.
    -- Stationary point found.

                          Input orientation:
 ---------------------------------------------------------------------
 Center     Atomic      Atomic             Coordinates (Angstroms)
 Number     Number       Type             X           Y           Z
 ---------------------------------------------------------------------
      1         14           0       -2.062518    0.000000    0.000000
      2         14           0        2.062518    0.000000    0.000000
      3          1           0       -3.129824   -1.082168    0.000178
      4          1           0        3.129824    1.082167   -0.000405
      5          1           0       -3.129829    1.082163    0.000413
      6          1           0        3.129829   -1.082162    0.000997
 ---------------------------------------------------------------------

 Alpha  occ. eigenvalues --  -67.01090 -67.01090  -5.55823  -5.55822  -3.87061
 Alpha  occ. eigenvalues --   -3.87061  -3.86522  -3.86522  -3.86387  -3.86387
 Alpha  occ. eigenvalues --   -0.57163  -0.56966  -0.37646  -0.37571  -0.29894
 Alpha  occ. eigenvalues --   -0.26259
 Alpha virt. eigenvalues --   -0.08399  -0.07234   0.02098   0.02223   0.03158
 Alpha virt. eigenvalues --    0.04572   0.05860   0.06148   0.06396   0.06612
 Alpha virt. eigenvalues --    0.09098   0.09367   0.11658   0.14186   0.28989

  Beta  occ. eigenvalues --  -67.01090 -67.01090  -5.55823  -5.55822  -3.87061
  Beta  occ. eigenvalues --   -3.87061  -3.86522  -3.86522  -3.86387  -3.86387
  Beta  occ. eigenvalues --   -0.57163  -0.56966  -0.37646  -0.37571  -0.29894
  Beta  occ. eigenvalues --   -0.26259
  Beta virt. eigenvalues --   -0.08399  -0.07234   0.02098   0.02223   0.03158
  Beta virt. eigenvalues --    0.04572   0.05860   0.06148   0.06396   0.06612
  Beta virt. eigenvalues --    0.09098   0.09367   0.11658   0.14186   0.28989

 Mulliken charges and spin densities:
               1          2
     1  Si   0.319824   0.000000
     2  Si   0.319824  -0.000000
     3  H   -0.159912   0.000000
     4  H   -0.159912  -0.000000
     5  H   -0.159912   0.000000
     6  H   -0.159912  -0.000000
 Sum of Mulliken charges =  -0.00000   0.00000

 Dipole moment (field-independent basis, Debye):
    X=              0.0000    Y=              0.0000    Z=              0.0001  Tot=              0.0001
 Quadrupole moment (field-independent basis, Debye-Ang):
   XX=            -36.6335   YY=            -32.8053   ZZ=            -24.4064
   XY=             -0.0000   XZ=              0.0000   YZ=              0.0023

 Normal termination of Gaussian 16 at Mon Apr 21 20:33:52 2025.
