 Gaussian 16, Revision A.03,
 Gaussian 16:  ES64L-G16RevA.03 25-Dec-2016

 ---------------------------------------
 #p UM062X/6-311+G** force int=superfine
 ---------------------------------------

 -------------------
 Title Card Required
 -------------------
 Symbolic Z-matrix:
 Charge =  0 Multiplicity = 1

                         Standard orientation:
 ---------------------------------------------------------------------
 Center     Atomic      Atomic             Coordinates (Angstroms)
 Number     Number       Type             X           Y           Z
 ---------------------------------------------------------------------
      1          6           0       -0.969754   -0.000001    0.000000
      2          6           0        0.969754    0.000001   -0.000000
      3          1           0        1.275776   -0.469684   -0.929932
      4          1           0       -1.275778    0.570527   -0.871710
      5          1           0        1.275779   -0.570525    0.871709
      6          1           0        1.275816    1.040175    0.058220
      7          1           0       -1.275776    0.469684    0.929933
      8          1           0       -1.275817   -1.040174   -0.058221
 ---------------------------------------------------------------------

 SCF Done:  E(UM062X) =  -79.7534318661     A.U. after    8 cycles

 The electronic state is 1-A.
 Alpha  occ. eigenvalues --  -10.54247 -10.54236  -0.79648  -0.72182  -0.48543
 Alpha  occ. eigenvalues --   -0.48543  -0.43800  -0.43800  -0.34588
 Alpha virt. eigenvalues --    0.02300   0.03108   0.05640   0.05640   0.08539
 Alpha virt. eigenvalues --    0.08539   0.09390   0.12588   0.14512   0.18252
 Alpha virt. eigenvalues --    0.18253   0.21953   0.21953   0.24275   0.27184

  Beta  occ. eigenvalues --  -10.54247 -10.54236  -0.79648  -0.72182  -0.48543
  Beta  occ. eigenvalues --   -0.48543  -0.43800  -0.43800  -0.34588
  Beta virt. eigenvalues --    0.02300   0.03108   0.05640   0.05640   0.08539
  Beta virt. eigenvalues --    0.08539   0.09390   0.12588   0.14512   0.18252
  Beta virt. eigenvalues --    0.18253   0.21953   0.21953   0.24275   0.27184

 Mulliken charges and spin densities:
               1          2
     1  C   -0.494587  -0.000000
     2  C   -0.494587   0.000000
     3  H    0.164862  -0.000000
     4  H    0.164862   0.000000
     5  H    0.164863  -0.000000
     6  H    0.164862  -0.000000
     7  H    0.164862   0.000000
     8  H    0.164862  -0.000000
 Sum of Mulliken charges =  -0.00000  -0.00000

 Dipole moment (field-independent basis, Debye):
    X=             -0.0000    Y=             -0.0000    Z=              0.0000  Tot=              0.0000
 Quadrupole moment (field-independent basis, Debye-Ang):
   XX=            -15.5985   YY=            -14.8988   ZZ=            -14.8989
   XY=              0.0001   XZ=              0.0000   YZ=              0.0000

 Normal termination of Gaussian 16 at Tue Nov 19 12:49:36 2024.
