 Gaussian 16, Revision A.03,
 Gaussian 16:  ES64L-G16RevA.03 25-Dec-2016

 --------------------------------------------
 #p opt UM062X/6-311+G** nosymm int=superfine
 --------------------------------------------

 -------------------
 Title Card Required
 -------------------
 Symbolic Z-matrix:
 Charge =  1 Multiplicity = 2

 SCF Done:  E(UM062X) =  -92.5757649419     A.U. after   17 cycles
 SCF Done:  E(UM062X) =  -92.5760648581     A.U. after   16 cycles
 Optimization completed.
    -- Stationary point found.

                          Input orientation:
 ---------------------------------------------------------------------
 Center     Atomic      Atomic             Coordinates (Angstroms)
 Number     Number       Type             X           Y           Z
 ---------------------------------------------------------------------
      1          6           0       -1.751540    0.000000    0.000000
      2          7           0        1.751540    0.000000    0.000000
      3          1           0       -2.867796   -0.000000    0.000000
 ---------------------------------------------------------------------

 Alpha  occ. eigenvalues --  -15.22606 -10.97788  -1.17906  -0.98926  -0.72910
 Alpha  occ. eigenvalues --   -0.70009  -0.65706
 Alpha virt. eigenvalues --   -0.43139  -0.34372  -0.32788  -0.13792  -0.09822
 Alpha virt. eigenvalues --   -0.08025  -0.07337  -0.04417  -0.02417  -0.01878
 Alpha virt. eigenvalues --   -0.01414   0.07434   0.25423   0.34900   0.35108

  Beta  occ. eigenvalues --  -15.19954 -10.98190  -1.05836  -1.01219  -0.67027
  Beta  occ. eigenvalues --   -0.51377
  Beta virt. eigenvalues --   -0.43050  -0.39533  -0.36337  -0.34818  -0.13594
  Beta virt. eigenvalues --   -0.10384  -0.08515  -0.08038  -0.04851  -0.02490
  Beta virt. eigenvalues --   -0.02297  -0.01930   0.05651   0.25993   0.34442

 Mulliken charges and spin densities:
               1          2
     1  C    0.270698  -0.496228
     2  N    0.476351   1.480110
     3  H    0.252951   0.016118
 Sum of Mulliken charges =   1.00000   1.00000

 Dipole moment (field-independent basis, Debye):
    X=             -2.6847    Y=             -0.0000    Z=              0.0000  Tot=              2.6847
 Quadrupole moment (field-independent basis, Debye-Ang):
   XX=             14.1114   YY=            -10.7039   ZZ=            -10.0027
   XY=             -0.0000   XZ=             -0.0000   YZ=             -0.8487

 Normal termination of Gaussian 16 at Mon Apr 21 18:36:53 2025.
