 Gaussian 16, Revision A.03,
 Gaussian 16:  ES64L-G16RevA.03 25-Dec-2016

 --------------------------------------------
 #p opt UM062X/6-311+G** nosymm int=superfine
 --------------------------------------------

 -------------------
 Title Card Required
 -------------------
 Symbolic Z-matrix:
 Charge =  1 Multiplicity = 2

 SCF Done:  E(UM062X) =  -76.5666428506     A.U. after   96 cycles
 SCF Done:  E(UM062X) =  -76.5674414138     A.U. after   41 cycles
 SCF Done:  E(UM062X) =  -76.5674453867     A.U. after   14 cycles
 Optimization completed.
    -- Stationary point found.

                          Input orientation:
 ---------------------------------------------------------------------
 Center     Atomic      Atomic             Coordinates (Angstroms)
 Number     Number       Type             X           Y           Z
 ---------------------------------------------------------------------
      1          6           0       -1.182160    0.000000    0.000000
      2          6           0        1.182160    0.000000    0.000000
      3          1           0       -2.310268    0.000001    0.000005
      4          1           0        2.310268   -0.000002   -0.000006
 ---------------------------------------------------------------------

 Alpha  occ. eigenvalues --  -10.95535 -10.95532  -1.00415  -0.98302  -0.71896
 Alpha  occ. eigenvalues --   -0.57684  -0.53306
 Alpha virt. eigenvalues --   -0.38684  -0.36905  -0.33130  -0.13484  -0.11692
 Alpha virt. eigenvalues --   -0.08547  -0.08020  -0.07414  -0.05379  -0.05011
 Alpha virt. eigenvalues --   -0.00698   0.02241   0.05853   0.26052   0.31982

  Beta  occ. eigenvalues --  -10.95168 -10.95167  -0.97860  -0.96247  -0.70611
  Beta  occ. eigenvalues --   -0.56127
  Beta virt. eigenvalues --   -0.35400  -0.33791  -0.31335  -0.29671  -0.14245
  Beta virt. eigenvalues --   -0.11713  -0.08088  -0.08046  -0.07294  -0.04762
  Beta virt. eigenvalues --   -0.03916  -0.01487   0.03677   0.06829   0.25473

 Mulliken charges and spin densities:
               1          2
     1  C    0.250069   0.515098
     2  C    0.250069   0.515098
     3  H    0.249931  -0.015098
     4  H    0.249931  -0.015098
 Sum of Mulliken charges =   1.00000   1.00000

 Dipole moment (field-independent basis, Debye):
    X=             -0.0000    Y=             -0.0000    Z=             -0.0000  Tot=              0.0000
 Quadrupole moment (field-independent basis, Debye-Ang):
   XX=              4.8852   YY=             -9.4550   ZZ=            -11.5505
   XY=             -0.0000   XZ=             -0.0000   YZ=             -0.0115

 Normal termination of Gaussian 16 at Tue Dec  3 11:24:16 2024.
