 Gaussian 16, Revision A.03,
 Gaussian 16:  ES64L-G16RevA.03 25-Dec-2016

 --------------------------------------------
 #p opt UM062X/6-311+G** nosymm int=superfine
 --------------------------------------------

 -------------------
 Title Card Required
 -------------------
 Symbolic Z-matrix:
 Charge =  0 Multiplicity = 1

 SCF Done:  E(UM062X) =  -92.8231587316     A.U. after   14 cycles
 SCF Done:  E(UM062X) =  -92.8251225799     A.U. after   11 cycles
 SCF Done:  E(UM062X) =  -92.8251331690     A.U. after   11 cycles
 Optimization completed.
    -- Stationary point found.

                          Input orientation:
 ---------------------------------------------------------------------
 Center     Atomic      Atomic             Coordinates (Angstroms)
 Number     Number       Type             X           Y           Z
 ---------------------------------------------------------------------
      1          6           0       -1.847395    0.000000    0.000000
      2          7           0        1.847395    0.000000    0.000000
      3          1           0       -2.972826    0.000000    0.000000
 ---------------------------------------------------------------------

 Alpha  occ. eigenvalues --  -14.81551 -10.76326  -0.80293  -0.76324  -0.45451
 Alpha  occ. eigenvalues --   -0.26213  -0.26213
 Alpha virt. eigenvalues --   -0.18229  -0.18229  -0.07911  -0.00077   0.06267
 Alpha virt. eigenvalues --    0.06267   0.07905   0.12646   0.15933   0.17346
 Alpha virt. eigenvalues --    0.17346   0.23499   0.41896   0.51991   0.51991

  Beta  occ. eigenvalues --  -14.81551 -10.76326  -0.80293  -0.76324  -0.45451
  Beta  occ. eigenvalues --   -0.26213  -0.26213
  Beta virt. eigenvalues --   -0.18229  -0.18229  -0.07911  -0.00077   0.06267
  Beta virt. eigenvalues --    0.06267   0.07905   0.12646   0.15933   0.17346
  Beta virt. eigenvalues --    0.17346   0.23499   0.41896   0.51991   0.51991

 Mulliken charges and spin densities:
               1          2
     1  C    0.077466   0.000000
     2  N   -0.249625  -0.000000
     3  H    0.172159   0.000000
 Sum of Mulliken charges =  -0.00000   0.00000

 Dipole moment (field-independent basis, Debye):
    X=             -6.3021    Y=             -0.0000    Z=              0.0000  Tot=              6.3021
 Quadrupole moment (field-independent basis, Debye-Ang):
   XX=             -4.4375   YY=            -14.2330   ZZ=            -14.2330
   XY=             -0.0000   XZ=             -0.0000   YZ=             -0.0000

 Normal termination of Gaussian 16 at Mon Apr 21 18:39:20 2025.
