 Gaussian 16, Revision A.03,
 Gaussian 16:  ES64L-G16RevA.03 25-Dec-2016

 --------------------------------------------
 #p opt UM062X/6-311+G** nosymm int=superfine
 --------------------------------------------

 -------------------
 Title Card Required
 -------------------
 Symbolic Z-matrix:
 Charge =  0 Multiplicity = 1

 SCF Done:  E(UM062X) =  -114.083526340     A.U. after   18 cycles
 SCF Done:  E(UM062X) =  -114.086465921     A.U. after   10 cycles
 SCF Done:  E(UM062X) =  -114.087373678     A.U. after    9 cycles
 SCF Done:  E(UM062X) =  -114.087377147     A.U. after    9 cycles
 Optimization completed.
    -- Stationary point found.

                          Input orientation:
 ---------------------------------------------------------------------
 Center     Atomic      Atomic             Coordinates (Angstroms)
 Number     Number       Type             X           Y           Z
 ---------------------------------------------------------------------
      1          6           0       -1.973311    0.000000    0.000000
      2          8           0        1.973311    0.000000    0.000000
      3          1           0       -2.664062   -0.865547    0.000001
      4          1           0       -2.664067    0.865543    0.000002
 ---------------------------------------------------------------------

 Alpha  occ. eigenvalues --  -19.75428 -10.61973  -1.05130  -0.76633  -0.48723
 Alpha  occ. eigenvalues --   -0.44032  -0.44029  -0.32389
 Alpha virt. eigenvalues --   -0.18023  -0.09126   0.01863   0.06103   0.08023
 Alpha virt. eigenvalues --    0.08329   0.15974   0.15979   0.18852   0.18984
 Alpha virt. eigenvalues --    0.20832   0.24525   0.43930   0.47871   0.58097

  Beta  occ. eigenvalues --  -19.75428 -10.61973  -1.05130  -0.76633  -0.48723
  Beta  occ. eigenvalues --   -0.44032  -0.44029  -0.32389
  Beta virt. eigenvalues --   -0.18023  -0.09126   0.01863   0.06103   0.08023
  Beta virt. eigenvalues --    0.08329   0.15974   0.15979   0.18852   0.18984
  Beta virt. eigenvalues --    0.20832   0.24525   0.43930   0.47871   0.58097

 Mulliken charges and spin densities:
               1          2
     1  C   -0.265687   0.000000
     2  O   -0.007838  -0.000000
     3  H    0.136762  -0.000000
     4  H    0.136763   0.000000
 Sum of Mulliken charges =  -0.00000  -0.00000

 Dipole moment (field-independent basis, Debye):
    X=             -2.4391    Y=             -0.0000    Z=              0.0000  Tot=              2.4391
 Quadrupole moment (field-independent basis, Debye-Ang):
   XX=             -4.5670   YY=            -13.1769   ZZ=            -12.4828
   XY=              0.0000   XZ=             -0.0000   YZ=             -0.0000

 Normal termination of Gaussian 16 at Mon Apr 21 19:01:59 2025.
