 Gaussian 16, Revision A.03,
 Gaussian 16:  ES64L-G16RevA.03 25-Dec-2016

 ---------------------------------------
 #p UM062X/6-311+G** force int=superfine
 ---------------------------------------

 -------------------
 Title Card Required
 -------------------
 Symbolic Z-matrix:
 Charge =  1 Multiplicity = 2

                         Standard orientation:
 ---------------------------------------------------------------------
 Center     Atomic      Atomic             Coordinates (Angstroms)
 Number     Number       Type             X           Y           Z
 ---------------------------------------------------------------------
      1          7           0        0.000000    0.000000    0.755391
      2          7           0        0.000000    0.000000   -0.755391
 ---------------------------------------------------------------------

 SCF Done:  E(UM062X) =  -108.781152989     A.U. after   10 cycles

 Unable to determine electronic state:  partially filled degenerate orbitals.
 Alpha  occ. eigenvalues --  -15.37873 -15.37824  -1.46746  -1.14693  -0.86905
 Alpha  occ. eigenvalues --   -0.85278  -0.82483
 Alpha virt. eigenvalues --   -0.52215  -0.49452  -0.26088  -0.14582  -0.09930
 Alpha virt. eigenvalues --   -0.09711  -0.08280  -0.04702  -0.02926  -0.02654
 Alpha virt. eigenvalues --    0.06948   0.44022   0.45873   0.49489   0.49852

  Beta  occ. eigenvalues --  -15.37481 -15.37444  -1.42216  -1.11499  -0.84913
  Beta  occ. eigenvalues --   -0.80688
  Beta virt. eigenvalues --   -0.58620  -0.47834  -0.42395  -0.24528  -0.16440
  Beta virt. eigenvalues --   -0.11034  -0.10164  -0.08473  -0.05472  -0.03196
  Beta virt. eigenvalues --   -0.02879   0.05784   0.44640   0.45998   0.49257

 Mulliken charges and spin densities:
               1          2
     1  N    0.500000   0.500000
     2  N    0.500000   0.500000
 Sum of Mulliken charges =   1.00000   1.00000

 Dipole moment (field-independent basis, Debye):
    X=              0.0000    Y=              0.0000    Z=             -0.0000  Tot=              0.0000
 Quadrupole moment (field-independent basis, Debye-Ang):
   XX=             -8.0197   YY=             -9.3817   ZZ=             -6.8711
   XY=              0.0000   XZ=             -0.0000   YZ=             -0.0000

 Optimization completed.
    -- Stationary point found.
 Normal termination of Gaussian 16 at Wed Feb 26 13:43:44 2025.
