 Gaussian 16, Revision A.03,
 Gaussian 16:  ES64L-G16RevA.03 25-Dec-2016

 ---------------------------------------
 #p UM062X/6-311+G** force int=superfine
 ---------------------------------------

 -------------------
 Title Card Required
 -------------------
 Symbolic Z-matrix:
 Charge =  1 Multiplicity = 2

                         Standard orientation:
 ---------------------------------------------------------------------
 Center     Atomic      Atomic             Coordinates (Angstroms)
 Number     Number       Type             X           Y           Z
 ---------------------------------------------------------------------
      1          6           0       -0.000000    0.947235    0.000000
      2          6           0       -0.000000   -0.947235    0.000000
      3          1           0        0.973137    1.426154   -0.000000
      4          1           0       -0.973045    1.426192    0.000000
      5          1           0       -0.973137   -1.426154   -0.000000
      6          1           0        0.973045   -1.426192    0.000000
 ---------------------------------------------------------------------

 SCF Done:  E(UM062X) =  -78.0942334126     A.U. after    9 cycles

 The electronic state is 2-AU.
 Alpha  occ. eigenvalues --  -10.91931 -10.91912  -1.08349  -0.99690  -0.81214
 Alpha  occ. eigenvalues --   -0.76872  -0.69765  -0.57938
 Alpha virt. eigenvalues --   -0.35458  -0.20465  -0.14275  -0.11157  -0.09578
 Alpha virt. eigenvalues --   -0.08601  -0.07389  -0.07296  -0.04735  -0.04322
 Alpha virt. eigenvalues --   -0.02226  -0.01001   0.02353   0.09526   0.18198

  Beta  occ. eigenvalues --  -10.91700 -10.91688  -1.05132  -0.97517  -0.80593
  Beta  occ. eigenvalues --   -0.76521  -0.68366
  Beta virt. eigenvalues --   -0.36498  -0.27037  -0.18106  -0.15721  -0.11523
  Beta virt. eigenvalues --   -0.09354  -0.08258  -0.07825  -0.07350  -0.04357
  Beta virt. eigenvalues --   -0.03985  -0.01805  -0.00392   0.01634   0.10163

 Mulliken charges and spin densities:
               1          2
     1  C   -0.065543   0.540672
     2  C   -0.065543   0.540672
     3  H    0.282774  -0.020337
     4  H    0.282769  -0.020335
     5  H    0.282774  -0.020337
     6  H    0.282769  -0.020335
 Sum of Mulliken charges =   1.00000   1.00000

 Dipole moment (field-independent basis, Debye):
    X=              0.0000    Y=             -0.0000    Z=             -0.0000  Tot=              0.0000
 Quadrupole moment (field-independent basis, Debye-Ang):
   XX=             -8.2231   YY=             -2.9246   ZZ=            -12.3419
   XY=              0.0001   XZ=              0.0000   YZ=              0.0000

 Normal termination of Gaussian 16 at Tue Nov 19 11:55:59 2024.
