 Gaussian 16, Revision A.03,
 Gaussian 16:  ES64L-G16RevA.03 25-Dec-2016

 ---------------------------------------------------------
 #p opt UM062X/6-311+G** nosymm int=superfine SCF=NoVarAcc
 ---------------------------------------------------------

 -------------------
 Title Card Required
 -------------------
 Symbolic Z-matrix:
 Charge =  1 Multiplicity = 2

 SCF Done:  E(UM062X) =  -77.8958190729     A.U. after   10 cycles
 SCF Done:  E(UM062X) =  -77.8997910206     A.U. after    9 cycles
 SCF Done:  E(UM062X) =  -77.9024244430     A.U. after   10 cycles
 SCF Done:  E(UM062X) =  -77.9024279418     A.U. after    8 cycles
 Optimization completed.
    -- Stationary point found.

                          Input orientation:
 ---------------------------------------------------------------------
 Center     Atomic      Atomic             Coordinates (Angstroms)
 Number     Number       Type             X           Y           Z
 ---------------------------------------------------------------------
      1          6           0       -2.231027    0.000000    0.000000
      2          6           0        2.231027    0.000000    0.000000
      3          1           0       -2.790958   -0.942318    0.000000
      4          1           0       -2.790899    0.942353    0.000000
      5          1           0        2.790958    0.942318   -0.000000
      6          1           0        2.790899   -0.942353   -0.000000
 ---------------------------------------------------------------------

 Alpha  occ. eigenvalues --  -10.87939 -10.87939  -0.99324  -0.99305  -0.73998
 Alpha  occ. eigenvalues --   -0.73986  -0.57244  -0.56628
 Alpha virt. eigenvalues --   -0.31162  -0.30993  -0.12394  -0.10696  -0.08627
 Alpha virt. eigenvalues --   -0.06751  -0.06163  -0.06145  -0.04026  -0.01128
 Alpha virt. eigenvalues --    0.00060   0.00712   0.02462   0.04708   0.27801

  Beta  occ. eigenvalues --  -10.87174 -10.87173  -0.97168  -0.97054  -0.72979
  Beta  occ. eigenvalues --   -0.72961  -0.45337
  Beta virt. eigenvalues --   -0.36801  -0.29415  -0.29193  -0.12118  -0.10856
  Beta virt. eigenvalues --   -0.08467  -0.06582  -0.06328  -0.04354  -0.04240
  Beta virt. eigenvalues --   -0.00980   0.00838   0.01016   0.02604   0.05387

 Mulliken charges and spin densities:
               1          2
     1  C    0.026393   0.486134
     2  C    0.026393   0.486134
     3  H    0.236804   0.006933
     4  H    0.236803   0.006933
     5  H    0.236804   0.006933
     6  H    0.236803   0.006933
 Sum of Mulliken charges =   1.00000   1.00000

 Dipole moment (field-independent basis, Debye):
    X=             -0.0000    Y=             -0.0000    Z=             -0.0000  Tot=              0.0000
 Quadrupole moment (field-independent basis, Debye-Ang):
   XX=             26.3037   YY=             -9.4578   ZZ=            -10.7259
   XY=             -0.0001   XZ=             -0.0000   YZ=             -0.0000

 Normal termination of Gaussian 16 at Tue Dec  3 13:36:53 2024.
