 Gaussian 16, Revision A.03,
 Gaussian 16:  ES64L-G16RevA.03 25-Dec-2016

 --------------------------------------------
 #p opt UM062X/6-311+G** nosymm int=superfine
 --------------------------------------------

 -------------------
 Title Card Required
 -------------------
 Symbolic Z-matrix:
 Charge =  1 Multiplicity = 2

 SCF Done:  E(UM062X) =  -80.2791300208     A.U. after   14 cycles
 SCF Done:  E(UM062X) =  -80.2792149189     A.U. after   11 cycles
 SCF Done:  E(UM062X) =  -80.2792149506     A.U. after    8 cycles
 SCF Done:  E(UM062X) =  -80.2792149547     A.U. after    7 cycles
 Optimization completed.
    -- Stationary point found.

                          Input orientation:
 ---------------------------------------------------------------------
 Center     Atomic      Atomic             Coordinates (Angstroms)
 Number     Number       Type             X           Y           Z
 ---------------------------------------------------------------------
      1          5           0       -0.852734    0.000000    0.000000
      2          7           0        0.852734    0.000000    0.000000
      3          1           0       -2.030778    0.000397    0.000014
      4          1           0        1.877844    0.000924   -0.000002
 ---------------------------------------------------------------------

 Alpha  occ. eigenvalues --  -15.09612  -7.52278  -1.20934  -0.89327  -0.82143
 Alpha  occ. eigenvalues --   -0.68065  -0.63924
 Alpha virt. eigenvalues --   -0.31153  -0.30149  -0.25659  -0.14256  -0.10938
 Alpha virt. eigenvalues --   -0.10231  -0.09828  -0.09291  -0.01659  -0.01360
 Alpha virt. eigenvalues --    0.03944   0.05281   0.08912   0.17104   0.17654

  Beta  occ. eigenvalues --  -15.08332  -7.52376  -1.13677  -0.88427  -0.81027
  Beta  occ. eigenvalues --   -0.59390
  Beta virt. eigenvalues --   -0.38832  -0.30451  -0.26159  -0.24899  -0.14267
  Beta virt. eigenvalues --   -0.11003  -0.09926  -0.09724  -0.09152  -0.01546
  Beta virt. eigenvalues --   -0.01094   0.02304   0.05212   0.09510   0.16395

 Mulliken charges and spin densities:
               1          2
     1  B    0.647046  -0.076187
     2  N   -0.276365   1.116700
     3  H    0.215112  -0.008072
     4  H    0.414207  -0.032441
 Sum of Mulliken charges =   1.00000   1.00000

 Dipole moment (field-independent basis, Debye):
    X=             -1.6873    Y=              0.0013    Z=             -0.0000  Tot=              1.6873
 Quadrupole moment (field-independent basis, Debye-Ang):
   XX=              1.5224   YY=             -9.7926   ZZ=            -11.7699
   XY=              0.0031   XZ=             -0.0000   YZ=              0.0240

 Normal termination of Gaussian 16 at Mon Apr 21 17:56:19 2025.
