 Gaussian 16, Revision A.03,
 Gaussian 16:  ES64L-G16RevA.03 25-Dec-2016

 ----------------------------------------------------------------------
 #p opt UM062X/6-311+G** nosymm int=superfine SCF=(MaxCycle=200,NoVarAc
 c,noincfock) guess=read
 ----------------------------------------------------------------------

 -------------------
 Title Card Required
 -------------------
 Symbolic Z-matrix:
 Charge =  1 Multiplicity = 2

 SCF Done:  E(UM062X) =  -92.8050710725     A.U. after   16 cycles
 SCF Done:  E(UM062X) =  -92.8051609544     A.U. after   12 cycles
 Optimization completed.
    -- Stationary point found.

                          Input orientation:
 ---------------------------------------------------------------------
 Center     Atomic      Atomic             Coordinates (Angstroms)
 Number     Number       Type             X           Y           Z
 ---------------------------------------------------------------------
      1          6           0       -0.776540    0.000000    0.000000
      2          7           0        0.776540    0.000000    0.000000
      3          1           0       -1.882841   -0.000000    0.000000
 ---------------------------------------------------------------------

 Alpha  occ. eigenvalues --  -15.23451 -11.06628  -1.30394  -1.04437  -0.82743
 Alpha  occ. eigenvalues --   -0.75787  -0.74446
 Alpha virt. eigenvalues --   -0.40486  -0.37598  -0.26146  -0.16527  -0.10917
 Alpha virt. eigenvalues --   -0.10597  -0.09564  -0.04518  -0.01585  -0.01463
 Alpha virt. eigenvalues --    0.04174   0.08230   0.27858   0.29125   0.29358

  Beta  occ. eigenvalues --  -15.21700 -11.07344  -1.22939  -1.04094  -0.79076
  Beta  occ. eigenvalues --   -0.69816
  Beta virt. eigenvalues --   -0.48893  -0.35646  -0.32506  -0.24973  -0.16523
  Beta virt. eigenvalues --   -0.10897  -0.10653  -0.09657  -0.05295  -0.02266
  Beta virt. eigenvalues --   -0.01664   0.03056   0.06503   0.26935   0.27698

 Mulliken charges and spin densities:
               1          2
     1  C    0.283615  -0.503496
     2  N    0.351934   1.498531
     3  H    0.364451   0.004965
 Sum of Mulliken charges =   1.00000   1.00000

 Dipole moment (field-independent basis, Debye):
    X=             -3.8882    Y=             -0.0000    Z=              0.0000  Tot=              3.8882
 Quadrupole moment (field-independent basis, Debye-Ang):
   XX=             -2.2177   YY=             -9.6415   ZZ=             -9.9289
   XY=              0.0000   XZ=             -0.0000   YZ=              0.8258

 Normal termination of Gaussian 16 at Mon Apr 21 23:04:08 2025.
