 Gaussian 16, Revision A.03,
 Gaussian 16:  ES64L-G16RevA.03 25-Dec-2016

 ---------------------------------------------------
 #p UM062X/6-311+G** force int=superfine pop=saveNBO
 ---------------------------------------------------

 -------------------
 Title Card Required
 -------------------
 Symbolic Z-matrix:
 Charge =  0 Multiplicity = 1

                         Standard orientation:
 ---------------------------------------------------------------------
 Center     Atomic      Atomic             Coordinates (Angstroms)
 Number     Number       Type             X           Y           Z
 ---------------------------------------------------------------------
      1         16           0        0.000000    0.000000    1.800200
      2         16           0        0.000000    0.000000   -1.800200
 ---------------------------------------------------------------------

 SCF Done:  E(UM062X) =  -796.060533981     A.U. after    9 cycles

 Unable to determine electronic state:  partially filled degenerate orbitals.
 Alpha  occ. eigenvalues --  -89.99078 -89.99078  -8.34825  -8.34825  -6.26858
 Alpha  occ. eigenvalues --   -6.26858  -6.26837  -6.26837  -6.26006  -6.26006
 Alpha  occ. eigenvalues --   -0.78520  -0.77277  -0.35143  -0.34296  -0.33890
 Alpha  occ. eigenvalues --   -0.31752
 Alpha virt. eigenvalues --   -0.23289  -0.21116   0.03039   0.03753   0.04817
 Alpha virt. eigenvalues --    0.05293   0.07132   0.07455   0.07592   0.12805
 Alpha virt. eigenvalues --    0.31931   0.32808   0.33334   0.34062   0.36243

  Beta  occ. eigenvalues --  -89.99078 -89.99078  -8.34825  -8.34825  -6.26858
  Beta  occ. eigenvalues --   -6.26858  -6.26837  -6.26837  -6.26006  -6.26006
  Beta  occ. eigenvalues --   -0.78520  -0.77277  -0.35143  -0.34296  -0.33890
  Beta  occ. eigenvalues --   -0.31752
  Beta virt. eigenvalues --   -0.23289  -0.21116   0.03039   0.03753   0.04817
  Beta virt. eigenvalues --    0.05293   0.07132   0.07455   0.07592   0.12805
  Beta virt. eigenvalues --    0.31931   0.32808   0.33334   0.34062   0.36243

 Mulliken charges and spin densities:
               1          2
     1  S   -0.000000  -0.000000
     2  S   -0.000000  -0.000000
 Sum of Mulliken charges =  -0.00000  -0.00000

 Dipole moment (field-independent basis, Debye):
    X=              0.0000    Y=             -0.0000    Z=              0.0000  Tot=              0.0000
 Quadrupole moment (field-independent basis, Debye-Ang):
   XX=            -25.4143   YY=            -30.3779   ZZ=            -22.4912
   XY=              0.0000   XZ=             -0.0000   YZ=              0.0000

 Summary of Natural Population Analysis:

                                       Natural Population
                Natural  -----------------------------------------------
    Atom  No    Charge         Core      Valence    Rydberg      Total
 -----------------------------------------------------------------------
      S    1    0.00000      5.00000     2.99919    0.00082     8.00000
      S    2    0.00000      5.00000     2.99919    0.00082     8.00000
 =======================================================================
   * Total *    0.00000      9.99999     5.99837    0.00164    16.00000

 Normal termination of Gaussian 16 at Mon Apr 21 20:08:23 2025.
