 Gaussian 16, Revision A.03,
 Gaussian 16:  ES64L-G16RevA.03 25-Dec-2016

 --------------------------------------------
 #p opt UM062X/6-311+G** nosymm int=superfine
 --------------------------------------------

 -------------------
 Title Card Required
 -------------------
 Symbolic Z-matrix:
 Charge =  1 Multiplicity = 2

 SCF Done:  E(UM062X) =  -76.8224335114     A.U. after   10 cycles
 SCF Done:  E(UM062X) =  -76.8496579883     A.U. after   11 cycles
 SCF Done:  E(UM062X) =  -76.8499691635     A.U. after    8 cycles
 Optimization completed.
    -- Stationary point found.

                          Input orientation:
 ---------------------------------------------------------------------
 Center     Atomic      Atomic             Coordinates (Angstroms)
 Number     Number       Type             X           Y           Z
 ---------------------------------------------------------------------
      1          6           0       -0.546781    0.000000    0.000000
      2          6           0        0.546781    0.000000    0.000000
      3          1           0       -1.623736    0.000000   -0.000000
      4          1           0        1.623735   -0.000000    0.000000
 ---------------------------------------------------------------------

 Alpha  occ. eigenvalues --  -10.91721 -10.91071  -1.28456  -0.96037  -0.90658
 Alpha  occ. eigenvalues --   -0.77817  -0.74711
 Alpha virt. eigenvalues --   -0.23015  -0.21100  -0.14624  -0.14323  -0.11835
 Alpha virt. eigenvalues --   -0.10928  -0.10639  -0.04205  -0.03805  -0.03643
 Alpha virt. eigenvalues --    0.02368   0.04477   0.17591   0.18874   0.27346

  Beta  occ. eigenvalues --  -10.91431 -10.90819  -1.23129  -0.94493  -0.89982
  Beta  occ. eigenvalues --   -0.72106
  Beta virt. eigenvalues --   -0.49207  -0.19712  -0.17784  -0.15632  -0.13784
  Beta virt. eigenvalues --   -0.11839  -0.11150  -0.10775  -0.03302  -0.03247
  Beta virt. eigenvalues --   -0.02453   0.02397   0.04819   0.18299   0.19308

 Mulliken charges and spin densities:
               1          2
     1  C    0.216268   0.519737
     2  C    0.216268   0.519737
     3  H    0.283732  -0.019737
     4  H    0.283732  -0.019737
 Sum of Mulliken charges =   1.00000   1.00000

 Dipole moment (field-independent basis, Debye):
    X=             -0.0000    Y=             -0.0000    Z=              0.0000  Tot=              0.0000
 Quadrupole moment (field-independent basis, Debye-Ang):
   XX=             -1.4876   YY=             -9.9330   ZZ=            -10.0849
   XY=             -0.0000   XZ=              0.0000   YZ=              0.8289

 Normal termination of Gaussian 16 at Tue Nov 19 12:58:14 2024.
