 Gaussian 16, Revision A.03,
 Gaussian 16:  ES64L-G16RevA.03 25-Dec-2016

 --------------------------------------------
 #p opt UM062X/6-311+G** nosymm int=superfine
 --------------------------------------------

 -------------------
 Title Card Required
 -------------------
 Symbolic Z-matrix:
 Charge =  0 Multiplicity = 3

 SCF Done:  E(UM062X) =  -50.5018378480     A.U. after   13 cycles
 SCF Done:  E(UM062X) =  -50.5027637937     A.U. after   10 cycles
 SCF Done:  E(UM062X) =  -50.5027706594     A.U. after    8 cycles
 Optimization completed.
    -- Stationary point found.

                          Input orientation:
 ---------------------------------------------------------------------
 Center     Atomic      Atomic             Coordinates (Angstroms)
 Number     Number       Type             X           Y           Z
 ---------------------------------------------------------------------
      1          5           0       -1.628410    0.000000    0.000000
      2          5           0        1.628410    0.000000    0.000000
      3          1           0       -2.834019   -0.000082    0.000000
      4          1           0        2.834019    0.000082   -0.000000
 ---------------------------------------------------------------------

 Alpha  occ. eigenvalues --   -7.13999  -7.13998  -0.56728  -0.56268  -0.34763
 Alpha  occ. eigenvalues --   -0.28208  -0.18553
 Alpha virt. eigenvalues --   -0.08687  -0.06657  -0.04654   0.02638   0.02770
 Alpha virt. eigenvalues --    0.05986   0.07179   0.07227   0.08137   0.08262
 Alpha virt. eigenvalues --    0.11982   0.18615   0.22710   0.35117   0.39094

  Beta  occ. eigenvalues --   -7.13071  -7.13069  -0.53353  -0.53062  -0.25938
  Beta virt. eigenvalues --   -0.08190  -0.04817  -0.04320  -0.02315  -0.01875
  Beta virt. eigenvalues --    0.01709   0.02598   0.06961   0.07236   0.07317
  Beta virt. eigenvalues --    0.08354   0.09403   0.09706   0.19750   0.23998

 Mulliken charges and spin densities:
               1          2
     1  B   -0.067123   0.917766
     2  B   -0.067122   0.917765
     3  H    0.067122   0.082235
     4  H    0.067122   0.082235
 Sum of Mulliken charges =  -0.00000   2.00000

 Dipole moment (field-independent basis, Debye):
    X=              0.0000    Y=             -0.0000    Z=             -0.0000  Tot=              0.0000
 Quadrupole moment (field-independent basis, Debye-Ang):
   XX=             -9.6322   YY=            -13.5723   ZZ=            -17.6262
   XY=              0.0000   XZ=             -0.0000   YZ=             -0.0001

 1\1\GINC-NODE06\FOpt\UM062X\6-311+G(d,p)\B2H2(3)\SZHAO\21-Apr-2025\0\\
 #p opt UM062X/6-311+G** nosymm int=superfine\\Title Card Required\\0,3
 \B,-1.62841047,0.,0.\B,1.62841047,0.,0.\H,-2.834019427,-0.0000822232,0
 .0000000011\H,2.8340194275,0.0000822231,-0.0000000012\\Version=ES64L-G
 16RevA.03\HF=-50.5027707\S2=2.014069\S2-1=0.\S2A=2.000013\RMSD=3.291e-
 09\RMSF=6.024e-07\Dipole=0.0000019,0.,0.\Quadrupole=2.9575954,0.028155
 9,-2.9857513,0.0000172,0.,-0.0000423\PG=C*V [C*(H1B1B1H1)]\\@

 Normal termination of Gaussian 16 at Mon Apr 21 17:28:55 2025.
