 Gaussian 16, Revision A.03,
 Gaussian 16:  ES64L-G16RevA.03 25-Dec-2016

 --------------------------------------------
 #p opt UM062X/6-311+G** nosymm int=superfine
 --------------------------------------------

 -------------------
 Title Card Required
 -------------------
 Symbolic Z-matrix:
 Charge =  0 Multiplicity = 1

 SCF Done:  E(UM062X) =  -437.195080756     A.U. after   17 cycles
 SCF Done:  E(UM062X) =  -437.195558746     A.U. after   13 cycles
 SCF Done:  E(UM062X) =  -437.195739708     A.U. after   14 cycles
 SCF Done:  E(UM062X) =  -437.195732870     A.U. after   13 cycles
 SCF Done:  E(UM062X) =  -437.195740070     A.U. after   12 cycles
 Optimization completed.
    -- Stationary point found.

                          Input orientation:
 ---------------------------------------------------------------------
 Center     Atomic      Atomic             Coordinates (Angstroms)
 Number     Number       Type             X           Y           Z
 ---------------------------------------------------------------------
      1          6           0       -1.477140    0.000000    0.000000
      2         16           0        1.477140    0.000000    0.000000
      3          1           0       -2.103997   -0.900716    0.000093
      4          1           0       -2.104725    0.900210   -0.000055
 ---------------------------------------------------------------------

 Alpha  occ. eigenvalues --  -89.91132 -10.68023  -8.27089  -6.19739  -6.18398
 Alpha  occ. eigenvalues --   -6.18354  -0.80825  -0.71547  -0.54450  -0.36872
 Alpha  occ. eigenvalues --   -0.28989  -0.28942
 Alpha virt. eigenvalues --   -0.13022  -0.12418   0.00560   0.05105   0.05844
 Alpha virt. eigenvalues --    0.06568   0.08568   0.09003   0.09103   0.14187
 Alpha virt. eigenvalues --    0.16699   0.16701   0.36147   0.37099   0.37481

  Beta  occ. eigenvalues --  -89.91132 -10.68023  -8.27089  -6.19739  -6.18398
  Beta  occ. eigenvalues --   -6.18354  -0.80825  -0.71547  -0.54450  -0.36872
  Beta  occ. eigenvalues --   -0.28989  -0.28942
  Beta virt. eigenvalues --   -0.13022  -0.12418   0.00560   0.05105   0.05844
  Beta virt. eigenvalues --    0.06568   0.08568   0.09003   0.09103   0.14187
  Beta virt. eigenvalues --    0.16699   0.16701   0.36147   0.37099   0.37481

 Mulliken charges and spin densities:
               1          2
     1  C   -0.242331  -0.000000
     2  S   -0.118028   0.000000
     3  H    0.180176   0.000000
     4  H    0.180184  -0.000000
 Sum of Mulliken charges =  -0.00000  -0.00000

 Dipole moment (field-independent basis, Debye):
    X=             -4.3400    Y=             -0.0007    Z=              0.0000  Tot=              4.3400
 Quadrupole moment (field-independent basis, Debye-Ang):
   XX=            -12.9139   YY=            -22.1646   ZZ=            -22.1341
   XY=             -0.0003   XZ=              0.0000   YZ=              0.0000

 Normal termination of Gaussian 16 at Mon Apr 21 19:39:19 2025.
