 Gaussian 16, Revision A.03,
 Gaussian 16:  ES64L-G16RevA.03 25-Dec-2016

 --------------------------------------------
 #p opt UM062X/6-311+G** nosymm int=superfine
 --------------------------------------------

 -------------------
 Title Card Required
 -------------------
 Symbolic Z-matrix:
 Charge =  0 Multiplicity = 1

 SCF Done:  E(UM062X) =  -474.407882882     A.U. after   19 cycles
 SCF Done:  E(UM062X) =  -474.408996512     A.U. after   19 cycles
 SCF Done:  E(UM062X) =  -474.410246297     A.U. after   19 cycles
 SCF Done:  E(UM062X) =  -474.410310378     A.U. after   15 cycles
 SCF Done:  E(UM062X) =  -474.410323303     A.U. after   17 cycles
 SCF Done:  E(UM062X) =  -474.410335407     A.U. after   20 cycles
 SCF Done:  E(UM062X) =  -474.410339857     A.U. after   13 cycles
 SCF Done:  E(UM062X) =  -474.410340034     A.U. after   13 cycles
 SCF Done:  E(UM062X) =  -474.410340078     A.U. after   10 cycles
 Optimization completed.
    -- Stationary point found.

                          Input orientation:
 ---------------------------------------------------------------------
 Center     Atomic      Atomic             Coordinates (Angstroms)
 Number     Number       Type             X           Y           Z
 ---------------------------------------------------------------------
      1          8           0       -1.486154   -0.000742    0.000924
      2         16           0        1.485990    0.000168   -0.000798
      3          1           0       -1.479974   -0.959121   -0.149167
      4          1           0        1.317236    1.060872   -0.812706
 ---------------------------------------------------------------------

 Alpha  occ. eigenvalues --  -89.97814 -19.67505  -8.33904  -6.26124  -6.25749
 Alpha  occ. eigenvalues --   -6.25187  -1.08601  -0.83586  -0.52650  -0.49440
 Alpha  occ. eigenvalues --   -0.39875  -0.36308  -0.35406
 Alpha virt. eigenvalues --   -0.20067   0.01629   0.03967   0.04676   0.05554
 Alpha virt. eigenvalues --    0.07187   0.14193   0.19399   0.19961   0.21284
 Alpha virt. eigenvalues --    0.26020   0.31016   0.33999   0.35269   0.39541

  Beta  occ. eigenvalues --  -89.97814 -19.67505  -8.33904  -6.26124  -6.25749
  Beta  occ. eigenvalues --   -6.25187  -1.08601  -0.83586  -0.52650  -0.49440
  Beta  occ. eigenvalues --   -0.39875  -0.36308  -0.35406
  Beta virt. eigenvalues --   -0.20067   0.01629   0.03967   0.04676   0.05554
  Beta virt. eigenvalues --    0.07187   0.14193   0.19399   0.19961   0.21284
  Beta virt. eigenvalues --    0.26020   0.31016   0.33999   0.35269   0.39541

 Mulliken charges and spin densities:
               1          2
     1  O   -0.414480  -0.000004
     2  S    0.054264   0.000004
     3  H    0.248243   0.000000
     4  H    0.111973  -0.000000
 Sum of Mulliken charges =  -0.00000  -0.00000

 Dipole moment (field-independent basis, Debye):
    X=              2.0910    Y=             -0.7664    Z=             -0.9840  Tot=              2.4347
 Quadrupole moment (field-independent basis, Debye-Ang):
   XX=            -18.1857   YY=            -17.6101   ZZ=            -21.0848
   XY=              4.1585   XZ=             -0.6419   YZ=             -1.6140

 Normal termination of Gaussian 16 at Mon Apr 21 22:43:08 2025.
