 Gaussian 16, Revision A.03,
 Gaussian 16:  ES64L-G16RevA.03 25-Dec-2016

 --------------------------------------------
 #p opt UM062X/6-311+G** nosymm int=superfine
 --------------------------------------------

 -------------------
 Title Card Required
 -------------------
 Symbolic Z-matrix:
 Charge = -1 Multiplicity = 2

 SCF Done:  E(UM062X) =  -53.1943796517     A.U. after   12 cycles
 SCF Done:  E(UM062X) =  -53.1992952599     A.U. after   11 cycles
 SCF Done:  E(UM062X) =  -53.2003875325     A.U. after   10 cycles
 SCF Done:  E(UM062X) =  -53.2003970267     A.U. after    8 cycles
 Optimization completed.
    -- Stationary point found.

                          Input orientation:
 ---------------------------------------------------------------------
 Center     Atomic      Atomic             Coordinates (Angstroms)
 Number     Number       Type             X           Y           Z
 ---------------------------------------------------------------------
      1          5           0       -2.340672    0.000000    0.000000
      2          5           0        2.340672    0.000000    0.000000
      3          1           0        2.391548   -1.197015   -0.000016
      4          1           0       -2.391110   -0.598521    1.036671
      5          1           0        2.391278    0.598539   -1.036653
      6          1           0        2.391040    0.598507    1.036682
      7          1           0       -2.391556    1.197015   -0.000001
      8          1           0       -2.391200   -0.598526   -1.036664
 ---------------------------------------------------------------------

 Alpha  occ. eigenvalues --   -6.85390  -6.85390  -0.40628  -0.40378  -0.22521
 Alpha  occ. eigenvalues --   -0.22520  -0.22423  -0.22423   0.01451
 Alpha virt. eigenvalues --    0.09960   0.16384   0.17493   0.17493   0.18019
 Alpha virt. eigenvalues --    0.18019   0.18286   0.23392   0.24005   0.32699
 Alpha virt. eigenvalues --    0.32700   0.33483   0.33483   0.34449   0.38457

  Beta  occ. eigenvalues --   -6.85353  -6.85353  -0.38980  -0.38808  -0.22376
  Beta  occ. eigenvalues --   -0.22375  -0.22255  -0.22255
  Beta virt. eigenvalues --    0.05783   0.12769   0.12926   0.14037   0.14038
  Beta virt. eigenvalues --    0.17430   0.17430   0.19557   0.22474   0.24579
  Beta virt. eigenvalues --    0.31668   0.31668   0.31961   0.32517   0.32520

 Mulliken charges and spin densities:
               1          2
     1  B   -0.363551   0.545845
     2  B   -0.363551   0.545844
     3  H   -0.045544  -0.015341
     4  H   -0.045450  -0.015251
     5  H   -0.045457  -0.015252
     6  H   -0.045448  -0.015251
     7  H   -0.045544  -0.015341
     8  H   -0.045454  -0.015252
 Sum of Mulliken charges =  -1.00000   1.00000

 Dipole moment (field-independent basis, Debye):
    X=              0.0000    Y=             -0.0000    Z=              0.0001  Tot=              0.0001
 Quadrupole moment (field-independent basis, Debye-Ang):
   XX=            -49.8762   YY=            -24.3788   ZZ=            -24.3784
   XY=              0.0002   XZ=              0.0000   YZ=              0.0000

 Normal termination of Gaussian 16 at Mon Apr 21 16:58:20 2025.
