 Gaussian 16, Revision A.03,
 Gaussian 16:  ES64L-G16RevA.03 25-Dec-2016

 --------------------------------------------
 #p opt UM062X/6-311+G** nosymm int=superfine
 --------------------------------------------

 -------------------
 Title Card Required
 -------------------
 Symbolic Z-matrix:
 Charge =  1 Multiplicity = 2

 SCF Done:  E(UM062X) =  -79.3146279363     A.U. after   10 cycles
 SCF Done:  E(UM062X) =  -79.3160838665     A.U. after    9 cycles
 SCF Done:  E(UM062X) =  -79.3160988609     A.U. after    9 cycles
 Optimization completed.
    -- Stationary point found.

                          Input orientation:
 ---------------------------------------------------------------------
 Center     Atomic      Atomic             Coordinates (Angstroms)
 Number     Number       Type             X           Y           Z
 ---------------------------------------------------------------------
      1          6           0       -2.068674    0.000000    0.000000
      2          6           0        2.068674    0.000000    0.000000
      3          1           0        2.093397   -0.937477    0.542596
      4          1           0       -2.091547   -0.938573   -0.540774
      5          1           0        2.092600    0.938668    0.540567
      6          1           0        2.091588   -0.001170   -1.083214
      7          1           0       -2.093453    0.937584   -0.542409
      8          1           0       -2.092585    0.000949    1.083194
 ---------------------------------------------------------------------

 Alpha  occ. eigenvalues --  -10.83234 -10.83233  -1.01823  -1.01559  -0.72906
 Alpha  occ. eigenvalues --   -0.72905  -0.72826  -0.72826  -0.46813
 Alpha virt. eigenvalues --   -0.37751  -0.12556  -0.10108  -0.09246  -0.09246
 Alpha virt. eigenvalues --   -0.06205  -0.06205  -0.04400  -0.02766   0.00239
 Alpha virt. eigenvalues --    0.00241   0.01438   0.01440   0.02475   0.08937

  Beta  occ. eigenvalues --  -10.83010 -10.83010  -0.99165  -0.99014  -0.72375
  Beta  occ. eigenvalues --   -0.72374  -0.72282  -0.72281
  Beta virt. eigenvalues --   -0.32218  -0.26669  -0.16945  -0.10638  -0.10637
  Beta virt. eigenvalues --   -0.10237  -0.06174  -0.06174  -0.05503  -0.01804
  Beta virt. eigenvalues --    0.00073   0.00076   0.01690   0.01693   0.02286

 Mulliken charges and spin densities:
               1          2
     1  C   -0.243975   0.557517
     2  C   -0.243974   0.557517
     3  H    0.248008  -0.019173
     4  H    0.247971  -0.019173
     5  H    0.247990  -0.019177
     6  H    0.247976  -0.019167
     7  H    0.248009  -0.019173
     8  H    0.247995  -0.019170
 Sum of Mulliken charges =   1.00000   1.00000

 Dipole moment (field-independent basis, Debye):
    X=             -0.0000    Y=             -0.0000    Z=             -0.0001  Tot=              0.0001
 Quadrupole moment (field-independent basis, Debye-Ang):
   XX=              9.0417   YY=            -11.1190   ZZ=            -11.1191
   XY=             -0.0020   XZ=              0.0011   YZ=              0.0000

 Normal termination of Gaussian 16 at Sat Nov 16 16:08:51 2024.
