 Gaussian 16, Revision A.03,
 Gaussian 16:  ES64L-G16RevA.03 25-Dec-2016

 --------------------------------------------
 #p opt UM062X/6-311+G** nosymm int=superfine
 --------------------------------------------

 -------------------
 Title Card Required
 -------------------
 Symbolic Z-matrix:
 Charge =  0 Multiplicity = 1

 SCF Done:  E(UM062X) =  -382.373195177     A.U. after   11 cycles
 SCF Done:  E(UM062X) =  -382.377153687     A.U. after   10 cycles
 SCF Done:  E(UM062X) =  -382.377898798     A.U. after   10 cycles
 SCF Done:  E(UM062X) =  -382.377912085     A.U. after    8 cycles
 SCF Done:  E(UM062X) =  -382.377914519     A.U. after    8 cycles
 Optimization completed.
    -- Stationary point found.

                          Input orientation:
 ---------------------------------------------------------------------
 Center     Atomic      Atomic             Coordinates (Angstroms)
 Number     Number       Type             X           Y           Z
 ---------------------------------------------------------------------
      1          6           0       -1.206264    0.000000    0.000000
      2         15           0        1.206264    0.000000    0.000000
      3          1           0        1.247616   -1.416886    0.023410
      4          1           0       -1.458519    1.029248    0.226284
      5          1           0        1.247558    0.088452    1.414301
      6          1           0       -1.458506   -0.305251   -1.008658
      7          1           0       -1.483071   -0.711417    0.768763
 ---------------------------------------------------------------------

 Alpha  occ. eigenvalues --  -78.02798 -10.56151  -6.85147  -4.96682  -4.96654
 Alpha  occ. eigenvalues --   -4.96441  -0.77882  -0.68894  -0.48381  -0.48239
 Alpha  occ. eigenvalues --   -0.43293  -0.35577  -0.30385
 Alpha virt. eigenvalues --   -0.01903   0.01480   0.03996   0.04521   0.05526
 Alpha virt. eigenvalues --    0.06441   0.06656   0.07771   0.07872   0.13328
 Alpha virt. eigenvalues --    0.17665   0.18860   0.19155   0.26399   0.30257

  Beta  occ. eigenvalues --  -78.02798 -10.56151  -6.85147  -4.96682  -4.96654
  Beta  occ. eigenvalues --   -4.96441  -0.77882  -0.68894  -0.48381  -0.48239
  Beta  occ. eigenvalues --   -0.43293  -0.35577  -0.30385
  Beta virt. eigenvalues --   -0.01903   0.01480   0.03996   0.04521   0.05526
  Beta virt. eigenvalues --    0.06441   0.06656   0.07771   0.07872   0.13328
  Beta virt. eigenvalues --    0.17665   0.18860   0.19155   0.26399   0.30257

 Mulliken charges and spin densities:
               1          2
     1  C   -0.562638   0.000000
     2  P   -0.005469   0.000000
     3  H    0.014377  -0.000000
     4  H    0.179774  -0.000000
     5  H    0.014383  -0.000000
     6  H    0.179784  -0.000000
     7  H    0.179788  -0.000000
 Sum of Mulliken charges =  -0.00000  -0.00000

 Dipole moment (field-independent basis, Debye):
    X=             -0.6778    Y=             -0.4982    Z=              0.5392  Tot=              0.9991
 Quadrupole moment (field-independent basis, Debye-Ang):
   XX=            -23.0738   YY=            -22.0648   ZZ=            -22.1796
   XY=             -1.0867   XZ=              1.1761   YZ=              0.7256

 Normal termination of Gaussian 16 at Mon Apr 21 19:03:00 2025.
