 Gaussian 16, Revision A.03,
 Gaussian 16:  ES64L-G16RevA.03 25-Dec-2016

 --------------------------------------------
 #p opt UM062X/6-311+G** nosymm int=superfine
 --------------------------------------------

 -------------------
 Title Card Required
 -------------------
 Symbolic Z-matrix:
 Charge =  1 Multiplicity = 2

 SCF Done:  E(UM062X) =  -80.1667403313     A.U. after   23 cycles
 SCF Done:  E(UM062X) =  -80.1675308208     A.U. after   11 cycles
 SCF Done:  E(UM062X) =  -80.1675334206     A.U. after   10 cycles
 SCF Done:  E(UM062X) =  -80.1675334767     A.U. after   10 cycles
 SCF Done:  E(UM062X) =  -80.1694883299     A.U. after   16 cycles
 SCF Done:  E(UM062X) =  -80.1708132401     A.U. after   15 cycles
 SCF Done:  E(UM062X) =  -80.1711770311     A.U. after   13 cycles
 SCF Done:  E(UM062X) =  -80.1711856409     A.U. after   12 cycles
 SCF Done:  E(UM062X) =  -80.1711857673     A.U. after   11 cycles
 SCF Done:  E(UM062X) =  -80.1719876843     A.U. after   18 cycles
 SCF Done:  E(UM062X) =  -80.1740637436     A.U. after   17 cycles
 SCF Done:  E(UM062X) =  -80.1783313995     A.U. after   17 cycles
 SCF Done:  E(UM062X) =  -80.1794008392     A.U. after   14 cycles
 SCF Done:  E(UM062X) =  -80.1795388076     A.U. after   13 cycles
 SCF Done:  E(UM062X) =  -80.1797401190     A.U. after   13 cycles
 SCF Done:  E(UM062X) =  -80.1798136173     A.U. after   13 cycles
 SCF Done:  E(UM062X) =  -80.1798327660     A.U. after   12 cycles
 SCF Done:  E(UM062X) =  -80.1798330458     A.U. after    9 cycles
 Optimization completed.
    -- Stationary point found.

                          Input orientation:
 ---------------------------------------------------------------------
 Center     Atomic      Atomic             Coordinates (Angstroms)
 Number     Number       Type             X           Y           Z
 ---------------------------------------------------------------------
      1          5           0       -1.352734    0.000000    0.000000
      2          7           0        1.352734    0.000000    0.000000
      3          1           0       -1.576564   -0.638661   -0.988770
      4          1           0        2.332985    0.180458    0.279161
 ---------------------------------------------------------------------

 Alpha  occ. eigenvalues --  -15.03569  -7.50622  -1.15840  -0.83738  -0.70618
 Alpha  occ. eigenvalues --   -0.62456  -0.62294
 Alpha virt. eigenvalues --   -0.41477  -0.32213  -0.30215  -0.14404  -0.10794
 Alpha virt. eigenvalues --   -0.09523  -0.09058  -0.07463  -0.04733  -0.01130
 Alpha virt. eigenvalues --   -0.01078   0.04340   0.06322   0.07822   0.14603

  Beta  occ. eigenvalues --  -15.00996  -7.51854  -1.02733  -0.87245  -0.67375
  Beta  occ. eigenvalues --   -0.63120
  Beta virt. eigenvalues --   -0.34202  -0.32563  -0.25936  -0.25847  -0.13886
  Beta virt. eigenvalues --   -0.10734  -0.09757  -0.09101  -0.06256  -0.04018
  Beta virt. eigenvalues --    0.00297   0.00359   0.02531   0.07325   0.15105

 Mulliken charges and spin densities:
               1          2
     1  B    0.682898  -0.868856
     2  N   -0.203118   2.053232
     3  H    0.198544  -0.126385
     4  H    0.321676  -0.057991
 Sum of Mulliken charges =   1.00000   1.00000

 Dipole moment (field-independent basis, Debye):
    X=             -2.9742    Y=             -0.0992    Z=             -0.1539  Tot=              2.9798
 Quadrupole moment (field-independent basis, Debye-Ang):
   XX=              5.7375   YY=            -10.1753   ZZ=            -10.1197
   XY=              1.3112   XZ=              2.0292   YZ=              0.0618

 Normal termination of Gaussian 16 at Mon Apr 21 17:56:01 2025.
