 Gaussian 16, Revision A.03,
 Gaussian 16:  ES64L-G16RevA.03 25-Dec-2016

 --------------------------------------------
 #p opt UM062X/6-311+G** nosymm int=superfine
 --------------------------------------------

 -------------------
 Title Card Required
 -------------------
 Symbolic Z-matrix:
 Charge =  0 Multiplicity = 1

 SCF Done:  E(UM062X) =  -77.2858085377     A.U. after    9 cycles
 SCF Done:  E(UM062X) =  -77.2966137963     A.U. after    9 cycles
 SCF Done:  E(UM062X) =  -77.2966717251     A.U. after    8 cycles
 Optimization completed.
    -- Stationary point found.

                          Input orientation:
 ---------------------------------------------------------------------
 Center     Atomic      Atomic             Coordinates (Angstroms)
 Number     Number       Type             X           Y           Z
 ---------------------------------------------------------------------
      1          6           0       -0.652382    0.000000    0.000000
      2          6           0        0.652382    0.000000    0.000000
      3          1           0       -1.719103   -0.000000   -0.000000
      4          1           0        1.719103    0.000000   -0.000000
 ---------------------------------------------------------------------

 Alpha  occ. eigenvalues --  -10.57822 -10.57684  -0.83194  -0.66057  -0.56469
 Alpha  occ. eigenvalues --   -0.34195  -0.34195
 Alpha virt. eigenvalues --    0.02531   0.02569   0.02732   0.02732   0.07824
 Alpha virt. eigenvalues --    0.07824   0.09305   0.13300   0.13300   0.14672
 Alpha virt. eigenvalues --    0.19120   0.24043   0.37018   0.45218   0.57752

  Beta  occ. eigenvalues --  -10.57822 -10.57684  -0.83194  -0.66057  -0.56469
  Beta  occ. eigenvalues --   -0.34195  -0.34195
  Beta virt. eigenvalues --    0.02531   0.02569   0.02732   0.02732   0.07824
  Beta virt. eigenvalues --    0.07824   0.09305   0.13300   0.13300   0.14672
  Beta virt. eigenvalues --    0.19120   0.24043   0.37018   0.45218   0.57752

 Mulliken charges and spin densities:
               1          2
     1  C   -0.194109  -0.000000
     2  C   -0.194109   0.000000
     3  H    0.194109  -0.000000
     4  H    0.194109   0.000000
 Sum of Mulliken charges =  -0.00000  -0.00000

 Dipole moment (field-independent basis, Debye):
    X=             -0.0000    Y=             -0.0000    Z=             -0.0000  Tot=              0.0000
 Quadrupole moment (field-independent basis, Debye-Ang):
   XX=             -6.5119   YY=            -14.2981   ZZ=            -14.2981
   XY=              0.0000   XZ=              0.0000   YZ=              0.0000

 Normal termination of Gaussian 16 at Tue Dec  3 20:04:56 2024.
