 Gaussian 16, Revision A.03,
 Gaussian 16:  ES64L-G16RevA.03 25-Dec-2016

 ---------------------------------------
 #p UM062X/6-311+G** force int=superfine
 ---------------------------------------

 -------------------
 Title Card Required
 -------------------
 Symbolic Z-matrix:
 Charge =  1 Multiplicity = 2

                         Standard orientation:
 ---------------------------------------------------------------------
 Center     Atomic      Atomic             Coordinates (Angstroms)
 Number     Number       Type             X           Y           Z
 ---------------------------------------------------------------------
      1          6           0        1.059262    0.920595   -1.615581
      2          6           0       -1.059264   -0.920592    1.615582
      3          1           0       -1.960777   -0.985212    1.018316
      4          1           0        0.889650    0.056833   -2.247059
      5          1           0       -0.890004   -0.057408    2.247949
      6          1           0       -0.359948   -1.747843    1.630791
      7          1           0        1.960741    0.985438   -1.018289
      8          1           0        0.360346    1.748169   -1.631716
 ---------------------------------------------------------------------

 SCF Done:  E(UM062X) =  -79.3148631503     A.U. after   10 cycles

 The electronic state is 2-A.
 Alpha  occ. eigenvalues --  -10.83005 -10.83004  -1.01615  -1.01395  -0.72717
 Alpha  occ. eigenvalues --   -0.72716  -0.72658  -0.72657  -0.46329
 Alpha virt. eigenvalues --   -0.37836  -0.12409  -0.10063  -0.09108  -0.09108
 Alpha virt. eigenvalues --   -0.06196  -0.06196  -0.04427  -0.02631   0.00468
 Alpha virt. eigenvalues --    0.00471   0.01499   0.01501   0.02343   0.09089

  Beta  occ. eigenvalues --  -10.82779 -10.82779  -0.98953  -0.98840  -0.72180
  Beta  occ. eigenvalues --   -0.72179  -0.72111  -0.72110
  Beta virt. eigenvalues --   -0.31738  -0.26685  -0.17092  -0.10404  -0.10402
  Beta virt. eigenvalues --   -0.10244  -0.06145  -0.06145  -0.05680  -0.01664
  Beta virt. eigenvalues --    0.00362   0.00365   0.01747   0.01749   0.02251

 Mulliken charges and spin densities:
               1          2
     1  C   -0.238816   0.558468
     2  C   -0.238818   0.558466
     3  H    0.246287  -0.019491
     4  H    0.246253  -0.019489
     5  H    0.246275  -0.019490
     6  H    0.246256  -0.019485
     7  H    0.246288  -0.019492
     8  H    0.246275  -0.019487
 Sum of Mulliken charges =   1.00000   1.00000

 Dipole moment (field-independent basis, Debye):
    X=              0.0000    Y=             -0.0000    Z=             -0.0000  Tot=              0.0000
 Quadrupole moment (field-independent basis, Debye-Ang):
   XX=             -5.8530   YY=             -7.1434   ZZ=              1.1275
   XY=              4.5779   XZ=             -8.0332   YZ=             -6.9803

 Normal termination of Gaussian 16 at Tue Nov 19 08:46:01 2024.
