 Gaussian 16, Revision A.03,
 Gaussian 16:  ES64L-G16RevA.03 25-Dec-2016

 --------------------------------------------
 #p opt UM062X/6-311+G** nosymm int=superfine
 --------------------------------------------

 -------------------
 Title Card Required
 -------------------
 Symbolic Z-matrix:
 Charge =  1 Multiplicity = 2

 SCF Done:  E(UM062X) =  -79.3553922615     A.U. after   10 cycles
 SCF Done:  E(UM062X) =  -79.3556896160     A.U. after    9 cycles
 SCF Done:  E(UM062X) =  -79.3556905253     A.U. after    7 cycles
 Optimization completed.
    -- Stationary point found.

                          Input orientation:
 ---------------------------------------------------------------------
 Center     Atomic      Atomic             Coordinates (Angstroms)
 Number     Number       Type             X           Y           Z
 ---------------------------------------------------------------------
      1          6           0       -1.269738    0.000000    0.000000
      2          6           0        1.269738    0.000000    0.000000
      3          1           0        1.347775   -0.935876    0.541617
      4          1           0       -1.346991   -0.936986   -0.539809
      5          1           0        1.347480    0.937054    0.539621
      6          1           0        1.346924   -0.001133   -1.081362
      7          1           0       -1.347801    0.935943   -0.541499
      8          1           0       -1.347389    0.000939    1.081329
 ---------------------------------------------------------------------

 Alpha  occ. eigenvalues --  -10.85647 -10.85642  -1.06258  -1.02522  -0.76234
 Alpha  occ. eigenvalues --   -0.76233  -0.74259  -0.74259  -0.56797
 Alpha virt. eigenvalues --   -0.31940  -0.15197  -0.10593  -0.10593  -0.10004
 Alpha virt. eigenvalues --   -0.06258  -0.06215  -0.06215  -0.03818  -0.03815
 Alpha virt. eigenvalues --   -0.02851   0.01594   0.01596   0.05391   0.07384

  Beta  occ. eigenvalues --  -10.85448 -10.85448  -1.03018  -1.00067  -0.75507
  Beta  occ. eigenvalues --   -0.75506  -0.73691  -0.73690
  Beta virt. eigenvalues --   -0.34423  -0.23025  -0.15613  -0.11099  -0.11099
  Beta virt. eigenvalues --   -0.09521  -0.06562  -0.06562  -0.06235  -0.03684
  Beta virt. eigenvalues --   -0.03682  -0.02098   0.02016   0.02017   0.05844

 Mulliken charges and spin densities:
               1          2
     1  C   -0.285689   0.573867
     2  C   -0.285688   0.573867
     3  H    0.261912  -0.024629
     4  H    0.261878  -0.024617
     5  H    0.261898  -0.024625
     6  H    0.261879  -0.024613
     7  H    0.261913  -0.024629
     8  H    0.261897  -0.024620
 Sum of Mulliken charges =   1.00000   1.00000

 Dipole moment (field-independent basis, Debye):
    X=              0.0000    Y=             -0.0000    Z=             -0.0000  Tot=              0.0001
 Quadrupole moment (field-independent basis, Debye-Ang):
   XX=             -3.5597   YY=            -10.9370   ZZ=            -10.9372
   XY=             -0.0008   XZ=              0.0006   YZ=             -0.0001

 Normal termination of Gaussian 16 at Wed Nov 13 12:41:53 2024.
