 Gaussian 16, Revision A.03,
 Gaussian 16:  ES64L-G16RevA.03 25-Dec-2016

 --------------------------------------------
 #p opt UM062X/6-311+G** nosymm int=superfine
 --------------------------------------------

 -------------------
 Title Card Required
 -------------------
 Symbolic Z-matrix:
 Charge =  1 Multiplicity = 2

 SCF Done:  E(UM062X) =  -92.5754235112     A.U. after   28 cycles
 SCF Done:  E(UM062X) =  -92.5757276753     A.U. after   50 cycles
 Optimization completed.
    -- Stationary point found.

                          Input orientation:
 ---------------------------------------------------------------------
 Center     Atomic      Atomic             Coordinates (Angstroms)
 Number     Number       Type             X           Y           Z
 ---------------------------------------------------------------------
      1          6           0       -1.776540    0.000000    0.000000
      2          7           0        1.776540    0.000000    0.000000
      3          1           0       -2.892951   -0.000000    0.000000
 ---------------------------------------------------------------------

 Alpha  occ. eigenvalues --  -15.22305 -10.97845  -1.17644  -0.98971  -0.72662
 Alpha  occ. eigenvalues --   -0.69725  -0.65707
 Alpha virt. eigenvalues --   -0.42903  -0.34390  -0.32826  -0.13790  -0.09817
 Alpha virt. eigenvalues --   -0.08008  -0.07317  -0.04377  -0.02380  -0.01843
 Alpha virt. eigenvalues --   -0.01499   0.07363   0.25446   0.34922   0.35136

  Beta  occ. eigenvalues --  -15.19667 -10.98240  -1.05645  -1.01235  -0.67002
  Beta  occ. eigenvalues --   -0.51218
  Beta virt. eigenvalues --   -0.43037  -0.39343  -0.36328  -0.34634  -0.13591
  Beta virt. eigenvalues --   -0.10351  -0.08504  -0.08036  -0.04827  -0.02430
  Beta virt. eigenvalues --   -0.02355  -0.01881   0.05586   0.26026   0.34473

 Mulliken charges and spin densities:
               1          2
     1  C    0.277049  -0.489426
     2  N    0.471136   1.473496
     3  H    0.251816   0.015930
 Sum of Mulliken charges =   1.00000   1.00000

 Dipole moment (field-independent basis, Debye):
    X=             -2.7652    Y=             -0.0000    Z=              0.0000  Tot=              2.7652
 Quadrupole moment (field-independent basis, Debye-Ang):
   XX=             14.6145   YY=             -9.5087   ZZ=            -11.1915
   XY=              0.0000   XZ=              0.0000   YZ=             -0.3630

 Normal termination of Gaussian 16 at Mon Apr 21 18:32:23 2025.
