 Gaussian 16, Revision A.03,
 Gaussian 16:  ES64L-G16RevA.03 25-Dec-2016

 --------------------------------------------
 #p opt UM062X/6-311+G** nosymm int=superfine
 --------------------------------------------

 -------------------
 Title Card Required
 -------------------
 Symbolic Z-matrix:
 Charge =  0 Multiplicity = 1

 SCF Done:  E(UM062X) =  -83.1282154470     A.U. after   10 cycles
 SCF Done:  E(UM062X) =  -83.1427573132     A.U. after    9 cycles
 SCF Done:  E(UM062X) =  -83.1455504638     A.U. after    9 cycles
 SCF Done:  E(UM062X) =  -83.1455662099     A.U. after    7 cycles
 Optimization completed.
    -- Stationary point found.

                          Input orientation:
 ---------------------------------------------------------------------
 Center     Atomic      Atomic             Coordinates (Angstroms)
 Number     Number       Type             X           Y           Z
 ---------------------------------------------------------------------
      1          5           0       -1.602429    0.000000    0.000000
      2          7           0        1.602429    0.000000    0.000000
      3          1           0        1.963443   -0.946378    0.000001
      4          1           0       -1.627393   -0.594199    1.029148
      5          1           0        1.963333    0.473243   -0.819608
      6          1           0        1.963320    0.473239    0.819616
      7          1           0       -1.627398    1.188365    0.000015
      8          1           0       -1.627408   -0.594176   -1.029161
 ---------------------------------------------------------------------

 Alpha  occ. eigenvalues --  -14.73701  -7.03577  -0.96788  -0.56755  -0.54654
 Alpha  occ. eigenvalues --   -0.54654  -0.39187  -0.39186  -0.35047
 Alpha virt. eigenvalues --   -0.01300   0.02201   0.04826   0.04826   0.05769
 Alpha virt. eigenvalues --    0.08467   0.10921   0.10921   0.17522   0.17523
 Alpha virt. eigenvalues --    0.18060   0.19748   0.19748   0.23091   0.28467

  Beta  occ. eigenvalues --  -14.73701  -7.03577  -0.96788  -0.56755  -0.54654
  Beta  occ. eigenvalues --   -0.54654  -0.39187  -0.39186  -0.35047
  Beta virt. eigenvalues --   -0.01300   0.02201   0.04826   0.04826   0.05769
  Beta virt. eigenvalues --    0.08467   0.10921   0.10921   0.17522   0.17523
  Beta virt. eigenvalues --    0.18060   0.19748   0.19748   0.23091   0.28467

 Mulliken charges and spin densities:
               1          2
     1  B    0.012425   0.000000
     2  N   -0.743443   0.000000
     3  H    0.251774  -0.000000
     4  H   -0.008102   0.000000
     5  H    0.251775  -0.000000
     6  H    0.251776  -0.000000
     7  H   -0.008103   0.000000
     8  H   -0.008102  -0.000000
 Sum of Mulliken charges =  -0.00000  -0.00000

 Dipole moment (field-independent basis, Debye):
    X=              2.2220    Y=              0.0002    Z=              0.0000  Tot=              2.2220
 Quadrupole moment (field-independent basis, Debye-Ang):
   XX=            -11.3485   YY=            -15.7163   ZZ=            -15.7163
   XY=              0.0000   XZ=             -0.0000   YZ=              0.0000

 Normal termination of Gaussian 16 at Mon Apr 21 17:38:38 2025.
