 Gaussian 16, Revision A.03,
 Gaussian 16:  ES64L-G16RevA.03 25-Dec-2016

 --------------------------------------------
 #p opt UM062X/6-311+G** nosymm int=superfine
 --------------------------------------------

 -------------------
 Title Card Required
 -------------------
 Symbolic Z-matrix:
 Charge =  0 Multiplicity = 1

 SCF Done:  E(UM062X) =  -79.6076468821     A.U. after    8 cycles
 SCF Done:  E(UM062X) =  -79.6459579513     A.U. after    9 cycles
 SCF Done:  E(UM062X) =  -79.6839076136     A.U. after   10 cycles
 SCF Done:  E(UM062X) =  -79.6955104910     A.U. after   10 cycles
 SCF Done:  E(UM062X) =  -79.6959128702     A.U. after    8 cycles
 SCF Done:  E(UM062X) =  -79.6959168382     A.U. after    7 cycles
 Optimization completed.
    -- Stationary point found.

                          Input orientation:
 ---------------------------------------------------------------------
 Center     Atomic      Atomic             Coordinates (Angstroms)
 Number     Number       Type             X           Y           Z
 ---------------------------------------------------------------------
      1          6           0       -1.168227    0.000000    0.000000
      2          6           0        1.168346    0.000000    0.000000
      3          1           0        1.397221   -0.915837    0.529947
      4          1           0       -1.397093   -0.916873   -0.528159
      5          1           0        1.397215    0.916873    0.528157
      6          1           0        1.397202   -0.001031   -1.058118
      7          1           0       -1.397101    0.915837   -0.529947
      8          1           0       -1.397086    0.001030    1.058116
 ---------------------------------------------------------------------

 Alpha  occ. eigenvalues --  -10.55493 -10.55488  -0.77699  -0.73824  -0.48261
 Alpha  occ. eigenvalues --   -0.48261  -0.45930  -0.45930  -0.29300
 Alpha virt. eigenvalues --   -0.00499   0.02488   0.05557   0.05557   0.07476
 Alpha virt. eigenvalues --    0.08299   0.08299   0.09967   0.13109   0.18160
 Alpha virt. eigenvalues --    0.18160   0.22077   0.22077   0.24365   0.26339

  Beta  occ. eigenvalues --  -10.55493 -10.55488  -0.77699  -0.73824  -0.48261
  Beta  occ. eigenvalues --   -0.48261  -0.45930  -0.45930  -0.29300
  Beta virt. eigenvalues --   -0.00499   0.02488   0.05557   0.05557   0.07476
  Beta virt. eigenvalues --    0.08299   0.08299   0.09967   0.13109   0.18160
  Beta virt. eigenvalues --    0.18160   0.22077   0.22077   0.24365   0.26339

 Mulliken charges and spin densities:
               1          2
     1  C   -0.507854   0.000000
     2  C   -0.507854  -0.000000
     3  H    0.169284   0.000000
     4  H    0.169285  -0.000000
     5  H    0.169285   0.000000
     6  H    0.169285   0.000000
     7  H    0.169284   0.000000
     8  H    0.169285   0.000000
 Sum of Mulliken charges =  -0.00000  -0.00000

 Dipole moment (field-independent basis, Debye):
    X=              0.0000    Y=             -0.0000    Z=             -0.0000  Tot=              0.0000
 Quadrupole moment (field-independent basis, Debye-Ang):
   XX=            -15.5410   YY=            -14.8177   ZZ=            -14.8178
   XY=             -0.0000   XZ=              0.0000   YZ=             -0.0000

 Normal termination of Gaussian 16 at Tue Nov 19 12:19:12 2024.
