 Gaussian 16, Revision A.03,
 Gaussian 16:  ES64L-G16RevA.03 25-Dec-2016

 --------------------------------------------
 #p opt UM062X/6-311+G** nosymm int=superfine
 --------------------------------------------

 -------------------
 Title Card Required
 -------------------
 Symbolic Z-matrix:
 Charge =  1 Multiplicity = 2

 SCF Done:  E(UM062X) =  -579.670017294     A.U. after   14 cycles
 SCF Done:  E(UM062X) =  -579.670502173     A.U. after   11 cycles
 SCF Done:  E(UM062X) =  -579.670669990     A.U. after   11 cycles
 SCF Done:  E(UM062X) =  -579.671218724     A.U. after   12 cycles
 SCF Done:  E(UM062X) =  -579.672048864     A.U. after   15 cycles
 SCF Done:  E(UM062X) =  -579.672149122     A.U. after   13 cycles
 SCF Done:  E(UM062X) =  -579.672154787     A.U. after   10 cycles
 SCF Done:  E(UM062X) =  -579.672155270     A.U. after    9 cycles
 SCF Done:  E(UM062X) =  -579.672155764     A.U. after    9 cycles
 SCF Done:  E(UM062X) =  -579.672156633     A.U. after   10 cycles
 SCF Done:  E(UM062X) =  -579.672157915     A.U. after   10 cycles
 SCF Done:  E(UM062X) =  -579.672159144     A.U. after   10 cycles
 SCF Done:  E(UM062X) =  -579.672159509     A.U. after   10 cycles
 SCF Done:  E(UM062X) =  -579.672159511     A.U. after    9 cycles
 Optimization completed.
    -- Stationary point found.

                          Input orientation:
 ---------------------------------------------------------------------
 Center     Atomic      Atomic             Coordinates (Angstroms)
 Number     Number       Type             X           Y           Z
 ---------------------------------------------------------------------
      1         14           0       -2.552975    0.000000    0.000000
      2         14           0        2.552975    0.000000    0.000000
      3          1           0       -2.726889   -1.498555   -0.000000
      4          1           0        2.726668    1.498580    0.000000
 ---------------------------------------------------------------------

 Alpha  occ. eigenvalues --  -67.25617 -67.25617  -5.79799  -5.79799  -4.10904
 Alpha  occ. eigenvalues --   -4.10904  -4.10813  -4.10813  -4.10167  -4.10167
 Alpha  occ. eigenvalues --   -0.74618  -0.74382  -0.51424  -0.51277  -0.37903
 Alpha virt. eigenvalues --   -0.30061  -0.26493  -0.26172  -0.10299  -0.08908
 Alpha virt. eigenvalues --   -0.08136  -0.07271  -0.07265  -0.06199  -0.05406
 Alpha virt. eigenvalues --   -0.05348  -0.04770  -0.02196   0.13577   0.14998

  Beta  occ. eigenvalues --  -67.25356 -67.25355  -5.79726  -5.79725  -4.10750
  Beta  occ. eigenvalues --   -4.10750  -4.10195  -4.10195  -4.10070  -4.10070
  Beta  occ. eigenvalues --   -0.72811  -0.72724  -0.50779  -0.50629
  Beta virt. eigenvalues --   -0.27178  -0.26267  -0.25768  -0.23980  -0.14727
  Beta virt. eigenvalues --   -0.10747  -0.09028  -0.07980  -0.07499  -0.06176
  Beta virt. eigenvalues --   -0.05729  -0.05128  -0.04872  -0.02214   0.09703

 Mulliken charges and spin densities:
               1          2
     1  Si   0.586107   0.508117
     2  Si   0.586115   0.508110
     3  H   -0.086110  -0.008113
     4  H   -0.086112  -0.008113
 Sum of Mulliken charges =   1.00000   1.00000

 Dipole moment (field-independent basis, Debye):
    X=             -0.0000    Y=              0.0000    Z=             -0.0000  Tot=              0.0000
 Quadrupole moment (field-independent basis, Debye-Ang):
   XX=             12.2012   YY=            -27.8126   ZZ=            -20.0123
   XY=              2.4220   XZ=              0.0000   YZ=             -0.0000

 Normal termination of Gaussian 16 at Mon Apr 21 20:45:43 2025.
