 Gaussian 16, Revision A.03,
 Gaussian 16:  ES64L-G16RevA.03 25-Dec-2016

 --------------------------------------------
 #p opt UM062X/6-311+G** nosymm int=superfine
 --------------------------------------------

 -------------------
 Title Card Required
 -------------------
 Symbolic Z-matrix:
 Charge =  0 Multiplicity = 1

 SCF Done:  E(UM062X) =  -51.9369848379     A.U. after    8 cycles
 SCF Done:  E(UM062X) =  -51.9382875201     A.U. after    8 cycles
 SCF Done:  E(UM062X) =  -51.9387142476     A.U. after    9 cycles
 SCF Done:  E(UM062X) =  -51.9387059045     A.U. after    8 cycles
 SCF Done:  E(UM062X) =  -51.9387173870     A.U. after    8 cycles
 SCF Done:  E(UM062X) =  -51.9284429789     A.U. after    9 cycles
 SCF Done:  E(UM062X) =  -51.9391039384     A.U. after   10 cycles
 SCF Done:  E(UM062X) =  -51.9403060511     A.U. after   11 cycles
 SCF Done:  E(UM062X) =  -51.9376696803     A.U. after   11 cycles
 SCF Done:  E(UM062X) =  -51.9409897290     A.U. after    9 cycles
 SCF Done:  E(UM062X) =  -51.9414789516     A.U. after    9 cycles
 SCF Done:  E(UM062X) =  -51.9415025924     A.U. after    9 cycles
 SCF Done:  E(UM062X) =  -51.9415097469     A.U. after    8 cycles
 Optimization completed.
    -- Stationary point found.

                          Input orientation:
 ---------------------------------------------------------------------
 Center     Atomic      Atomic             Coordinates (Angstroms)
 Number     Number       Type             X           Y           Z
 ---------------------------------------------------------------------
      1          5           0       -1.170607    0.000000    0.000000
      2          5           0        1.170607    0.000000    0.000000
      3          1           0       -1.733816   -0.738836   -0.736642
      4          1           0        1.734680    0.736176   -0.738624
      5          1           0       -1.734526    0.738644    0.736274
      6          1           0        1.733710   -0.736372    0.739193
 ---------------------------------------------------------------------

 Alpha  occ. eigenvalues --   -7.08351  -7.08342  -0.58138  -0.54931  -0.42203
 Alpha  occ. eigenvalues --   -0.42203  -0.29014
 Alpha virt. eigenvalues --   -0.03599  -0.03597   0.02323   0.02566   0.04941
 Alpha virt. eigenvalues --    0.04941   0.06998   0.07594   0.07594   0.09632
 Alpha virt. eigenvalues --    0.11701   0.15966   0.19223   0.21289   0.21290

  Beta  occ. eigenvalues --   -7.08351  -7.08342  -0.58138  -0.54931  -0.42203
  Beta  occ. eigenvalues --   -0.42203  -0.29014
  Beta virt. eigenvalues --   -0.03599  -0.03597   0.02323   0.02566   0.04941
  Beta virt. eigenvalues --    0.04941   0.06998   0.07594   0.07594   0.09632
  Beta virt. eigenvalues --    0.11701   0.15966   0.19223   0.21289   0.21290

 Mulliken charges and spin densities:
               1          2
     1  B   -0.031076  -0.000000
     2  B   -0.031084   0.000000
     3  H    0.015534   0.000000
     4  H    0.015548  -0.000000
     5  H    0.015547   0.000000
     6  H    0.015531  -0.000000
 Sum of Mulliken charges =  -0.00000  -0.00000

 Dipole moment (field-independent basis, Debye):
    X=             -0.0001    Y=             -0.0003    Z=             -0.0000  Tot=              0.0003
 Quadrupole moment (field-independent basis, Debye-Ang):
   XX=            -16.2733   YY=            -15.0992   ZZ=            -15.1000
   XY=             -0.0000   XZ=             -0.0012   YZ=              0.0000

 Normal termination of Gaussian 16 at Mon Apr 21 17:10:21 2025.
