 Gaussian 16, Revision A.03,
 Gaussian 16:  ES64L-G16RevA.03 25-Dec-2016

 --------------------------------------------
 #p opt UM062X/6-311+G** nosymm int=superfine
 --------------------------------------------

 -------------------
 Title Card Required
 -------------------
 Symbolic Z-matrix:
 Charge =  0 Multiplicity = 1

 SCF Done:  E(UM062X) =  -79.5565498839     A.U. after   10 cycles
 SCF Done:  E(UM062X) =  -79.5609496446     A.U. after   10 cycles
 SCF Done:  E(UM062X) =  -79.5630124155     A.U. after   12 cycles
 SCF Done:  E(UM062X) =  -79.5630330263     A.U. after    9 cycles
 Optimization completed.
    -- Stationary point found.

                          Input orientation:
 ---------------------------------------------------------------------
 Center     Atomic      Atomic             Coordinates (Angstroms)
 Number     Number       Type             X           Y           Z
 ---------------------------------------------------------------------
      1          6           0       -2.171675    0.000000    0.000000
      2          6           0        2.171800    0.000000    0.000000
      3          1           0        2.210696   -0.934016    0.540465
      4          1           0       -2.210552   -0.935070   -0.538642
      5          1           0        2.210681    0.935070    0.538641
      6          1           0        2.210718   -0.001053   -1.079114
      7          1           0       -2.210571    0.934016   -0.540465
      8          1           0       -2.210597    0.001052    1.079114
 ---------------------------------------------------------------------

 Alpha  occ. eigenvalues --  -10.57257 -10.57257  -0.77195  -0.77000  -0.49416
 Alpha  occ. eigenvalues --   -0.49415  -0.49352  -0.49352  -0.20934
 Alpha virt. eigenvalues --   -0.12348   0.03054   0.04805   0.05257   0.05257
 Alpha virt. eigenvalues --    0.07231   0.07231   0.10942   0.12850   0.18774
 Alpha virt. eigenvalues --    0.18774   0.19836   0.19836   0.20856   0.25291

  Beta  occ. eigenvalues --  -10.57257 -10.57257  -0.77195  -0.77000  -0.49416
  Beta  occ. eigenvalues --   -0.49415  -0.49352  -0.49352  -0.20934
  Beta virt. eigenvalues --   -0.12348   0.03054   0.04805   0.05257   0.05257
  Beta virt. eigenvalues --    0.07231   0.07231   0.10942   0.12850   0.18774
  Beta virt. eigenvalues --    0.18774   0.19836   0.19836   0.20856   0.25291

 Mulliken charges and spin densities:
               1          2
     1  C   -0.520701   0.000001
     2  C   -0.520701  -0.000001
     3  H    0.173567   0.000000
     4  H    0.173568  -0.000000
     5  H    0.173568   0.000000
     6  H    0.173566   0.000000
     7  H    0.173567  -0.000000
     8  H    0.173566  -0.000000
 Sum of Mulliken charges =  -0.00000   0.00000

 Dipole moment (field-independent basis, Debye):
    X=             -0.0000    Y=             -0.0000    Z=             -0.0000  Tot=              0.0000
 Quadrupole moment (field-independent basis, Debye-Ang):
   XX=            -16.2098   YY=            -14.8859   ZZ=            -14.8860
   XY=             -0.0000   XZ=             -0.0001   YZ=             -0.0000

 Normal termination of Gaussian 16 at Tue Dec  3 10:11:08 2024.
