 Gaussian 16, Revision A.03,
 Gaussian 16:  ES64L-G16RevA.03 25-Dec-2016

 --------------------------------------------
 #p opt UM062X/6-311+G** nosymm int=superfine
 --------------------------------------------

 -------------------
 Title Card Required
 -------------------
 Symbolic Z-matrix:
 Charge =  0 Multiplicity = 1

 SCF Done:  E(UM062X) =  -151.516970823     A.U. after   13 cycles
 SCF Done:  E(UM062X) =  -151.518858419     A.U. after   14 cycles
 SCF Done:  E(UM062X) =  -151.518980966     A.U. after   14 cycles
 SCF Done:  E(UM062X) =  -151.519051849     A.U. after   12 cycles
 SCF Done:  E(UM062X) =  -151.519052229     A.U. after    8 cycles
 Optimization completed.
    -- Stationary point found.

                          Input orientation:
 ---------------------------------------------------------------------
 Center     Atomic      Atomic             Coordinates (Angstroms)
 Number     Number       Type             X           Y           Z
 ---------------------------------------------------------------------
      1          8           0       -0.811938    0.000000    0.000000
      2          8           0        0.811938    0.000000    0.000000
      3          1           0       -0.903853   -0.944415   -0.183326
      4          1           0        0.903825    0.549296    0.789813
 ---------------------------------------------------------------------

 Alpha  occ. eigenvalues --  -19.70325 -19.70314  -1.21016  -1.05350  -0.58969
 Alpha  occ. eigenvalues --   -0.57399  -0.49119  -0.44658  -0.38778
 Alpha virt. eigenvalues --   -0.03004   0.05833   0.10462   0.15620   0.16375
 Alpha virt. eigenvalues --    0.18152   0.20513   0.21097   0.22109   0.26236
 Alpha virt. eigenvalues --    0.33394   0.50024   0.52975   0.95741   0.99821

  Beta  occ. eigenvalues --  -19.70325 -19.70314  -1.21016  -1.05350  -0.58969
  Beta  occ. eigenvalues --   -0.57399  -0.49119  -0.44658  -0.38778
  Beta virt. eigenvalues --   -0.03004   0.05833   0.10462   0.15620   0.16375
  Beta virt. eigenvalues --    0.18152   0.20513   0.21097   0.22109   0.26236
  Beta virt. eigenvalues --    0.33394   0.50024   0.52975   0.95741   0.99821

 Mulliken charges and spin densities:
               1          2
     1  O   -0.273707  -0.000000
     2  O   -0.273699   0.000000
     3  H    0.273703  -0.000000
     4  H    0.273703  -0.000000
 Sum of Mulliken charges =   0.00000  -0.00000

 Dipole moment (field-independent basis, Debye):
    X=             -0.0000    Y=             -0.7414    Z=              1.1380  Tot=              1.3582
 Quadrupole moment (field-independent basis, Debye-Ang):
   XX=            -11.7833   YY=            -10.0625   ZZ=            -11.5401
   XY=              2.9417   XZ=              1.9165   YZ=              1.6725

 Normal termination of Gaussian 16 at Mon Apr 21 21:34:30 2025.
