 Gaussian 16, Revision A.03,
 Gaussian 16:  ES64L-G16RevA.03 25-Dec-2016

 --------------------------------------------
 #p opt UM062X/6-311+G** nosymm int=superfine
 --------------------------------------------

 -------------------
 Title Card Required
 -------------------
 Symbolic Z-matrix:
 Charge =  0 Multiplicity = 1

 SCF Done:  E(UM062X) =  -115.488693872     A.U. after   15 cycles
 SCF Done:  E(UM062X) =  -115.504741339     A.U. after   11 cycles
 SCF Done:  E(UM062X) =  -115.513534524     A.U. after   13 cycles
 SCF Done:  E(UM062X) =  -115.513683347     A.U. after   12 cycles
 SCF Done:  E(UM062X) =  -115.513777886     A.U. after   10 cycles
 SCF Done:  E(UM062X) =  -115.513803469     A.U. after   11 cycles
 SCF Done:  E(UM062X) =  -115.513806076     A.U. after    9 cycles
 SCF Done:  E(UM062X) =  -115.513806443     A.U. after    9 cycles
 SCF Done:  E(UM062X) =  -115.513806639     A.U. after    8 cycles
 SCF Done:  E(UM062X) =  -115.513806831     A.U. after   10 cycles
 SCF Done:  E(UM062X) =  -115.513806907     A.U. after    8 cycles
 Optimization completed.
    -- Stationary point found.

                          Input orientation:
 ---------------------------------------------------------------------
 Center     Atomic      Atomic             Coordinates (Angstroms)
 Number     Number       Type             X           Y           Z
 ---------------------------------------------------------------------
      1          6           0       -1.457203    0.000000    0.000000
      2          8           0        1.457203    0.000000    0.000000
      3          1           0        1.497537   -0.964766    0.000259
      4          1           0       -1.545921   -0.531155    0.937363
      5          1           0       -1.417946    1.080099   -0.000773
      6          1           0       -1.545966   -0.532499   -0.936596
 ---------------------------------------------------------------------

 Alpha  occ. eigenvalues --  -19.59213 -10.66343  -1.01490  -0.83858  -0.55974
 Alpha  occ. eigenvalues --   -0.55711  -0.45979  -0.32930  -0.30258
 Alpha virt. eigenvalues --   -0.13998   0.00636   0.04047   0.04462   0.06518
 Alpha virt. eigenvalues --    0.13960   0.15520   0.15752   0.20099   0.22941
 Alpha virt. eigenvalues --    0.23032   0.24712   0.30764   0.39691   0.40068

  Beta  occ. eigenvalues --  -19.59213 -10.66343  -1.01490  -0.83858  -0.55974
  Beta  occ. eigenvalues --   -0.55711  -0.45979  -0.32930  -0.30258
  Beta virt. eigenvalues --   -0.13998   0.00636   0.04047   0.04462   0.06518
  Beta virt. eigenvalues --    0.13960   0.15520   0.15752   0.20099   0.22941
  Beta virt. eigenvalues --    0.23032   0.24712   0.30764   0.39691   0.40068

 Mulliken charges and spin densities:
               1          2
     1  C   -0.287763   0.000000
     2  O   -0.566806  -0.000000
     3  H    0.214371   0.000000
     4  H    0.207938  -0.000000
     5  H    0.224333  -0.000000
     6  H    0.207927  -0.000000
 Sum of Mulliken charges =  -0.00000   0.00000

 Dipole moment (field-independent basis, Debye):
    X=             -5.1424    Y=             -1.5524    Z=              0.0004  Tot=              5.3716
 Quadrupole moment (field-independent basis, Debye-Ang):
   XX=            -13.2367   YY=            -11.4319   ZZ=            -13.8571
   XY=             -2.5105   XZ=              0.0006   YZ=             -0.0007

 Normal termination of Gaussian 16 at Mon Apr 21 18:43:56 2025.
