 Gaussian 16, Revision A.03,
 Gaussian 16:  ES64L-G16RevA.03 25-Dec-2016

 ---------------------------------------------------
 #p UM062X/6-311+G** force int=superfine pop=saveNBO
 ---------------------------------------------------

 -------------------
 Title Card Required
 -------------------
 Symbolic Z-matrix:
 Charge =  0 Multiplicity = 1

                         Standard orientation:
 ---------------------------------------------------------------------
 Center     Atomic      Atomic             Coordinates (Angstroms)
 Number     Number       Type             X           Y           Z
 ---------------------------------------------------------------------
      1          8           0        0.000000    0.000000    1.918562
      2          8           0        0.000000    0.000000   -1.918562
 ---------------------------------------------------------------------

 SCF Done:  E(UM062X) =  -149.767884169     A.U. after   10 cycles

 Unable to determine electronic state:  partially filled degenerate orbitals.
 Alpha  occ. eigenvalues --  -19.82184 -19.82182  -1.10026  -1.09783  -0.48357
 Alpha  occ. eigenvalues --   -0.48275  -0.39423  -0.38951
 Alpha virt. eigenvalues --   -0.31514  -0.30959   0.08998   0.12405   0.14523
 Alpha virt. eigenvalues --    0.14600   0.16858   0.18695   0.18913   0.27497
 Alpha virt. eigenvalues --    0.99649   1.00472   1.00929   1.01497   1.02813

  Beta  occ. eigenvalues --  -19.82184 -19.82182  -1.10026  -1.09783  -0.48357
  Beta  occ. eigenvalues --   -0.48275  -0.39423  -0.38951
  Beta virt. eigenvalues --   -0.31514  -0.30959   0.08998   0.12405   0.14523
  Beta virt. eigenvalues --    0.14600   0.16858   0.18695   0.18913   0.27497
  Beta virt. eigenvalues --    0.99649   1.00472   1.00929   1.01497   1.02813

 Mulliken charges and spin densities:
               1          2
     1  O   -0.000000   0.000000
     2  O   -0.000000   0.000000
 Sum of Mulliken charges =  -0.00000   0.00000

 Dipole moment (field-independent basis, Debye):
    X=              0.0000    Y=             -0.0000    Z=              0.0000  Tot=              0.0000
 Quadrupole moment (field-independent basis, Debye-Ang):
   XX=            -10.1552   YY=            -12.0465   ZZ=             -9.4407
   XY=             -0.0000   XZ=             -0.0000   YZ=              0.0000

 Summary of Natural Population Analysis:

                                       Natural Population
                Natural  -----------------------------------------------
    Atom  No    Charge         Core      Valence    Rydberg      Total
 -----------------------------------------------------------------------
      O    1   -0.00000      1.00000     2.99889    0.00111     4.00000
      O    2    0.00000      1.00000     2.99889    0.00111     4.00000
 =======================================================================
   * Total *   -0.00000      2.00000     5.99778    0.00222     8.00000

 Normal termination of Gaussian 16 at Mon Apr 21 19:53:47 2025.
