 Gaussian 16, Revision A.03,
 Gaussian 16:  ES64L-G16RevA.03 25-Dec-2016

 --------------------------------------------
 #p opt UM062X/6-311+G** nosymm int=superfine
 --------------------------------------------

 -------------------
 Title Card Required
 -------------------
 Symbolic Z-matrix:
 Charge =  0 Multiplicity = 1

 SCF Done:  E(UM062X) =  -474.360254343     A.U. after   22 cycles
 SCF Done:  E(UM062X) =  -474.360322245     A.U. after   19 cycles
 SCF Done:  E(UM062X) =  -474.360326773     A.U. after   35 cycles
 SCF Done:  E(UM062X) =  -474.360326988     A.U. after   18 cycles
 SCF Done:  E(UM062X) =  -474.360329451     A.U. after   23 cycles
 SCF Done:  E(UM062X) =  -474.360329901     A.U. after   17 cycles
 SCF Done:  E(UM062X) =  -474.360330562     A.U. after   22 cycles
 SCF Done:  E(UM062X) =  -474.360330589     A.U. after   17 cycles
 Optimization completed.
    -- Stationary point found.

                          Input orientation:
 ---------------------------------------------------------------------
 Center     Atomic      Atomic             Coordinates (Angstroms)
 Number     Number       Type             X           Y           Z
 ---------------------------------------------------------------------
      1          8           0       -1.911006   -0.000050    0.000032
      2         16           0        1.911008    0.000063   -0.000052
      3          1           0       -1.874494   -0.544015    0.802474
      4          1           0        1.635950    0.555999   -1.196081
 ---------------------------------------------------------------------

 Alpha  occ. eigenvalues --  -89.97790 -19.67116  -8.33981  -6.26186  -6.25829
 Alpha  occ. eigenvalues --   -6.25259  -1.08383  -0.83948  -0.52466  -0.49814
 Alpha  occ. eigenvalues --   -0.39692  -0.35863  -0.33138
 Alpha virt. eigenvalues --   -0.23488   0.01541   0.03875   0.04669   0.05321
 Alpha virt. eigenvalues --    0.06656   0.12878   0.19176   0.19765   0.21097
 Alpha virt. eigenvalues --    0.24456   0.30781   0.33948   0.34813   0.38917

  Beta  occ. eigenvalues --  -89.97790 -19.67116  -8.33981  -6.26186  -6.25829
  Beta  occ. eigenvalues --   -6.25259  -1.08383  -0.83948  -0.52466  -0.49814
  Beta  occ. eigenvalues --   -0.39692  -0.35863  -0.33138
  Beta virt. eigenvalues --   -0.23488   0.01541   0.03875   0.04669   0.05321
  Beta virt. eigenvalues --    0.06656   0.12878   0.19176   0.19765   0.21097
  Beta virt. eigenvalues --    0.24456   0.30781   0.33948   0.34813   0.38917

 Mulliken charges and spin densities:
               1          2
     1  O   -0.385922   0.000000
     2  S    0.033345  -0.000000
     3  H    0.245658  -0.000000
     4  H    0.106919  -0.000000
 Sum of Mulliken charges =  -0.00000  -0.00000

 Dipole moment (field-independent basis, Debye):
    X=              2.4158    Y=             -0.4905    Z=              0.3818  Tot=              2.4945
 Quadrupole moment (field-independent basis, Debye-Ang):
   XX=            -18.7398   YY=            -21.2399   ZZ=            -17.6683
   XY=              2.8378   XZ=             -4.8075   YZ=             -2.7265

 Normal termination of Gaussian 16 at Tue Apr 22 01:45:54 2025.
