 Gaussian 16, Revision A.03,
 Gaussian 16:  ES64L-G16RevA.03 25-Dec-2016

 ---------------------------------------
 #p UM062X/6-311+G** force int=superfine
 ---------------------------------------

 -------------------
 Title Card Required
 -------------------
 Symbolic Z-matrix:
 Charge =  0 Multiplicity = 1

                         Standard orientation:
 ---------------------------------------------------------------------
 Center     Atomic      Atomic             Coordinates (Angstroms)
 Number     Number       Type             X           Y           Z
 ---------------------------------------------------------------------
      1          6           0       -0.004581    0.071738   -1.127819
      2          6           0        0.004580   -0.071738    1.127819
      3          1           0       -0.463830   -1.030605    1.312148
      4          1           0        0.578322   -0.790051   -1.428413
      5          1           0       -0.578320    0.790051    1.428417
      6          1           0        1.058852   -0.020918    1.370182
      7          1           0        0.463830    1.030605   -1.312147
      8          1           0       -1.058851    0.020917   -1.370185
 ---------------------------------------------------------------------

 SCF Done:  E(UM062X) =  -79.7062389588     A.U. after    8 cycles

 The electronic state is 1-A.
 Alpha  occ. eigenvalues --  -10.55293 -10.55287  -0.77940  -0.73548  -0.48262
 Alpha  occ. eigenvalues --   -0.48262  -0.45591  -0.45591  -0.30137
 Alpha virt. eigenvalues --    0.00396   0.02447   0.05582   0.05582   0.08025
 Alpha virt. eigenvalues --    0.08347   0.08347   0.09851   0.13218   0.18163
 Alpha virt. eigenvalues --    0.18163   0.22099   0.22099   0.24361   0.26499

  Beta  occ. eigenvalues --  -10.55293 -10.55287  -0.77940  -0.73548  -0.48262
  Beta  occ. eigenvalues --   -0.48262  -0.45591  -0.45591  -0.30137
  Beta virt. eigenvalues --    0.00396   0.02447   0.05582   0.05582   0.08025
  Beta virt. eigenvalues --    0.08347   0.08347   0.09851   0.13218   0.18163
  Beta virt. eigenvalues --    0.18163   0.22099   0.22099   0.24361   0.26499

 Mulliken charges and spin densities:
               1          2
     1  C   -0.505604   0.000000
     2  C   -0.505605   0.000000
     3  H    0.168535  -0.000000
     4  H    0.168535  -0.000000
     5  H    0.168535  -0.000000
     6  H    0.168535  -0.000000
     7  H    0.168535  -0.000000
     8  H    0.168535   0.000000
 Sum of Mulliken charges =  -0.00000   0.00000

 Dipole moment (field-independent basis, Debye):
    X=              0.0000    Y=             -0.0000    Z=             -0.0000  Tot=              0.0000
 Quadrupole moment (field-independent basis, Debye-Ang):
   XX=            -14.8301   YY=            -14.8329   ZZ=            -15.5457
   XY=              0.0002   XZ=             -0.0029   YZ=              0.0455

 Normal termination of Gaussian 16 at Tue Nov 19 12:54:38 2024.
