 Gaussian 16, Revision A.03,
 Gaussian 16:  ES64L-G16RevA.03 25-Dec-2016

 --------------------------------------------
 #p opt UM062X/6-311+G** nosymm int=superfine
 --------------------------------------------

 -------------------
 Title Card Required
 -------------------
 Symbolic Z-matrix:
 Charge =  0 Multiplicity = 1

 SCF Done:  E(UM062X) =  -582.369135795     A.U. after   10 cycles
 SCF Done:  E(UM062X) =  -582.371466273     A.U. after    9 cycles
 SCF Done:  E(UM062X) =  -582.372134570     A.U. after    9 cycles
 SCF Done:  E(UM062X) =  -582.372134937     A.U. after    6 cycles
 Optimization completed.
    -- Stationary point found.

                          Input orientation:
 ---------------------------------------------------------------------
 Center     Atomic      Atomic             Coordinates (Angstroms)
 Number     Number       Type             X           Y           Z
 ---------------------------------------------------------------------
      1         14           0       -2.394819    0.000000    0.000000
      2         14           0        2.394819    0.000000    0.000000
      3          1           0        2.795477   -1.420448   -0.000055
      4          1           0       -2.795255   -0.710201    1.230234
      5          1           0        2.795384    0.710377   -1.230091
      6          1           0        2.795264    0.710254    1.230201
      7          1           0       -2.795481    1.420448   -0.000112
      8          1           0       -2.795390   -0.710432   -1.230057
 ---------------------------------------------------------------------

 Alpha  occ. eigenvalues --  -67.01914 -67.01914  -5.56823  -5.56823  -3.88059
 Alpha  occ. eigenvalues --   -3.88058  -3.87813  -3.87813  -3.87813  -3.87813
 Alpha  occ. eigenvalues --   -0.61177  -0.60941  -0.42159  -0.42158  -0.42114
 Alpha  occ. eigenvalues --   -0.42113  -0.21438
 Alpha virt. eigenvalues --   -0.11322   0.01997   0.02956   0.02956   0.03235
 Alpha virt. eigenvalues --    0.04999   0.04999   0.06225   0.06667   0.07535
 Alpha virt. eigenvalues --    0.07535   0.08496   0.08497   0.11435   0.15608

  Beta  occ. eigenvalues --  -67.01914 -67.01914  -5.56823  -5.56823  -3.88059
  Beta  occ. eigenvalues --   -3.88058  -3.87813  -3.87813  -3.87813  -3.87813
  Beta  occ. eigenvalues --   -0.61177  -0.60941  -0.42159  -0.42158  -0.42114
  Beta  occ. eigenvalues --   -0.42113  -0.21438
  Beta virt. eigenvalues --   -0.11322   0.01997   0.02956   0.02956   0.03235
  Beta virt. eigenvalues --    0.04999   0.04999   0.06225   0.06667   0.07535
  Beta virt. eigenvalues --    0.07535   0.08496   0.08497   0.11435   0.15608

 Mulliken charges and spin densities:
               1          2
     1  Si   0.264877   0.000000
     2  Si   0.264879  -0.000000
     3  H   -0.088291  -0.000000
     4  H   -0.088293   0.000000
     5  H   -0.088294  -0.000000
     6  H   -0.088293  -0.000000
     7  H   -0.088291   0.000000
     8  H   -0.088294   0.000000
 Sum of Mulliken charges =  -0.00000  -0.00000

 Dipole moment (field-independent basis, Debye):
    X=              0.0000    Y=             -0.0000    Z=              0.0000  Tot=              0.0000
 Quadrupole moment (field-independent basis, Debye-Ang):
   XX=            -27.8833   YY=            -32.1983   ZZ=            -32.1985
   XY=             -0.0007   XZ=              0.0000   YZ=              0.0000

 Normal termination of Gaussian 16 at Mon Apr 21 20:21:55 2025.
