 Gaussian 16, Revision A.03,
 Gaussian 16:  ES64L-G16RevA.03 25-Dec-2016

 --------------------------------------------
 #p opt UM062X/6-311+G** nosymm int=superfine
 --------------------------------------------

 -------------------
 Title Card Required
 -------------------
 Symbolic Z-matrix:
 Charge =  0 Multiplicity = 1

 SCF Done:  E(UM062X) =  -79.7882639485     A.U. after    8 cycles
 SCF Done:  E(UM062X) =  -79.7909414722     A.U. after    8 cycles
 SCF Done:  E(UM062X) =  -79.7910986607     A.U. after    7 cycles
 Optimization completed.
    -- Stationary point found.

                          Input orientation:
 ---------------------------------------------------------------------
 Center     Atomic      Atomic             Coordinates (Angstroms)
 Number     Number       Type             X           Y           Z
 ---------------------------------------------------------------------
      1          6           0       -0.824631    0.000000    0.000000
      2          6           0        0.824715    0.000000    0.000000
      3          1           0        1.192768   -0.887553    0.513571
      4          1           0       -1.192686   -0.888552   -0.511837
      5          1           0        1.192771    0.888552    0.511836
      6          1           0        1.192722   -0.001000   -1.025443
      7          1           0       -1.192684    0.887553   -0.513571
      8          1           0       -1.192639    0.001000    1.025442
 ---------------------------------------------------------------------

 Alpha  occ. eigenvalues --  -10.52884 -10.52860  -0.82805  -0.70707  -0.49507
 Alpha  occ. eigenvalues --   -0.49507  -0.41515  -0.41515  -0.40054
 Alpha virt. eigenvalues --    0.02211   0.03953   0.05570   0.05570   0.08706
 Alpha virt. eigenvalues --    0.08706   0.09048   0.13754   0.18541   0.18541
 Alpha virt. eigenvalues --    0.21441   0.21441   0.23528   0.24175   0.27883

  Beta  occ. eigenvalues --  -10.52884 -10.52860  -0.82805  -0.70707  -0.49507
  Beta  occ. eigenvalues --   -0.49507  -0.41515  -0.41515  -0.40054
  Beta virt. eigenvalues --    0.02211   0.03953   0.05570   0.05570   0.08706
  Beta virt. eigenvalues --    0.08706   0.09048   0.13754   0.18541   0.18541
  Beta virt. eigenvalues --    0.21441   0.21441   0.23528   0.24175   0.27883

 Mulliken charges and spin densities:
               1          2
     1  C   -0.479458  -0.000000
     2  C   -0.479458   0.000000
     3  H    0.159819   0.000000
     4  H    0.159820   0.000000
     5  H    0.159820   0.000000
     6  H    0.159819   0.000000
     7  H    0.159819   0.000000
     8  H    0.159819   0.000000
 Sum of Mulliken charges =  -0.00000  -0.00000

 Dipole moment (field-independent basis, Debye):
    X=              0.0000    Y=             -0.0000    Z=             -0.0000  Tot=              0.0000
 Quadrupole moment (field-independent basis, Debye-Ang):
   XX=            -15.6256   YY=            -14.9556   ZZ=            -14.9556
   XY=              0.0000   XZ=              0.0001   YZ=             -0.0000

 Normal termination of Gaussian 16 at Tue Nov 19 11:56:24 2024.
