 Gaussian 16, Revision A.03,
 Gaussian 16:  ES64L-G16RevA.03 25-Dec-2016

 ---------------------------------------------------
 #p UM062X/6-311+G** force int=superfine pop=saveNBO
 ---------------------------------------------------

 -------------------
 Title Card Required
 -------------------
 Symbolic Z-matrix:
 Charge =  0 Multiplicity = 1

                         Standard orientation:
 ---------------------------------------------------------------------
 Center     Atomic      Atomic             Coordinates (Angstroms)
 Number     Number       Type             X           Y           Z
 ---------------------------------------------------------------------
      1          6           0        0.000000    0.000000   -1.098379
      2          8           0        0.000000    0.000000    0.823785
 ---------------------------------------------------------------------

 SCF Done:  E(UM062X) =  -112.945686722     A.U. after   12 cycles

 The electronic state is 1-SG.
 Alpha  occ. eigenvalues --  -19.71599 -10.83838  -1.02828  -0.70919  -0.41830
 Alpha  occ. eigenvalues --   -0.38747  -0.38747
 Alpha virt. eigenvalues --   -0.16063  -0.16063  -0.05414   0.03383   0.06427
 Alpha virt. eigenvalues --    0.06427   0.07198   0.20024   0.22572   0.22572
 Alpha virt. eigenvalues --    0.32038   0.52035   0.52035   0.52930   0.68851

  Beta  occ. eigenvalues --  -19.71599 -10.83838  -1.02828  -0.70919  -0.41830
  Beta  occ. eigenvalues --   -0.38747  -0.38747
  Beta virt. eigenvalues --   -0.16063  -0.16063  -0.05414   0.03383   0.06427
  Beta virt. eigenvalues --    0.06427   0.07198   0.20024   0.22572   0.22572
  Beta virt. eigenvalues --    0.32038   0.52035   0.52035   0.52930   0.68851

 Mulliken charges and spin densities:
               1          2
     1  C    0.326057   0.000000
     2  O   -0.326057  -0.000000
 Sum of Mulliken charges =  -0.00000  -0.00000

 Dipole moment (field-independent basis, Debye):
    X=              0.0000    Y=              0.0000    Z=             -3.0872  Tot=              3.0872
 Quadrupole moment (field-independent basis, Debye-Ang):
   XX=            -11.5172   YY=            -11.5172   ZZ=            -11.0955
   XY=              0.0000   XZ=              0.0000   YZ=              0.0000

 Summary of Natural Population Analysis:

                                       Natural Population
                Natural  -----------------------------------------------
    Atom  No    Charge         Core      Valence    Rydberg      Total
 -----------------------------------------------------------------------
      C    1    0.30682      0.99999     1.69045    0.00274     2.69318
      O    2   -0.30682      1.00000     3.30465    0.00218     4.30682
 =======================================================================
   * Total *   -0.00000      1.99999     4.99510    0.00492     7.00000

 Normal termination of Gaussian 16 at Mon Apr 21 19:31:29 2025.
