 Gaussian 16, Revision A.03,
 Gaussian 16:  ES64L-G16RevA.03 25-Dec-2016

 ---------------------------------------
 #p UM062X/6-311+G** force int=superfine
 ---------------------------------------

 -------------------
 Title Card Required
 -------------------
 Symbolic Z-matrix:
 Charge =  1 Multiplicity = 2

                         Standard orientation:
 ---------------------------------------------------------------------
 Center     Atomic      Atomic             Coordinates (Angstroms)
 Number     Number       Type             X           Y           Z
 ---------------------------------------------------------------------
      1          6           0        1.226938   -0.000039   -0.000024
      2          6           0       -1.226938    0.000044    0.000012
      3          1           0       -1.311495   -0.990717   -0.432165
      4          1           0        1.310692   -0.869683    0.642034
      5          1           0       -1.311147    0.869773   -0.641873
      6          1           0       -1.310674    0.121144    1.074190
      7          1           0        1.311519    0.990772    0.432036
      8          1           0        1.311105   -0.121320   -1.074149
 ---------------------------------------------------------------------

 SCF Done:  E(UM062X) =  -79.3585215851     A.U. after    9 cycles

 The electronic state is 2-A.
 Alpha  occ. eigenvalues --  -10.85737 -10.85731  -1.06788  -1.02432  -0.76573
 Alpha  occ. eigenvalues --   -0.76572  -0.74247  -0.74246  -0.57659
 Alpha virt. eigenvalues --   -0.31029  -0.15419  -0.10671  -0.10671  -0.09984
 Alpha virt. eigenvalues --   -0.06423  -0.06231  -0.06231  -0.04122  -0.04120
 Alpha virt. eigenvalues --   -0.02739   0.01631   0.01633   0.05290   0.07352

  Beta  occ. eigenvalues --  -10.85536 -10.85536  -1.03513  -0.99920  -0.75807
  Beta  occ. eigenvalues --   -0.75807  -0.73646  -0.73645
  Beta virt. eigenvalues --   -0.35141  -0.22318  -0.15677  -0.11089  -0.11088
  Beta virt. eigenvalues --   -0.09400  -0.06573  -0.06573  -0.06426  -0.03917
  Beta virt. eigenvalues --   -0.03914  -0.01984   0.02086   0.02087   0.05710

 Mulliken charges and spin densities:
               1          2
     1  C   -0.290706   0.572103
     2  C   -0.290706   0.572103
     3  H    0.263585  -0.024039
     4  H    0.263549  -0.024032
     5  H    0.263567  -0.024040
     6  H    0.263555  -0.024023
     7  H    0.263586  -0.024040
     8  H    0.263571  -0.024031
 Sum of Mulliken charges =   1.00000   1.00000

 Dipole moment (field-independent basis, Debye):
    X=              0.0000    Y=             -0.0000    Z=              0.0000  Tot=              0.0000
 Quadrupole moment (field-independent basis, Debye-Ang):
   XX=             -4.0964   YY=            -10.9145   ZZ=            -10.9147
   XY=              0.0006   XZ=              0.0002   YZ=              0.0000

 Normal termination of Gaussian 16 at Wed Nov 13 13:00:45 2024.
