 Gaussian 16, Revision A.03,
 Gaussian 16:  ES64L-G16RevA.03 25-Dec-2016

 --------------------------------------------
 #p opt UM062X/6-311+G** nosymm int=superfine
 --------------------------------------------

 -------------------
 Title Card Required
 -------------------
 Symbolic Z-matrix:
 Charge =  0 Multiplicity = 1

 SCF Done:  E(UM062X) =  -579.878138207     A.U. after   10 cycles
 SCF Done:  E(UM062X) =  -579.880871444     A.U. after   10 cycles
 SCF Done:  E(UM062X) =  -579.880875842     A.U. after    7 cycles
 Optimization completed.
    -- Stationary point found.

                          Input orientation:
 ---------------------------------------------------------------------
 Center     Atomic      Atomic             Coordinates (Angstroms)
 Number     Number       Type             X           Y           Z
 ---------------------------------------------------------------------
      1         14           0       -2.253705    0.000000    0.000000
      2         14           0        2.253705    0.000000    0.000000
      3          1           0       -3.777940   -0.000028   -0.000000
      4          1           0        3.777940    0.000040    0.000000
 ---------------------------------------------------------------------

 Alpha  occ. eigenvalues --  -67.04542 -67.04542  -5.58972  -5.58970  -3.90084
 Alpha  occ. eigenvalues --   -3.90084  -3.89631  -3.89631  -3.89489  -3.89488
 Alpha  occ. eigenvalues --   -0.54981  -0.54752  -0.33470  -0.31775  -0.17680
 Alpha virt. eigenvalues --   -0.10979  -0.09114  -0.08354   0.02250   0.02925
 Alpha virt. eigenvalues --    0.04491   0.05652   0.05917   0.05995   0.06392
 Alpha virt. eigenvalues --    0.07049   0.08390   0.15663   0.28871   0.29633

  Beta  occ. eigenvalues --  -67.04542 -67.04542  -5.58972  -5.58970  -3.90084
  Beta  occ. eigenvalues --   -3.90084  -3.89631  -3.89631  -3.89489  -3.89488
  Beta  occ. eigenvalues --   -0.54981  -0.54752  -0.33470  -0.31775  -0.17680
  Beta virt. eigenvalues --   -0.10979  -0.09114  -0.08354   0.02250   0.02925
  Beta virt. eigenvalues --    0.04491   0.05652   0.05917   0.05995   0.06392
  Beta virt. eigenvalues --    0.07049   0.08390   0.15663   0.28871   0.29633

 Mulliken charges and spin densities:
               1          2
     1  Si   0.151051  -0.000008
     2  Si   0.151052   0.000008
     3  H   -0.151052   0.000000
     4  H   -0.151052  -0.000000
 Sum of Mulliken charges =  -0.00000   0.00000

 Dipole moment (field-independent basis, Debye):
    X=              0.0000    Y=              0.0000    Z=             -0.0000  Tot=              0.0000
 Quadrupole moment (field-independent basis, Debye-Ang):
   XX=            -30.3640   YY=            -24.2655   ZZ=            -35.6577
   XY=             -0.0002   XZ=             -0.0000   YZ=              0.0060

 Normal termination of Gaussian 16 at Mon Apr 21 21:25:54 2025.
