 Gaussian 16, Revision A.03,
 Gaussian 16:  ES64L-G16RevA.03 25-Dec-2016

 --------------------------------------------
 #p opt UM062X/6-311+G** nosymm int=superfine
 --------------------------------------------

 -------------------
 Title Card Required
 -------------------
 Symbolic Z-matrix:
 Charge =  0 Multiplicity = 1

 SCF Done:  E(UM062X) =  -474.401133866     A.U. after   19 cycles
 SCF Done:  E(UM062X) =  -474.402967853     A.U. after   17 cycles
 SCF Done:  E(UM062X) =  -474.405274913     A.U. after   19 cycles
 SCF Done:  E(UM062X) =  -474.405362885     A.U. after   17 cycles
 SCF Done:  E(UM062X) =  -474.405365500     A.U. after   21 cycles
 SCF Done:  E(UM062X) =  -474.405382861     A.U. after   19 cycles
 SCF Done:  E(UM062X) =  -474.405383951     A.U. after   18 cycles
 SCF Done:  E(UM062X) =  -474.405384934     A.U. after   17 cycles
 SCF Done:  E(UM062X) =  -474.405385074     A.U. after   22 cycles
 Optimization completed.
    -- Stationary point found.

                          Input orientation:
 ---------------------------------------------------------------------
 Center     Atomic      Atomic             Coordinates (Angstroms)
 Number     Number       Type             X           Y           Z
 ---------------------------------------------------------------------
      1          8           0       -1.514392    0.000000    0.000000
      2         16           0        1.514392    0.000000    0.000000
      3          1           0       -1.504541   -0.891127   -0.383289
      4          1           0        1.334664    0.517280    1.229989
 ---------------------------------------------------------------------

 Alpha  occ. eigenvalues --  -89.97831 -19.67485  -8.33929  -6.26148  -6.25774
 Alpha  occ. eigenvalues --   -6.25212  -1.08582  -0.83624  -0.52639  -0.49477
 Alpha  occ. eigenvalues --   -0.39867  -0.36008  -0.35441
 Alpha virt. eigenvalues --   -0.20430   0.01630   0.03954   0.04668   0.05532
 Alpha virt. eigenvalues --    0.07151   0.14098   0.19379   0.19951   0.21267
 Alpha virt. eigenvalues --    0.25944   0.30985   0.33986   0.35137   0.39472

  Beta  occ. eigenvalues --  -89.97831 -19.67485  -8.33929  -6.26148  -6.25774
  Beta  occ. eigenvalues --   -6.25212  -1.08582  -0.83624  -0.52639  -0.49477
  Beta  occ. eigenvalues --   -0.39867  -0.36008  -0.35441
  Beta virt. eigenvalues --   -0.20430   0.01630   0.03954   0.04668   0.05532
  Beta virt. eigenvalues --    0.07151   0.14098   0.19379   0.19951   0.21267
  Beta virt. eigenvalues --    0.25944   0.30985   0.33986   0.35137   0.39472

 Mulliken charges and spin densities:
               1          2
     1  O   -0.412004   0.000000
     2  S    0.051999  -0.000000
     3  H    0.248003   0.000000
     4  H    0.112002   0.000000
 Sum of Mulliken charges =  -0.00000   0.00000

 Dipole moment (field-independent basis, Debye):
    X=              2.1152    Y=             -1.1300    Z=              0.4066  Tot=              2.4323
 Quadrupole moment (field-independent basis, Debye-Ang):
   XX=            -18.2020   YY=            -19.9425   ZZ=            -18.7782
   XY=              3.2915   XZ=              2.7643   YZ=              2.3882

 Normal termination of Gaussian 16 at Thu May 15 13:06:24 2025.
