 Gaussian 16, Revision A.03,
 Gaussian 16:  ES64L-G16RevA.03 25-Dec-2016

 --------------------------------------------
 #p opt UM062X/6-311+G** nosymm int=superfine
 --------------------------------------------

 -------------------
 Title Card Required
 -------------------
 Symbolic Z-matrix:
 Charge =  0 Multiplicity = 1

 SCF Done:  E(UM062X) =  -92.8270953503     A.U. after   14 cycles
 SCF Done:  E(UM062X) =  -92.8290657347     A.U. after   11 cycles
 SCF Done:  E(UM062X) =  -92.8290764756     A.U. after   10 cycles
 Optimization completed.
    -- Stationary point found.

                          Input orientation:
 ---------------------------------------------------------------------
 Center     Atomic      Atomic             Coordinates (Angstroms)
 Number     Number       Type             X           Y           Z
 ---------------------------------------------------------------------
      1          6           0       -1.772395    0.000000    0.000000
      2          7           0        1.772395    0.000000    0.000000
      3          1           0       -2.897939   -0.000000   -0.000000
 ---------------------------------------------------------------------

 Alpha  occ. eigenvalues --  -14.81847 -10.76255  -0.80199  -0.76528  -0.45342
 Alpha  occ. eigenvalues --   -0.26476  -0.26476
 Alpha virt. eigenvalues --   -0.18045  -0.18045  -0.08101  -0.00019   0.06388
 Alpha virt. eigenvalues --    0.06388   0.07869   0.12714   0.16139   0.17318
 Alpha virt. eigenvalues --    0.17318   0.23730   0.42051   0.52073   0.52073

  Beta  occ. eigenvalues --  -14.81847 -10.76255  -0.80199  -0.76528  -0.45342
  Beta  occ. eigenvalues --   -0.26476  -0.26476
  Beta virt. eigenvalues --   -0.18045  -0.18045  -0.08101  -0.00019   0.06388
  Beta virt. eigenvalues --    0.06388   0.07869   0.12714   0.16139   0.17318
  Beta virt. eigenvalues --    0.17318   0.23730   0.42051   0.52073   0.52073

 Mulliken charges and spin densities:
               1          2
     1  C    0.069948   0.000000
     2  N   -0.244163  -0.000000
     3  H    0.174215  -0.000000
 Sum of Mulliken charges =  -0.00000  -0.00000

 Dipole moment (field-independent basis, Debye):
    X=             -6.0589    Y=              0.0000    Z=              0.0000  Tot=              6.0589
 Quadrupole moment (field-independent basis, Debye-Ang):
   XX=             -4.6263   YY=            -14.2556   ZZ=            -14.2556
   XY=             -0.0000   XZ=             -0.0000   YZ=             -0.0000

 Normal termination of Gaussian 16 at Mon Apr 21 18:39:55 2025.
