 Gaussian 16, Revision A.03,
 Gaussian 16:  ES64L-G16RevA.03 25-Dec-2016

 --------------------------------------------
 #p opt UM062X/6-311+G** nosymm int=superfine
 --------------------------------------------

 -------------------
 Title Card Required
 -------------------
 Symbolic Z-matrix:
 Charge =  0 Multiplicity = 1

 SCF Done:  E(UM062X) =  -151.359814516     A.U. after   16 cycles
 SCF Done:  E(UM062X) =  -151.362872795     A.U. after   19 cycles
 SCF Done:  E(UM062X) =  -151.366546485     A.U. after   23 cycles
 SCF Done:  E(UM062X) =  -151.366848153     A.U. after   22 cycles
 SCF Done:  E(UM062X) =  -151.366906913     A.U. after   22 cycles
 SCF Done:  E(UM062X) =  -151.366907278     A.U. after   18 cycles
 Optimization completed.
    -- Stationary point found.

                          Input orientation:
 ---------------------------------------------------------------------
 Center     Atomic      Atomic             Coordinates (Angstroms)
 Number     Number       Type             X           Y           Z
 ---------------------------------------------------------------------
      1          8           0       -1.336938    0.000000    0.000000
      2          8           0        1.336938    0.000000    0.000000
      3          1           0       -1.178030   -0.773538   -0.569963
      4          1           0        1.177899    0.773193    0.570397
 ---------------------------------------------------------------------

 Alpha  occ. eigenvalues --  -19.72737 -19.72734  -1.13486  -1.12145  -0.57223
 Alpha  occ. eigenvalues --   -0.56165  -0.44629  -0.43517  -0.39750
 Alpha virt. eigenvalues --   -0.23304   0.05474   0.08860   0.14705   0.15414
 Alpha virt. eigenvalues --    0.17650   0.19268   0.21102   0.22070   0.24620
 Alpha virt. eigenvalues --    0.32330   0.48846   0.53013   0.93133   0.98702

  Beta  occ. eigenvalues --  -19.72737 -19.72734  -1.13486  -1.12145  -0.57223
  Beta  occ. eigenvalues --   -0.56165  -0.44629  -0.43517  -0.39750
  Beta virt. eigenvalues --   -0.23304   0.05474   0.08860   0.14705   0.15414
  Beta virt. eigenvalues --    0.17650   0.19268   0.21102   0.22070   0.24620
  Beta virt. eigenvalues --    0.32330   0.48846   0.53013   0.93133   0.98702

 Mulliken charges and spin densities:
               1          2
     1  O   -0.271101   0.000000
     2  O   -0.271083  -0.000000
     3  H    0.271090  -0.000000
     4  H    0.271094   0.000000
 Sum of Mulliken charges =  -0.00000  -0.00000

 Dipole moment (field-independent basis, Debye):
    X=             -0.0002    Y=             -0.0007    Z=              0.0009  Tot=              0.0011
 Quadrupole moment (field-independent basis, Debye-Ang):
   XX=            -12.3252   YY=            -10.3893   ZZ=            -11.9039
   XY=              3.7767   XZ=              2.7844   YZ=              2.4466

 Normal termination of Gaussian 16 at Mon Apr 21 21:35:40 2025.
