 Gaussian 16, Revision A.03,
 Gaussian 16:  ES64L-G16RevA.03 25-Dec-2016

 --------------------------------------------
 #p opt UM062X/6-311+G** nosymm int=superfine
 --------------------------------------------

 -------------------
 Title Card Required
 -------------------
 Symbolic Z-matrix:
 Charge =  1 Multiplicity = 2

 SCF Done:  E(UM062X) =  -77.9443980291     A.U. after   10 cycles
 SCF Done:  E(UM062X) =  -77.9871515870     A.U. after    9 cycles
 SCF Done:  E(UM062X) =  -78.0294605780     A.U. after   11 cycles
 SCF Done:  E(UM062X) =  -78.0387443739     A.U. after    8 cycles
 SCF Done:  E(UM062X) =  -78.0397300458     A.U. after    9 cycles
 SCF Done:  E(UM062X) =  -78.0397453279     A.U. after    8 cycles
 Optimization completed.
    -- Stationary point found.

                          Input orientation:
 ---------------------------------------------------------------------
 Center     Atomic      Atomic             Coordinates (Angstroms)
 Number     Number       Type             X           Y           Z
 ---------------------------------------------------------------------
      1          6           0       -1.060338    0.000000    0.000000
      2          6           0        1.060338    0.000000    0.000000
      3          1           0       -1.510050   -0.987727    0.000000
      4          1           0       -1.510007    0.987786    0.000000
      5          1           0        1.510050    0.987727   -0.000000
      6          1           0        1.510007   -0.987787   -0.000000
 ---------------------------------------------------------------------

 Alpha  occ. eigenvalues --  -10.92309 -10.92296  -1.05988  -1.00263  -0.80467
 Alpha  occ. eigenvalues --   -0.77790  -0.65690  -0.55447
 Alpha virt. eigenvalues --   -0.37029  -0.26364  -0.14031  -0.10976  -0.10243
 Alpha virt. eigenvalues --   -0.08280  -0.07505  -0.07114  -0.04754  -0.04026
 Alpha virt. eigenvalues --   -0.03054  -0.00269   0.02013   0.09293   0.17919

  Beta  occ. eigenvalues --  -10.92070 -10.92062  -1.02969  -0.98000  -0.79965
  Beta  occ. eigenvalues --   -0.77433  -0.64081
  Beta virt. eigenvalues --   -0.34884  -0.28143  -0.24055  -0.15298  -0.11279
  Beta virt. eigenvalues --   -0.10346  -0.07685  -0.07463  -0.07386  -0.04126
  Beta virt. eigenvalues --   -0.03867  -0.02562   0.00283   0.01146   0.10084

 Mulliken charges and spin densities:
               1          2
     1  C   -0.067929   0.541486
     2  C   -0.067929   0.541487
     3  H    0.283963  -0.020743
     4  H    0.283966  -0.020744
     5  H    0.283963  -0.020743
     6  H    0.283966  -0.020744
 Sum of Mulliken charges =   1.00000   1.00000

 Dipole moment (field-independent basis, Debye):
    X=             -0.0000    Y=              0.0000    Z=             -0.0000  Tot=              0.0000
 Quadrupole moment (field-independent basis, Debye-Ang):
   XX=             -1.3809   YY=             -8.0847   ZZ=            -12.6058
   XY=             -0.0000   XZ=             -0.0000   YZ=             -0.0000

 Normal termination of Gaussian 16 at Tue Nov 19 11:25:49 2024.
