 Gaussian 16, Revision A.03,
 Gaussian 16:  ES64L-G16RevA.03 25-Dec-2016

 ---------------------------------------------------
 #p UM062X/6-311+G** force int=superfine pop=saveNBO
 ---------------------------------------------------

 -------------------
 Title Card Required
 -------------------
 Symbolic Z-matrix:
 Charge =  0 Multiplicity = 1

                         Standard orientation:
 ---------------------------------------------------------------------
 Center     Atomic      Atomic             Coordinates (Angstroms)
 Number     Number       Type             X           Y           Z
 ---------------------------------------------------------------------
      1         16           0        0.000000    0.000000    1.475200
      2         16           0        0.000000    0.000000   -1.475200
 ---------------------------------------------------------------------

 SCF Done:  E(UM062X) =  -796.136630508     A.U. after    9 cycles

 Unable to determine electronic state:  partially filled degenerate orbitals.
 Alpha  occ. eigenvalues --  -89.99240 -89.99240  -8.34906  -8.34905  -6.26937
 Alpha  occ. eigenvalues --   -6.26937  -6.26934  -6.26934  -6.26091  -6.26091
 Alpha  occ. eigenvalues --   -0.79933  -0.76217  -0.37359  -0.35933  -0.33419
 Alpha  occ. eigenvalues --   -0.33370
 Alpha virt. eigenvalues --   -0.21771  -0.16940   0.03121   0.03775   0.04949
 Alpha virt. eigenvalues --    0.05492   0.07306   0.07495   0.07762   0.13680
 Alpha virt. eigenvalues --    0.31477   0.31821   0.32777   0.36271   0.37165

  Beta  occ. eigenvalues --  -89.99240 -89.99240  -8.34906  -8.34905  -6.26937
  Beta  occ. eigenvalues --   -6.26937  -6.26934  -6.26934  -6.26091  -6.26091
  Beta  occ. eigenvalues --   -0.79933  -0.76217  -0.37359  -0.35933  -0.33419
  Beta  occ. eigenvalues --   -0.33370
  Beta virt. eigenvalues --   -0.21771  -0.16940   0.03121   0.03775   0.04949
  Beta virt. eigenvalues --    0.05492   0.07306   0.07495   0.07762   0.13680
  Beta virt. eigenvalues --    0.31477   0.31821   0.32777   0.36271   0.37165

 Mulliken charges and spin densities:
               1          2
     1  S    0.000000  -0.000000
     2  S    0.000000  -0.000000
 Sum of Mulliken charges =   0.00000  -0.00000

 Dipole moment (field-independent basis, Debye):
    X=              0.0000    Y=             -0.0000    Z=             -0.0000  Tot=              0.0000
 Quadrupole moment (field-independent basis, Debye-Ang):
   XX=            -30.1995   YY=            -25.3097   ZZ=            -22.8865
   XY=              0.0000   XZ=             -0.0000   YZ=              0.0000

 Summary of Natural Population Analysis:

                                       Natural Population
                Natural  -----------------------------------------------
    Atom  No    Charge         Core      Valence    Rydberg      Total
 -----------------------------------------------------------------------
      S    1    0.00000      4.99999     2.99870    0.00131     8.00000
      S    2    0.00000      4.99999     2.99870    0.00131     8.00000
 =======================================================================
   * Total *    0.00000      9.99998     5.99739    0.00262    16.00000

 Normal termination of Gaussian 16 at Mon Apr 21 20:03:22 2025.
