 Gaussian 16, Revision A.03,
 Gaussian 16:  ES64L-G16RevA.03 25-Dec-2016

 --------------------------------------------
 #p opt UM062X/6-311+G** nosymm int=superfine
 --------------------------------------------

 -------------------
 Title Card Required
 -------------------
 Symbolic Z-matrix:
 Charge =  0 Multiplicity = 1

 SCF Done:  E(UM062X) =  -115.431425792     A.U. after   64 cycles
 SCF Done:  E(UM062X) =  -115.447603699     A.U. after   12 cycles
 SCF Done:  E(UM062X) =  -115.457680826     A.U. after   14 cycles
 SCF Done:  E(UM062X) =  -115.457782236     A.U. after   12 cycles
 SCF Done:  E(UM062X) =  -115.457807529     A.U. after   13 cycles
 SCF Done:  E(UM062X) =  -115.457935735     A.U. after   16 cycles
 SCF Done:  E(UM062X) =  -115.457948232     A.U. after   12 cycles
 SCF Done:  E(UM062X) =  -115.457949204     A.U. after   13 cycles
 SCF Done:  E(UM062X) =  -115.457949343     A.U. after    7 cycles
 SCF Done:  E(UM062X) =  -115.457949769     A.U. after   14 cycles
 SCF Done:  E(UM062X) =  -115.457950148     A.U. after    9 cycles
 SCF Done:  E(UM062X) =  -115.457950530     A.U. after   16 cycles
 SCF Done:  E(UM062X) =  -115.457950740     A.U. after    9 cycles
 SCF Done:  E(UM062X) =  -115.457950841     A.U. after    9 cycles
 Optimization completed.
    -- Stationary point found.

                          Input orientation:
 ---------------------------------------------------------------------
 Center     Atomic      Atomic             Coordinates (Angstroms)
 Number     Number       Type             X           Y           Z
 ---------------------------------------------------------------------
      1          6           0       -2.057203    0.000000    0.000000
      2          8           0        2.057203    0.000000    0.000000
      3          1           0        2.158391   -0.960533   -0.000537
      4          1           0       -2.130744   -0.533841    0.937806
      5          1           0       -1.927362    1.073882   -0.001036
      6          1           0       -2.130808   -0.535647   -0.936770
 ---------------------------------------------------------------------

 Alpha  occ. eigenvalues --  -19.58187 -10.67239  -1.00672  -0.85272  -0.57338
 Alpha  occ. eigenvalues --   -0.57193  -0.45205  -0.32167  -0.26810
 Alpha virt. eigenvalues --   -0.18351   0.00233   0.03494   0.03679   0.06948
 Alpha virt. eigenvalues --    0.12960   0.14360   0.14519   0.18040   0.22613
 Alpha virt. eigenvalues --    0.23092   0.25025   0.28944   0.38759   0.38950

  Beta  occ. eigenvalues --  -19.58187 -10.67239  -1.00672  -0.85272  -0.57338
  Beta  occ. eigenvalues --   -0.57193  -0.45205  -0.32167  -0.26810
  Beta virt. eigenvalues --   -0.18351   0.00233   0.03494   0.03679   0.06948
  Beta virt. eigenvalues --    0.12960   0.14360   0.14519   0.18040   0.22613
  Beta virt. eigenvalues --    0.23092   0.25025   0.28944   0.38759   0.38950

 Mulliken charges and spin densities:
               1          2
     1  C   -0.290041   0.000000
     2  O   -0.560131  -0.000000
     3  H    0.214602  -0.000000
     4  H    0.208457   0.000000
     5  H    0.218668   0.000000
     6  H    0.208445  -0.000000
 Sum of Mulliken charges =  -0.00000  -0.00000

 Dipole moment (field-independent basis, Debye):
    X=             -6.7935    Y=             -1.5884    Z=             -0.0009  Tot=              6.9768
 Quadrupole moment (field-independent basis, Debye-Ang):
   XX=            -12.9371   YY=            -11.5258   ZZ=            -13.9252
   XY=             -3.4774   XZ=             -0.0022   YZ=              0.0014

 Normal termination of Gaussian 16 at Mon Apr 21 18:44:29 2025.
