 Gaussian 16, Revision A.03,
 Gaussian 16:  ES64L-G16RevA.03 25-Dec-2016

 ---------------------------------------------------------
 #p opt UM062X/6-311+G** nosymm int=superfine SCF=NoVarAcc
 ---------------------------------------------------------

 -------------------
 Title Card Required
 -------------------
 Symbolic Z-matrix:
 Charge =  0 Multiplicity = 1

 SCF Done:  E(UM062X) =  -78.2065955425     A.U. after    9 cycles
 SCF Done:  E(UM062X) =  -78.2231559105     A.U. after    9 cycles
 SCF Done:  E(UM062X) =  -78.2374630904     A.U. after    8 cycles
 SCF Done:  E(UM062X) =  -78.2377267347     A.U. after    8 cycles
 Optimization completed.
    -- Stationary point found.

                          Input orientation:
 ---------------------------------------------------------------------
 Center     Atomic      Atomic             Coordinates (Angstroms)
 Number     Number       Type             X           Y           Z
 ---------------------------------------------------------------------
      1          6           0       -9.535595    0.000000    0.000000
      2          6           0        9.535595    0.000000    0.000000
      3          1           0      -10.234052   -0.861063    0.000000
      4          1           0      -10.234023    0.861080    0.000000
      5          1           0       10.234052    0.861063   -0.000000
      6          1           0       10.234023   -0.861080   -0.000000
 ---------------------------------------------------------------------

 Alpha  occ. eigenvalues --  -10.60872 -10.60872  -0.75795  -0.75795  -0.47678
 Alpha  occ. eigenvalues --   -0.47678  -0.31499  -0.31499
 Alpha virt. eigenvalues --   -0.08315  -0.08315   0.02320   0.02320   0.06545
 Alpha virt. eigenvalues --    0.06545   0.08491   0.08491   0.09123   0.09123
 Alpha virt. eigenvalues --    0.17567   0.17567   0.19446   0.19446   0.44064

  Beta  occ. eigenvalues --  -10.60872 -10.60872  -0.75795  -0.75795  -0.47678
  Beta  occ. eigenvalues --   -0.47678  -0.31499  -0.31499
  Beta virt. eigenvalues --   -0.08315  -0.08315   0.02320   0.02320   0.06545
  Beta virt. eigenvalues --    0.06545   0.08491   0.08491   0.09123   0.09123
  Beta virt. eigenvalues --    0.17567   0.17567   0.19446   0.19446   0.44064

 Mulliken charges and spin densities:
               1          2
     1  C   -0.255021  -0.000000
     2  C   -0.255021  -0.000000
     3  H    0.127510  -0.000000
     4  H    0.127511   0.000000
     5  H    0.127510  -0.000000
     6  H    0.127511  -0.000000
 Sum of Mulliken charges =  -0.00000  -0.00000

 Dipole moment (field-independent basis, Debye):
    X=              0.0000    Y=             -0.0000    Z=             -0.0000  Tot=              0.0000
 Quadrupole moment (field-independent basis, Debye-Ang):
   XX=             61.5554   YY=            -14.4526   ZZ=            -12.8736
   XY=             -0.0006   XZ=             -0.0000   YZ=              0.0000

 Normal termination of Gaussian 16 at Tue Dec  3 17:42:33 2024.
