 Gaussian 16, Revision A.03,
 Gaussian 16:  ES64L-G16RevA.03 25-Dec-2016

 ---------------------------------------
 #p UM062X/6-311+G** force int=superfine
 ---------------------------------------

 -------------------
 Title Card Required
 -------------------
 Symbolic Z-matrix:
 Charge =  1 Multiplicity = 2

                         Standard orientation:
 ---------------------------------------------------------------------
 Center     Atomic      Atomic             Coordinates (Angstroms)
 Number     Number       Type             X           Y           Z
 ---------------------------------------------------------------------
      1          6           0        0.729450    0.908175   -1.743962
      2          6           0       -0.729452   -0.908171    1.743963
      3          1           0       -1.649078   -1.186600    1.243409
      4          1           0        0.670025   -0.029265   -2.283827
      5          1           0       -0.670189    0.028737    2.284771
      6          1           0        0.106614   -1.596970    1.761910
      7          1           0        1.649005    1.186817   -1.243397
      8          1           0       -0.106365    1.597256   -1.762873
 ---------------------------------------------------------------------

 SCF Done:  E(UM062X) =  -79.3155683768     A.U. after   10 cycles

 The electronic state is 2-A.
 Alpha  occ. eigenvalues --  -10.83140 -10.83139  -1.01738  -1.01493  -0.72829
 Alpha  occ. eigenvalues --   -0.72828  -0.72758  -0.72757  -0.46613
 Alpha virt. eigenvalues --   -0.37788  -0.12496  -0.10091  -0.09190  -0.09190
 Alpha virt. eigenvalues --   -0.06201  -0.06201  -0.04409  -0.02712   0.00333
 Alpha virt. eigenvalues --    0.00336   0.01461   0.01463   0.02418   0.09003

  Beta  occ. eigenvalues --  -10.82916 -10.82916  -0.99078  -0.98943  -0.72295
  Beta  occ. eigenvalues --   -0.72294  -0.72212  -0.72212
  Beta virt. eigenvalues --   -0.32030  -0.26677  -0.17002  -0.10545  -0.10543
  Beta virt. eigenvalues --   -0.10240  -0.06162  -0.06162  -0.05573  -0.01748
  Beta virt. eigenvalues --    0.00192   0.00196   0.01712   0.01714   0.02267

 Mulliken charges and spin densities:
               1          2
     1  C   -0.241877   0.557878
     2  C   -0.241877   0.557878
     3  H    0.247305  -0.019297
     4  H    0.247274  -0.019291
     5  H    0.247293  -0.019294
     6  H    0.247278  -0.019287
     7  H    0.247306  -0.019297
     8  H    0.247297  -0.019290
 Sum of Mulliken charges =   1.00000   1.00000

 Dipole moment (field-independent basis, Debye):
    X=              0.0000    Y=             -0.0000    Z=             -0.0000  Tot=              0.0000
 Quadrupole moment (field-independent basis, Debye-Ang):
   XX=             -8.6156   YY=             -7.2394   ZZ=              3.1859
   XY=              3.1175   XZ=             -5.9857   YZ=             -7.4509

 Normal termination of Gaussian 16 at Tue Nov 19 08:45:34 2024.
