 Gaussian 16, Revision A.03,
 Gaussian 16:  ES64L-G16RevA.03 25-Dec-2016

 --------------------------------------------
 #p opt UM062X/6-311+G** nosymm int=superfine
 --------------------------------------------

 -------------------
 Title Card Required
 -------------------
 Symbolic Z-matrix:
 Charge =  1 Multiplicity = 2

 SCF Done:  E(UM062X) =  -379.365976432     A.U. after   92 cycles
 SCF Done:  E(UM062X) =  -379.366350108     A.U. after   28 cycles
 SCF Done:  E(UM062X) =  -379.366350695     A.U. after   47 cycles
 Optimization completed.
    -- Stationary point found.

                          Input orientation:
 ---------------------------------------------------------------------
 Center     Atomic      Atomic             Coordinates (Angstroms)
 Number     Number       Type             X           Y           Z
 ---------------------------------------------------------------------
      1          6           0       -1.769427    0.000000    0.000000
      2         15           0        1.769427    0.000000    0.000000
      3          1           0       -2.879302    0.000000   -0.000000
 ---------------------------------------------------------------------

 Alpha  occ. eigenvalues --  -78.39726 -10.84605  -7.20854  -5.32922  -5.32920
 Alpha  occ. eigenvalues --   -5.32555  -0.94464  -0.87730  -0.57723  -0.57692
 Alpha  occ. eigenvalues --   -0.54937
 Alpha virt. eigenvalues --   -0.40477  -0.25801  -0.22690  -0.12071  -0.10173
 Alpha virt. eigenvalues --   -0.08980  -0.08781  -0.06204  -0.03695  -0.02475
 Alpha virt. eigenvalues --   -0.01309   0.05012   0.14566   0.14648   0.16185

  Beta  occ. eigenvalues --  -78.37989 -10.85999  -7.20250  -5.31762  -5.30180
  Beta  occ. eigenvalues --   -5.30178  -0.93476  -0.83215  -0.60942  -0.51727
  Beta virt. eigenvalues --   -0.36080  -0.34065  -0.33939  -0.28888  -0.13605
  Beta virt. eigenvalues --   -0.09140  -0.07199  -0.07069  -0.05789  -0.03191
  Beta virt. eigenvalues --   -0.03174  -0.00652   0.03327   0.10887   0.10896

 Mulliken charges and spin densities:
               1          2
     1  C   -0.051355  -1.162460
     2  P    0.808150   2.162502
     3  H    0.243206  -0.000042
 Sum of Mulliken charges =   1.00000   1.00000

 Dipole moment (field-independent basis, Debye):
    X=              2.8883    Y=              0.0000    Z=             -0.0000  Tot=              2.8883
 Quadrupole moment (field-independent basis, Debye-Ang):
   XX=              8.6847   YY=            -16.3087   ZZ=            -17.8895
   XY=             -0.0000   XZ=              0.0000   YZ=              0.5445

 Normal termination of Gaussian 16 at Mon Apr 21 19:23:04 2025.
