 Gaussian 16, Revision A.03,
 Gaussian 16:  ES64L-G16RevA.03 25-Dec-2016

 ---------------------------------------------------
 #p UM062X/6-311+G** force int=superfine pop=saveNBO
 ---------------------------------------------------

 -------------------
 Title Card Required
 -------------------
 Symbolic Z-matrix:
 Charge = -1 Multiplicity = 2

                         Standard orientation:
 ---------------------------------------------------------------------
 Center     Atomic      Atomic             Coordinates (Angstroms)
 Number     Number       Type             X           Y           Z
 ---------------------------------------------------------------------
      1          5           0       -1.090672   -0.000020   -0.000014
      2          5           0        1.090671    0.000009    0.000019
      3          1           0        1.298152   -0.376828   -1.127139
      4          1           0       -1.297874    0.787729   -0.889990
      5          1           0        1.298061   -0.787695    0.889994
      6          1           0        1.297771    1.164641    0.237249
      7          1           0       -1.298161    0.376824    1.127139
      8          1           0       -1.297948   -1.164617   -0.237274
 ---------------------------------------------------------------------

 SCF Done:  E(UM062X) =  -53.2353450559     A.U. after   11 cycles

 The electronic state is 2-A.
 Alpha  occ. eigenvalues --   -6.80309  -6.80297  -0.40658  -0.33624  -0.20396
 Alpha  occ. eigenvalues --   -0.20395  -0.16182  -0.16182  -0.04387
 Alpha virt. eigenvalues --    0.15992   0.17196   0.17669   0.17669   0.19331
 Alpha virt. eigenvalues --    0.19331   0.20439   0.23595   0.31604   0.33242
 Alpha virt. eigenvalues --    0.33243   0.37977   0.37978   0.38821   0.42379

  Beta  occ. eigenvalues --   -6.80203  -6.80202  -0.37908  -0.31794  -0.19719
  Beta  occ. eigenvalues --   -0.19718  -0.15777  -0.15777
  Beta virt. eigenvalues --    0.12792   0.15244   0.17665   0.17665   0.18048
  Beta virt. eigenvalues --    0.18882   0.18882   0.21496   0.24449   0.33310
  Beta virt. eigenvalues --    0.33311   0.35515   0.38345   0.38346   0.39187

 Mulliken charges and spin densities:
               1          2
     1  B   -0.262804   0.568646
     2  B   -0.262804   0.568646
     3  H   -0.079073  -0.022887
     4  H   -0.079059  -0.022882
     5  H   -0.079072  -0.022885
     6  H   -0.079052  -0.022874
     7  H   -0.079073  -0.022887
     8  H   -0.079064  -0.022877
 Sum of Mulliken charges =  -1.00000   1.00000

 Dipole moment (field-independent basis, Debye):
    X=             -0.0000    Y=              0.0000    Z=             -0.0000  Tot=              0.0000
 Quadrupole moment (field-independent basis, Debye-Ang):
   XX=            -30.9640   YY=            -23.9393   ZZ=            -23.9395
   XY=              0.0000   XZ=             -0.0001   YZ=             -0.0000

 Summary of Natural Population Analysis:

                                       Natural Population
                Natural  -----------------------------------------------
    Atom  No    Charge         Core      Valence    Rydberg      Total
 -----------------------------------------------------------------------
      B    1    0.14812      0.99962     1.35015    0.00211     2.35188
      B    2    0.14812      0.99962     1.35015    0.00211     2.35188
      H    3   -0.04938      0.00000     0.54865    0.00073     0.54938
      H    4   -0.04937      0.00000     0.54864    0.00073     0.54937
      H    5   -0.04938      0.00000     0.54864    0.00073     0.54938
      H    6   -0.04936      0.00000     0.54863    0.00073     0.54936
      H    7   -0.04938      0.00000     0.54865    0.00073     0.54938
      H    8   -0.04937      0.00000     0.54864    0.00073     0.54937
 =======================================================================
   * Total *   -0.00000      1.99924     5.99213    0.00862     8.00000

 Optimization completed.
    -- Stationary point found.
 Normal termination of Gaussian 16 at Tue Apr 15 16:46:21 2025.
