 Gaussian 16, Revision A.03,
 Gaussian 16:  ES64L-G16RevA.03 25-Dec-2016

 --------------------------------------------
 #p opt UM062X/6-311+G** nosymm int=superfine
 --------------------------------------------

 -------------------
 Title Card Required
 -------------------
 Symbolic Z-matrix:
 Charge =  0 Multiplicity = 1

 SCF Done:  E(UM062X) =  -684.914452893     A.U. after   12 cycles
 SCF Done:  E(UM062X) =  -684.914577933     A.U. after   10 cycles
 SCF Done:  E(UM062X) =  -684.914580870     A.U. after    8 cycles
 SCF Done:  E(UM062X) =  -684.914589066     A.U. after    8 cycles
 SCF Done:  E(UM062X) =  -684.914607286     A.U. after   11 cycles
 SCF Done:  E(UM062X) =  -684.914607756     A.U. after    9 cycles
 SCF Done:  E(UM062X) =  -684.914608043     A.U. after   10 cycles
 SCF Done:  E(UM062X) =  -684.914609004     A.U. after    9 cycles
 SCF Done:  E(UM062X) =  -684.914609601     A.U. after   12 cycles
 SCF Done:  E(UM062X) =  -684.914609925     A.U. after    9 cycles
 SCF Done:  E(UM062X) =  -684.914612266     A.U. after   11 cycles
 SCF Done:  E(UM062X) =  -684.914613636     A.U. after   10 cycles
 SCF Done:  E(UM062X) =  -684.914613962     A.U. after   10 cycles
 SCF Done:  E(UM062X) =  -684.914614302     A.U. after    8 cycles
 SCF Done:  E(UM062X) =  -684.914614488     A.U. after   10 cycles
 SCF Done:  E(UM062X) =  -684.914614609     A.U. after    8 cycles
 SCF Done:  E(UM062X) =  -684.914614749     A.U. after   10 cycles
 SCF Done:  E(UM062X) =  -684.914614875     A.U. after    8 cycles
 SCF Done:  E(UM062X) =  -684.914614956     A.U. after    9 cycles
 SCF Done:  E(UM062X) =  -684.914614974     A.U. after   10 cycles
 Optimization completed.
    -- Stationary point found.

                          Input orientation:
 ---------------------------------------------------------------------
 Center     Atomic      Atomic             Coordinates (Angstroms)
 Number     Number       Type             X           Y           Z
 ---------------------------------------------------------------------
      1         15           0       -2.292217    0.000000    0.000000
      2         15           0        2.292217    0.000000    0.000000
      3          1           0        2.187183   -0.849143    1.131855
      4          1           0       -2.187435    0.911796    1.082170
      5          1           0        2.183197   -1.098305   -0.891574
      6          1           0       -2.182184    1.045923   -0.952230
 ---------------------------------------------------------------------

 Alpha  occ. eigenvalues --  -78.05005 -78.05005  -6.87413  -6.87412  -4.98959
 Alpha  occ. eigenvalues --   -4.98959  -4.98836  -4.98836  -4.98654  -4.98654
 Alpha  occ. eigenvalues --   -0.71198  -0.70921  -0.45129  -0.45028  -0.36279
 Alpha  occ. eigenvalues --   -0.36174  -0.24111
 Alpha virt. eigenvalues --   -0.15405   0.01570   0.02853   0.03199   0.04018
 Alpha virt. eigenvalues --    0.04834   0.05894   0.06081   0.06106   0.06157
 Alpha virt. eigenvalues --    0.07910   0.13080   0.18356   0.28885   0.29599

  Beta  occ. eigenvalues --  -78.05005 -78.05005  -6.87413  -6.87412  -4.98959
  Beta  occ. eigenvalues --   -4.98959  -4.98836  -4.98836  -4.98654  -4.98654
  Beta  occ. eigenvalues --   -0.71198  -0.70921  -0.45129  -0.45028  -0.36279
  Beta  occ. eigenvalues --   -0.36174  -0.24111
  Beta virt. eigenvalues --   -0.15405   0.01570   0.02853   0.03199   0.04018
  Beta virt. eigenvalues --    0.04834   0.05894   0.06081   0.06106   0.06157
  Beta virt. eigenvalues --    0.07910   0.13080   0.18356   0.28885   0.29599

 Mulliken charges and spin densities:
               1          2
     1  P    0.003543  -0.000000
     2  P    0.003505   0.000000
     3  H   -0.002274  -0.000000
     4  H   -0.002275   0.000000
     5  H   -0.001255  -0.000000
     6  H   -0.001244   0.000000
 Sum of Mulliken charges =  -0.00000   0.00000

 Dipole moment (field-independent basis, Debye):
    X=              0.0002    Y=              0.0050    Z=              0.1684  Tot=              0.1684
 Quadrupole moment (field-independent basis, Debye-Ang):
   XX=            -28.8567   YY=            -31.2376   ZZ=            -28.5567
   XY=             -4.5287   XZ=              0.1278   YZ=              0.0758

 Normal termination of Gaussian 16 at Mon Apr 21 23:01:06 2025.
