 Gaussian 16, Revision A.03,
 Gaussian 16:  ES64L-G16RevA.03 25-Dec-2016

 ---------------------------------------------------
 #p UM062X/6-311+G** force int=superfine pop=saveNBO
 ---------------------------------------------------

 -------------------
 Title Card Required
 -------------------
 Symbolic Z-matrix:
 Charge =  0 Multiplicity = 1

                         Standard orientation:
 ---------------------------------------------------------------------
 Center     Atomic      Atomic             Coordinates (Angstroms)
 Number     Number       Type             X           Y           Z
 ---------------------------------------------------------------------
      1         15           0        0.000000    0.000000    1.938495
      2         15           0        0.000000    0.000000   -1.938495
 ---------------------------------------------------------------------

 SCF Done:  E(UM062X) =  -682.299224550     A.U. after    9 cycles

 The electronic state is 1-SGG.
 Alpha  occ. eigenvalues --  -78.12106 -78.12105  -6.93724  -6.93723  -5.05019
 Alpha  occ. eigenvalues --   -5.05018  -5.05010  -5.05010  -5.05010  -5.05010
 Alpha  occ. eigenvalues --   -0.64498  -0.63075  -0.27414  -0.25306  -0.25306
 Alpha virt. eigenvalues --   -0.17369  -0.17369  -0.15060   0.02342   0.03261
 Alpha virt. eigenvalues --    0.04479   0.04479   0.06370   0.06370   0.06373
 Alpha virt. eigenvalues --    0.10577   0.29653   0.29653   0.31096   0.31338

  Beta  occ. eigenvalues --  -78.12106 -78.12105  -6.93724  -6.93723  -5.05019
  Beta  occ. eigenvalues --   -5.05018  -5.05010  -5.05010  -5.05010  -5.05010
  Beta  occ. eigenvalues --   -0.64498  -0.63075  -0.27414  -0.25306  -0.25306
  Beta virt. eigenvalues --   -0.17369  -0.17369  -0.15060   0.02342   0.03261
  Beta virt. eigenvalues --    0.04479   0.04479   0.06370   0.06370   0.06373
  Beta virt. eigenvalues --    0.10577   0.29653   0.29653   0.31096   0.31338

 Mulliken charges and spin densities:
               1          2
     1  P    0.000000   0.000000
     2  P    0.000000   0.000000
 Sum of Mulliken charges =   0.00000   0.00000

 Dipole moment (field-independent basis, Debye):
    X=              0.0000    Y=             -0.0000    Z=             -0.0000  Tot=              0.0000
 Quadrupole moment (field-independent basis, Debye-Ang):
   XX=            -29.4506   YY=            -29.4506   ZZ=            -24.2398
   XY=              0.0000   XZ=             -0.0000   YZ=              0.0000

 Summary of Natural Population Analysis:

                                       Natural Population
                Natural  -----------------------------------------------
    Atom  No    Charge         Core      Valence    Rydberg      Total
 -----------------------------------------------------------------------
      P    1    0.00000      5.00000     2.49938    0.00062     7.50000
      P    2    0.00000      5.00000     2.49938    0.00062     7.50000
 =======================================================================
   * Total *    0.00000      9.99999     4.99876    0.00124    15.00000

 Normal termination of Gaussian 16 at Mon Apr 21 21:22:25 2025.
