 Gaussian 16, Revision A.03,
 Gaussian 16:  ES64L-G16RevA.03 25-Dec-2016

 --------------------------------------------
 #p opt UM062X/6-311+G** nosymm int=superfine
 --------------------------------------------

 -------------------
 Title Card Required
 -------------------
 Symbolic Z-matrix:
 Charge = -1 Multiplicity = 2

 SCF Done:  E(UM062X) =  -50.7326555697     A.U. after   11 cycles
 SCF Done:  E(UM062X) =  -50.7326604087     A.U. after    7 cycles
 Optimization completed.
    -- Stationary point found.

                          Input orientation:
 ---------------------------------------------------------------------
 Center     Atomic      Atomic             Coordinates (Angstroms)
 Number     Number       Type             X           Y           Z
 ---------------------------------------------------------------------
      1          5           0       -0.916404    0.000000    0.000000
      2          5           0        0.916404    0.000000    0.000000
      3          1           0       -2.097883   -0.000903   -0.000000
      4          1           0        2.097883    0.000903   -0.000000
 ---------------------------------------------------------------------

 Alpha  occ. eigenvalues --   -6.86736  -6.86706  -0.36225  -0.31945  -0.19231
 Alpha  occ. eigenvalues --   -0.02335  -0.00912
 Alpha virt. eigenvalues --    0.14090   0.15454   0.17354   0.17601   0.20231
 Alpha virt. eigenvalues --    0.21500   0.21503   0.25150   0.25335   0.25542
 Alpha virt. eigenvalues --    0.29464   0.38899   0.46226   0.56093   0.59457

  Beta  occ. eigenvalues --   -6.86696  -6.86673  -0.34031  -0.31041  -0.18425
  Beta  occ. eigenvalues --    0.01022
  Beta virt. eigenvalues --    0.11059   0.14274   0.14650   0.16442   0.18026
  Beta virt. eigenvalues --    0.19204   0.20911   0.21333   0.23063   0.27397
  Beta virt. eigenvalues --    0.28511   0.30948   0.39225   0.46999   0.56445

 Mulliken charges and spin densities:
               1          2
     1  B   -0.487156   0.525224
     2  B   -0.487156   0.525224
     3  H   -0.012844  -0.025224
     4  H   -0.012844  -0.025224
 Sum of Mulliken charges =  -1.00000   1.00000

 Dipole moment (field-independent basis, Debye):
    X=              0.0000    Y=             -0.0000    Z=             -0.0000  Tot=              0.0000
 Quadrupole moment (field-independent basis, Debye-Ang):
   XX=            -22.8259   YY=            -28.7717   ZZ=            -21.9966
   XY=              0.0053   XZ=              0.0000   YZ=             -0.0001

 Normal termination of Gaussian 16 at Mon Apr 21 17:30:24 2025.
