 Gaussian 16, Revision A.03,
 Gaussian 16:  ES64L-G16RevA.03 25-Dec-2016

 --------------------------------------------
 #p opt UM062X/6-311+G** nosymm int=superfine
 --------------------------------------------

 -------------------
 Title Card Required
 -------------------
 Symbolic Z-matrix:
 Charge = -1 Multiplicity = 2

 SCF Done:  E(UM062X) =  -51.8483460605     A.U. after   12 cycles
 SCF Done:  E(UM062X) =  -51.8483597645     A.U. after   13 cycles
 Optimization completed.
    -- Stationary point found.

                          Input orientation:
 ---------------------------------------------------------------------
 Center     Atomic      Atomic             Coordinates (Angstroms)
 Number     Number       Type             X           Y           Z
 ---------------------------------------------------------------------
      1          5           0       -1.947274    0.000000    0.000000
      2          5           0        1.947274    0.000000    0.000000
      3          1           0       -2.618354   -1.012676   -0.000026
      4          1           0        2.618354    1.012676   -0.000501
      5          1           0       -2.618356    1.012675   -0.000021
      6          1           0        2.618356   -1.012675    0.000454
 ---------------------------------------------------------------------

 Alpha  occ. eigenvalues --   -6.87471  -6.87471  -0.37650  -0.37511  -0.21737
 Alpha  occ. eigenvalues --   -0.21649  -0.05585  -0.01401
 Alpha virt. eigenvalues --    0.11911   0.13407   0.15229   0.15878   0.15951
 Alpha virt. eigenvalues --    0.17665   0.20108   0.21029   0.21107   0.23244
 Alpha virt. eigenvalues --    0.32294   0.33652   0.34308   0.37750   0.50433

  Beta  occ. eigenvalues --   -6.86864  -6.86863  -0.36334  -0.36123  -0.21062
  Beta  occ. eigenvalues --   -0.20958   0.01455
  Beta virt. eigenvalues --    0.13068   0.13185   0.14385   0.14505   0.17051
  Beta virt. eigenvalues --    0.18034   0.18187   0.22399   0.22665   0.23943
  Beta virt. eigenvalues --    0.25260   0.32341   0.33776   0.34404   0.38563

 Mulliken charges and spin densities:
               1          2
     1  B   -0.339927   0.491837
     2  B   -0.339927   0.491838
     3  H   -0.080036   0.004081
     4  H   -0.080036   0.004081
     5  H   -0.080036   0.004081
     6  H   -0.080036   0.004081
 Sum of Mulliken charges =  -1.00000   1.00000

 Dipole moment (field-independent basis, Debye):
    X=              0.0000    Y=             -0.0000    Z=             -0.0002  Tot=              0.0002
 Quadrupole moment (field-independent basis, Debye-Ang):
   XX=            -41.6671   YY=            -24.6040   ZZ=            -19.0352
   XY=              0.0000   XZ=             -0.0000   YZ=              0.0013

 Normal termination of Gaussian 16 at Mon Apr 21 17:25:52 2025.
