 Gaussian 16, Revision A.03,
 Gaussian 16:  ES64L-G16RevA.03 25-Dec-2016

 --------------------------------------------
 #p opt UM062X/6-311+G** nosymm int=superfine
 --------------------------------------------

 -------------------
 Title Card Required
 -------------------
 Symbolic Z-matrix:
 Charge =  0 Multiplicity = 1

 SCF Done:  E(UM062X) =  -114.463005940     A.U. after   10 cycles
 SCF Done:  E(UM062X) =  -114.485933571     A.U. after   10 cycles
 SCF Done:  E(UM062X) =  -114.487028182     A.U. after    9 cycles
 SCF Done:  E(UM062X) =  -114.487097422     A.U. after    8 cycles
 SCF Done:  E(UM062X) =  -114.487090759     A.U. after    9 cycles
 SCF Done:  E(UM062X) =  -114.487099573     A.U. after    8 cycles
 SCF Done:  E(UM062X) =  -114.487100002     A.U. after    7 cycles
 Optimization completed.
    -- Stationary point found.

                          Input orientation:
 ---------------------------------------------------------------------
 Center     Atomic      Atomic             Coordinates (Angstroms)
 Number     Number       Type             X           Y           Z
 ---------------------------------------------------------------------
      1          6           0       -0.584604    0.000036   -0.000072
      2          8           0        0.612018   -0.000073    0.000020
      3          1           0       -1.166585   -0.939210    0.000035
      4          1           0       -1.166420    0.939385   -0.000269
 ---------------------------------------------------------------------

 Alpha  occ. eigenvalues --  -19.64748 -10.64204  -1.19664  -0.72876  -0.58391
 Alpha  occ. eigenvalues --   -0.54123  -0.47981  -0.34874
 Alpha virt. eigenvalues --   -0.01151   0.01963   0.04616   0.04622   0.07213
 Alpha virt. eigenvalues --    0.16440   0.20572   0.21360   0.24296   0.25790
 Alpha virt. eigenvalues --    0.29843   0.36572   0.50308   0.51450   0.55201

  Beta  occ. eigenvalues --  -19.64748 -10.64204  -1.19664  -0.72876  -0.58391
  Beta  occ. eigenvalues --   -0.54123  -0.47981  -0.34874
  Beta virt. eigenvalues --   -0.01151   0.01963   0.04616   0.04622   0.07213
  Beta virt. eigenvalues --    0.16440   0.20572   0.21360   0.24296   0.25790
  Beta virt. eigenvalues --    0.29843   0.36572   0.50308   0.51450   0.55201

 Mulliken charges and spin densities:
               1          2
     1  C   -0.008430  -0.000000
     2  O   -0.237396   0.000000
     3  H    0.122913   0.000000
     4  H    0.122913  -0.000000
 Sum of Mulliken charges =  -0.00000  -0.00000

 Dipole moment (field-independent basis, Debye):
    X=             -2.5300    Y=              0.0002    Z=             -0.0002  Tot=              2.5300
 Quadrupole moment (field-independent basis, Debye-Ang):
   XX=            -12.0083   YY=            -11.5862   ZZ=            -11.7264
   XY=              0.0001   XZ=              0.0000   YZ=             -0.0000

 Normal termination of Gaussian 16 at Wed Apr 16 02:40:57 2025.
