 Gaussian 16, Revision A.03,
 Gaussian 16:  ES64L-G16RevA.03 25-Dec-2016

 ---------------------------------------------------
 #p UM062X/6-311+G** force int=superfine pop=saveNBO
 ---------------------------------------------------

 -------------------
 Title Card Required
 -------------------
 Symbolic Z-matrix:
 Charge =  0 Multiplicity = 1

                         Standard orientation:
 ---------------------------------------------------------------------
 Center     Atomic      Atomic             Coordinates (Angstroms)
 Number     Number       Type             X           Y           Z
 ---------------------------------------------------------------------
      1         16           0        0.000000    0.000000    2.425200
      2         16           0        0.000000    0.000000   -2.425200
 ---------------------------------------------------------------------

 SCF Done:  E(UM062X) =  -796.000778769     A.U. after    9 cycles

 Unable to determine electronic state:  partially filled degenerate orbitals.
 Alpha  occ. eigenvalues --  -89.98300 -89.98300  -8.34157  -8.34157  -6.26181
 Alpha  occ. eigenvalues --   -6.26181  -6.26165  -6.26165  -6.25348  -6.25348
 Alpha  occ. eigenvalues --   -0.77713  -0.77429  -0.34586  -0.34472  -0.30812
 Alpha  occ. eigenvalues --   -0.30238
 Alpha virt. eigenvalues --   -0.24363  -0.23770   0.02779   0.03976   0.04577
 Alpha virt. eigenvalues --    0.04970   0.06605   0.06838   0.07284   0.11395
 Alpha virt. eigenvalues --    0.31137   0.33486   0.34300   0.34850   0.35663

  Beta  occ. eigenvalues --  -89.98300 -89.98300  -8.34157  -8.34157  -6.26181
  Beta  occ. eigenvalues --   -6.26181  -6.26165  -6.26165  -6.25348  -6.25348
  Beta  occ. eigenvalues --   -0.77713  -0.77429  -0.34586  -0.34472  -0.30812
  Beta  occ. eigenvalues --   -0.30238
  Beta virt. eigenvalues --   -0.24363  -0.23770   0.02779   0.03976   0.04577
  Beta virt. eigenvalues --    0.04970   0.06605   0.06838   0.07284   0.11395
  Beta virt. eigenvalues --    0.31137   0.33486   0.34300   0.34850   0.35663

 Mulliken charges and spin densities:
               1          2
     1  S   -0.000000   0.000000
     2  S   -0.000000   0.000000
 Sum of Mulliken charges =  -0.00000   0.00000

 Dipole moment (field-independent basis, Debye):
    X=              0.0000    Y=             -0.0000    Z=              0.0000  Tot=              0.0000
 Quadrupole moment (field-independent basis, Debye-Ang):
   XX=            -30.4072   YY=            -25.3065   ZZ=            -23.3402
   XY=              0.0000   XZ=             -0.0000   YZ=              0.0000

 Summary of Natural Population Analysis:

                                       Natural Population
                Natural  -----------------------------------------------
    Atom  No    Charge         Core      Valence    Rydberg      Total
 -----------------------------------------------------------------------
      S    1   -0.00000      5.00000     2.99944    0.00057     8.00000
      S    2   -0.00000      5.00000     2.99944    0.00057     8.00000
 =======================================================================
   * Total *   -0.00000      9.99999     5.99888    0.00113    16.00000

 Normal termination of Gaussian 16 at Mon Apr 21 20:06:26 2025.
