 Gaussian 16, Revision A.03,
 Gaussian 16:  ES64L-G16RevA.03 25-Dec-2016

 --------------------------------------------
 #p opt UM062X/6-311+G** nosymm int=superfine
 --------------------------------------------

 -------------------
 Title Card Required
 -------------------
 Symbolic Z-matrix:
 Charge =  1 Multiplicity = 2

 SCF Done:  E(UM062X) =  -79.3507701417     A.U. after   10 cycles
 SCF Done:  E(UM062X) =  -79.3508467887     A.U. after    9 cycles
 Optimization completed.
    -- Stationary point found.

                          Input orientation:
 ---------------------------------------------------------------------
 Center     Atomic      Atomic             Coordinates (Angstroms)
 Number     Number       Type             X           Y           Z
 ---------------------------------------------------------------------
      1          6           0       -1.341072    0.000000    0.000000
      2          6           0        1.341072    0.000000    0.000000
      3          1           0        1.410110   -0.936260    0.541862
      4          1           0       -1.409046   -0.937377   -0.540061
      5          1           0        1.409676    0.937461    0.539838
      6          1           0        1.408998   -0.001143   -1.081824
      7          1           0       -1.410143    0.936337   -0.541727
      8          1           0       -1.409590    0.000919    1.081788
 ---------------------------------------------------------------------

 Alpha  occ. eigenvalues --  -10.85489 -10.85485  -1.05504  -1.02614  -0.75735
 Alpha  occ. eigenvalues --   -0.75734  -0.74238  -0.74238  -0.55481
 Alpha virt. eigenvalues --   -0.33197  -0.14847  -0.10491  -0.10491  -0.10045
 Alpha virt. eigenvalues --   -0.06205  -0.06205  -0.05988  -0.03318  -0.03315
 Alpha virt. eigenvalues --   -0.03008   0.01522   0.01524   0.05446   0.07447

  Beta  occ. eigenvalues --  -10.85293 -10.85293  -1.02355  -1.00213  -0.75069
  Beta  occ. eigenvalues --   -0.75068  -0.73707  -0.73706
  Beta virt. eigenvalues --   -0.33549  -0.23986  -0.15526  -0.11113  -0.11113
  Beta virt. eigenvalues --   -0.09680  -0.06536  -0.06536  -0.05969  -0.03308
  Beta virt. eigenvalues --   -0.03306  -0.02240   0.01898   0.01900   0.06013

 Mulliken charges and spin densities:
               1          2
     1  C   -0.279838   0.573900
     2  C   -0.279838   0.573901
     3  H    0.259965  -0.024642
     4  H    0.259920  -0.024633
     5  H    0.259945  -0.024639
     6  H    0.259928  -0.024619
     7  H    0.259967  -0.024643
     8  H    0.259952  -0.024625
 Sum of Mulliken charges =   1.00000   1.00000

 Dipole moment (field-independent basis, Debye):
    X=             -0.0000    Y=             -0.0000    Z=             -0.0001  Tot=              0.0001
 Quadrupole moment (field-independent basis, Debye-Ang):
   XX=             -2.6107   YY=            -10.9695   ZZ=            -10.9696
   XY=             -0.0012   XZ=              0.0008   YZ=             -0.0001

 Normal termination of Gaussian 16 at Wed Nov 13 12:43:46 2024.
