 Gaussian 16, Revision A.03,
 Gaussian 16:  ES64L-G16RevA.03 25-Dec-2016

 --------------------------------------------
 #p opt UM062X/6-311+G** nosymm int=superfine
 --------------------------------------------

 -------------------
 Title Card Required
 -------------------
 Symbolic Z-matrix:
 Charge =  0 Multiplicity = 1

 SCF Done:  E(UM062X) =  -151.295060128     A.U. after   26 cycles
 SCF Done:  E(UM062X) =  -151.295366125     A.U. after   21 cycles
 SCF Done:  E(UM062X) =  -151.295586508     A.U. after   23 cycles
 SCF Done:  E(UM062X) =  -151.295885076     A.U. after   22 cycles
 SCF Done:  E(UM062X) =  -151.296085148     A.U. after   32 cycles
 SCF Done:  E(UM062X) =  -151.296280146     A.U. after   22 cycles
 SCF Done:  E(UM062X) =  -151.296420725     A.U. after   17 cycles
 SCF Done:  E(UM062X) =  -151.296508930     A.U. after   59 cycles
 SCF Done:  E(UM062X) =  -151.296561617     A.U. after   24 cycles
 SCF Done:  E(UM062X) =  -151.296589187     A.U. after   24 cycles
 SCF Done:  E(UM062X) =  -151.296593260     A.U. after   15 cycles
 SCF Done:  E(UM062X) =  -151.296593596     A.U. after   22 cycles
 SCF Done:  E(UM062X) =  -151.296593631     A.U. after   14 cycles
 Optimization completed.
    -- Stationary point found.

                          Input orientation:
 ---------------------------------------------------------------------
 Center     Atomic      Atomic             Coordinates (Angstroms)
 Number     Number       Type             X           Y           Z
 ---------------------------------------------------------------------
      1          8           0       -2.161938    0.000000    0.000000
      2          8           0        2.161938    0.000000    0.000000
      3          1           0       -1.973005   -0.755625   -0.584010
      4          1           0        1.973513    0.755748    0.584013
 ---------------------------------------------------------------------

 Alpha  occ. eigenvalues --  -19.72108 -19.72107  -1.12789  -1.12692  -0.56569
 Alpha  occ. eigenvalues --   -0.56541  -0.43981  -0.43938  -0.35183
 Alpha virt. eigenvalues --   -0.27941   0.05286   0.07119   0.15472   0.15562
 Alpha virt. eigenvalues --    0.15593   0.17822   0.18917   0.19748   0.19933
 Alpha virt. eigenvalues --    0.29240   0.49589   0.50035   0.99716   1.00975

  Beta  occ. eigenvalues --  -19.72108 -19.72107  -1.12789  -1.12692  -0.56569
  Beta  occ. eigenvalues --   -0.56541  -0.43981  -0.43938  -0.35183
  Beta virt. eigenvalues --   -0.27941   0.05286   0.07119   0.15472   0.15562
  Beta virt. eigenvalues --    0.15593   0.17822   0.18917   0.19748   0.19933
  Beta virt. eigenvalues --    0.29240   0.49589   0.50035   0.99716   1.00975

 Mulliken charges and spin densities:
               1          2
     1  O   -0.265196  -0.000000
     2  O   -0.265219   0.000000
     3  H    0.265210  -0.000000
     4  H    0.265206   0.000000
 Sum of Mulliken charges =   0.00000  -0.00000

 Dipole moment (field-independent basis, Debye):
    X=              0.0007    Y=              0.0002    Z=             -0.0000  Tot=              0.0008
 Quadrupole moment (field-independent basis, Debye-Ang):
   XX=            -14.0926   YY=            -10.6077   ZZ=            -11.8765
   XY=              5.9918   XZ=              4.6304   YZ=              2.4346

 Normal termination of Gaussian 16 at Mon Apr 21 21:39:17 2025.
