 Gaussian 16, Revision A.03,
 Gaussian 16:  ES64L-G16RevA.03 25-Dec-2016

 --------------------------------------------
 #p opt UM062X/6-311+G** nosymm int=superfine
 --------------------------------------------

 -------------------
 Title Card Required
 -------------------
 Symbolic Z-matrix:
 Charge =  1 Multiplicity = 2

 SCF Done:  E(UM062X) =  -75.9625026497     A.U. after    9 cycles
 SCF Done:  E(UM062X) =  -76.1698779230     A.U. after    9 cycles
 SCF Done:  E(UM062X) =  -76.2759493277     A.U. after   57 cycles
 SCF Done:  E(UM062X) =  -76.2759723021     A.U. after    9 cycles
 Optimization completed.
    -- Stationary point found.

                          Input orientation:
 ---------------------------------------------------------------------
 Center     Atomic      Atomic             Coordinates (Angstroms)
 Number     Number       Type             X           Y           Z
 ---------------------------------------------------------------------
      1          6           0       -0.422513    0.000000    0.000000
      2          6           0        0.422513    0.000000    0.000000
      3          1           0       -1.489965    0.000000    0.000000
      4          1           0        1.489964    0.000000   -0.000000
 ---------------------------------------------------------------------

 Alpha  occ. eigenvalues --  -10.92890 -10.87623  -1.34085  -0.93928  -0.92008
 Alpha  occ. eigenvalues --   -0.89601  -0.85551
 Alpha virt. eigenvalues --   -0.15354  -0.14942  -0.13993  -0.13373  -0.12114
 Alpha virt. eigenvalues --   -0.11895  -0.11754  -0.01889  -0.00901  -0.00764
 Alpha virt. eigenvalues --    0.02645   0.03768   0.16963   0.23021   0.23319

  Beta  occ. eigenvalues --  -10.92369 -10.87268  -1.27227  -0.92422  -0.90949
  Beta  occ. eigenvalues --   -0.82802
  Beta virt. eigenvalues --   -0.56609  -0.15468  -0.13299  -0.13063  -0.12791
  Beta virt. eigenvalues --   -0.12187  -0.11811  -0.11786  -0.00464  -0.00284
  Beta virt. eigenvalues --    0.00837   0.03116   0.04304   0.17329   0.22064

 Mulliken charges and spin densities:
               1          2
     1  C    0.260866   0.523738
     2  C    0.260866   0.523738
     3  H    0.239134  -0.023738
     4  H    0.239134  -0.023738
 Sum of Mulliken charges =   1.00000   1.00000

 Dipole moment (field-independent basis, Debye):
    X=             -0.0000    Y=              0.0000    Z=             -0.0000  Tot=              0.0000
 Quadrupole moment (field-independent basis, Debye-Ang):
   XX=             -2.8097   YY=             -9.7184   ZZ=             -8.3971
   XY=             -0.0000   XZ=             -0.0000   YZ=             -0.1922

 Normal termination of Gaussian 16 at Tue Nov 19 12:41:30 2024.
