 Gaussian 16, Revision A.03,
 Gaussian 16:  ES64L-G16RevA.03 25-Dec-2016

 --------------------------------------------
 #p opt UM062X/6-311+G** nosymm int=superfine
 --------------------------------------------

 -------------------
 Title Card Required
 -------------------
 Symbolic Z-matrix:
 Charge =  0 Multiplicity = 2

 SCF Done:  E(UM062X) =  -39.8107465452     A.U. after   10 cycles
 SCF Done:  E(UM062X) =  -39.8184080906     A.U. after   11 cycles
 SCF Done:  E(UM062X) =  -39.8205437143     A.U. after   11 cycles
 SCF Done:  E(UM062X) =  -39.8208045973     A.U. after   10 cycles
 SCF Done:  E(UM062X) =  -39.8208600207     A.U. after    9 cycles
 SCF Done:  E(UM062X) =  -39.8208673726     A.U. after    8 cycles
 SCF Done:  E(UM062X) =  -39.8208686655     A.U. after    8 cycles
 Optimization completed.
    -- Stationary point found.

                          Input orientation:
 ---------------------------------------------------------------------
 Center     Atomic      Atomic             Coordinates (Angstroms)
 Number     Number       Type             X           Y           Z
 ---------------------------------------------------------------------
      1          6           0       -1.184315    0.021890    0.000059
      2          1           0       -1.118873    1.098702    0.003015
      3          1           0       -1.216313   -0.514140   -0.935599
      4          1           0       -1.215483   -0.519129    0.932900
 ---------------------------------------------------------------------

 Alpha  occ. eigenvalues --  -10.54495  -0.77839  -0.49114  -0.49111  -0.28694
 Alpha virt. eigenvalues --    0.03944   0.05986   0.05987   0.09091   0.18983
 Alpha virt. eigenvalues --    0.19449   0.19452   0.44022   0.44023   0.48677
 Alpha virt. eigenvalues --    0.57584   0.65716   0.65720   0.75490   1.09615

  Beta  occ. eigenvalues --  -10.53806  -0.73026  -0.47830  -0.47827
  Beta virt. eigenvalues --   -0.04277   0.02681   0.06172   0.06172   0.12576
  Beta virt. eigenvalues --    0.19838   0.19840   0.20587   0.43374   0.43375
  Beta virt. eigenvalues --    0.49513   0.59736   0.67913   0.67917   0.77449

 Mulliken charges and spin densities:
               1          2
     1  C   -0.484064   1.150246
     2  H    0.161358  -0.050081
     3  H    0.161357  -0.050081
     4  H    0.161350  -0.050084
 Sum of Mulliken charges =   0.00000   1.00000

 Dipole moment (field-independent basis, Debye):
    X=              0.0017    Y=             -0.0001    Z=              0.0000  Tot=              0.0017
 Quadrupole moment (field-independent basis, Debye-Ang):
   XX=             -9.2580   YY=             -7.2606   ZZ=             -7.2537
   XY=              0.1203   XZ=              0.0012   YZ=              0.0001

 1\1\GINC-NODE02\FOpt\UM062X\6-311+G(d,p)\C1H3(2)\SZHAO\16-Apr-2025\0\\
 #p opt UM062X/6-311+G** nosymm int=superfine\\Title Card Required\\0,2
 \C,-1.1843152113,0.0218901421,0.0000594454\H,-1.1188733909,1.098701710
 2,0.0030154102\H,-1.2163126496,-0.5141401054,-0.9355991042\H,-1.215482
 7282,-0.5191290469,0.9328998986\\Version=ES64L-G16RevA.03\HF=-39.82086
 87\S2=0.754649\S2-1=0.\S2A=0.750015\RMSD=2.333e-09\RMSF=1.847e-05\Dipo
 le=0.0006841,-0.0000508,0.0000113\Quadrupole=-0.9916963,0.4932909,0.49
 84055,0.089474,0.0008839,0.00011\PG=C01 [X(C1H3)]\\@

 Normal termination of Gaussian 16 at Wed Apr 16 08:42:28 2025.
