 Gaussian 16, Revision A.03,
 Gaussian 16:  ES64L-G16RevA.03 25-Dec-2016

 --------------------------------------------
 #p opt UM062X/6-311+G** nosymm int=superfine
 --------------------------------------------

 -------------------
 Title Card Required
 -------------------
 Symbolic Z-matrix:
 Charge =  0 Multiplicity = 1

 SCF Done:  E(UM062X) =  -680.881420283     A.U. after   10 cycles
 SCF Done:  E(UM062X) =  -681.603466100     A.U. after   11 cycles
 SCF Done:  E(UM062X) =  -682.644081377     A.U. after   11 cycles
 SCF Done:  E(UM062X) =  -682.605452390     A.U. after   10 cycles
 SCF Done:  E(UM062X) =  -682.661629504     A.U. after    8 cycles
 SCF Done:  E(UM062X) =  -682.661636769     A.U. after    8 cycles
 Optimization completed.
    -- Stationary point found.

                          Input orientation:
 ---------------------------------------------------------------------
 Center     Atomic      Atomic             Coordinates (Angstroms)
 Number     Number       Type             X           Y           Z
 ---------------------------------------------------------------------
      1         15           0        0.938495    0.000000    0.000000
      2         15           0       -0.938495    0.000000    0.000000
 ---------------------------------------------------------------------

 Alpha  occ. eigenvalues --  -78.04563 -78.04563  -6.87286  -6.87233  -4.98676
 Alpha  occ. eigenvalues --   -4.98676  -4.98654  -4.98654  -4.98645  -4.98437
 Alpha  occ. eigenvalues --   -0.77211  -0.52573  -0.34708  -0.33721  -0.33721
 Alpha virt. eigenvalues --   -0.06498  -0.06498   0.02456   0.02828   0.03975
 Alpha virt. eigenvalues --    0.03975   0.05903   0.07292   0.07292   0.11109
 Alpha virt. eigenvalues --    0.14387   0.25089   0.30158   0.30158   0.35521

  Beta  occ. eigenvalues --  -78.04563 -78.04563  -6.87286  -6.87233  -4.98676
  Beta  occ. eigenvalues --   -4.98676  -4.98654  -4.98654  -4.98645  -4.98437
  Beta  occ. eigenvalues --   -0.77211  -0.52573  -0.34708  -0.33721  -0.33721
  Beta virt. eigenvalues --   -0.06498  -0.06498   0.02456   0.02828   0.03975
  Beta virt. eigenvalues --    0.03975   0.05903   0.07292   0.07292   0.11109
  Beta virt. eigenvalues --    0.14387   0.25089   0.30158   0.30158   0.35521

 Mulliken charges and spin densities:
               1          2
     1  P    0.000000   0.000000
     2  P   -0.000000  -0.000000
 Sum of Mulliken charges =  -0.00000  -0.00000

 Dipole moment (field-independent basis, Debye):
    X=              0.0000    Y=             -0.0000    Z=              0.0000  Tot=              0.0000
 Quadrupole moment (field-independent basis, Debye-Ang):
   XX=            -26.6082   YY=            -26.2384   ZZ=            -26.2384
   XY=             -0.0000   XZ=             -0.0000   YZ=             -0.0000

 Normal termination of Gaussian 16 at Wed Apr 16 05:47:56 2025.
