 Gaussian 16, Revision A.03,
 Gaussian 16:  ES64L-G16RevA.03 25-Dec-2016

 --------------------------------------------
 #p opt UM062X/6-311+G** nosymm int=superfine
 --------------------------------------------

 -------------------
 Title Card Required
 -------------------
 Symbolic Z-matrix:
 Charge =  0 Multiplicity = 1

 SCF Done:  E(UM062X) =  -78.5577155603     A.U. after    8 cycles
 SCF Done:  E(UM062X) =  -78.5590005096     A.U. after    7 cycles
 SCF Done:  E(UM062X) =  -78.5590937036     A.U. after    7 cycles
 SCF Done:  E(UM062X) =  -78.5590957411     A.U. after    6 cycles
 Optimization completed.
    -- Stationary point found.

                          Input orientation:
 ---------------------------------------------------------------------
 Center     Atomic      Atomic             Coordinates (Angstroms)
 Number     Number       Type             X           Y           Z
 ---------------------------------------------------------------------
      1          6           0       -0.696016    0.000000    0.000000
      2          6           0        0.696016    0.000000    0.000000
      3          1           0       -1.252202   -0.929146   -0.000000
      4          1           0       -1.252255    0.929105   -0.000000
      5          1           0        1.252202    0.929146   -0.000000
      6          1           0        1.252255   -0.929105    0.000000
 ---------------------------------------------------------------------

 Alpha  occ. eigenvalues --  -10.54883 -10.54802  -0.84719  -0.66912  -0.53963
 Alpha  occ. eigenvalues --   -0.47664  -0.42911  -0.32454
 Alpha virt. eigenvalues --    0.01681   0.03397   0.04017   0.05188   0.07884
 Alpha virt. eigenvalues --    0.08093   0.09719   0.12989   0.16009   0.17234
 Alpha virt. eigenvalues --    0.20233   0.22744   0.30927   0.34212   0.43417

  Beta  occ. eigenvalues --  -10.54883 -10.54802  -0.84719  -0.66912  -0.53963
  Beta  occ. eigenvalues --   -0.47664  -0.42911  -0.32454
  Beta virt. eigenvalues --    0.01681   0.03397   0.04017   0.05188   0.07884
  Beta virt. eigenvalues --    0.08093   0.09719   0.12989   0.16009   0.17234
  Beta virt. eigenvalues --    0.20233   0.22744   0.30927   0.34212   0.43417

 Mulliken charges and spin densities:
               1          2
     1  C   -0.303772   0.000000
     2  C   -0.303772  -0.000000
     3  H    0.151884  -0.000000
     4  H    0.151889  -0.000000
     5  H    0.151884   0.000000
     6  H    0.151889   0.000000
 Sum of Mulliken charges =  -0.00000  -0.00000

 Dipole moment (field-independent basis, Debye):
    X=              0.0000    Y=              0.0000    Z=             -0.0000  Tot=              0.0000
 Quadrupole moment (field-independent basis, Debye-Ang):
   XX=            -12.1927   YY=            -12.2974   ZZ=            -16.1772
   XY=             -0.0001   XZ=              0.0000   YZ=              0.0000

 Normal termination of Gaussian 16 at Tue Nov 19 10:38:08 2024.
