 Gaussian 16, Revision A.03,
 Gaussian 16:  ES64L-G16RevA.03 25-Dec-2016

 --------------------------------------------
 #p opt UM062X/6-311+G** nosymm int=superfine
 --------------------------------------------

 -------------------
 Title Card Required
 -------------------
 Symbolic Z-matrix:
 Charge =  0 Multiplicity = 1

 SCF Done:  E(UM062X) =  -92.9721192331     A.U. after   11 cycles
 SCF Done:  E(UM062X) =  -92.9731680233     A.U. after   10 cycles
 SCF Done:  E(UM062X) =  -92.9731696661     A.U. after    9 cycles
 Optimization completed.
    -- Stationary point found.

                          Input orientation:
 ---------------------------------------------------------------------
 Center     Atomic      Atomic             Coordinates (Angstroms)
 Number     Number       Type             X           Y           Z
 ---------------------------------------------------------------------
      1          6           0       -1.047395    0.000000    0.000000
      2          7           0        1.047395    0.000000    0.000000
      3          1           0       -2.156168   -0.000000   -0.000000
 ---------------------------------------------------------------------

 Alpha  occ. eigenvalues --  -14.89248 -10.73815  -0.83635  -0.76424  -0.44524
 Alpha  occ. eigenvalues --   -0.31705  -0.31705
 Alpha virt. eigenvalues --   -0.13425  -0.13425  -0.08206   0.01505   0.06502
 Alpha virt. eigenvalues --    0.07346   0.07346   0.13325   0.16866   0.16866
 Alpha virt. eigenvalues --    0.19927   0.26754   0.46374   0.54282   0.54282

  Beta  occ. eigenvalues --  -14.89248 -10.73815  -0.83635  -0.76424  -0.44524
  Beta  occ. eigenvalues --   -0.31705  -0.31705
  Beta virt. eigenvalues --   -0.13425  -0.13425  -0.08206   0.01505   0.06502
  Beta virt. eigenvalues --    0.07346   0.07346   0.13325   0.16866   0.16866
  Beta virt. eigenvalues --    0.19927   0.26754   0.46374   0.54282   0.54282

 Mulliken charges and spin densities:
               1          2
     1  C   -0.172523  -0.000000
     2  N   -0.054827   0.000000
     3  H    0.227349   0.000000
 Sum of Mulliken charges =  -0.00000   0.00000

 Dipole moment (field-independent basis, Debye):
    X=             -3.3850    Y=              0.0000    Z=             -0.0000  Tot=              3.3850
 Quadrupole moment (field-independent basis, Debye-Ang):
   XX=             -6.6654   YY=            -14.1298   ZZ=            -14.1298
   XY=             -0.0000   XZ=              0.0000   YZ=              0.0000

 Normal termination of Gaussian 16 at Mon Apr 21 18:38:52 2025.
