 Gaussian 16, Revision A.03,
 Gaussian 16:  ES64L-G16RevA.03 25-Dec-2016

 ---------------------------------------
 #p UM062X/6-311+G** force int=superfine
 ---------------------------------------

 -------------------
 Title Card Required
 -------------------
 Symbolic Z-matrix:
 Charge =  0 Multiplicity = 1

                         Standard orientation:
 ---------------------------------------------------------------------
 Center     Atomic      Atomic             Coordinates (Angstroms)
 Number     Number       Type             X           Y           Z
 ---------------------------------------------------------------------
      1          7           0        0.000000    0.000000    2.020048
      2          7           0        0.000000    0.000000   -2.020048
 ---------------------------------------------------------------------

 SCF Done:  E(UM062X) =  -108.693224201     A.U. after   10 cycles

 The electronic state is 1-SGG.
 Alpha  occ. eigenvalues --  -14.95729 -14.95727  -0.86848  -0.86469  -0.32141
 Alpha  occ. eigenvalues --   -0.31612  -0.31612
 Alpha virt. eigenvalues --   -0.24510  -0.24510  -0.23784   0.06628   0.09171
 Alpha virt. eigenvalues --    0.10973   0.10973   0.13562   0.14409   0.14409
 Alpha virt. eigenvalues --    0.21183   0.77419   0.77419   0.78078   0.78488

  Beta  occ. eigenvalues --  -14.95729 -14.95727  -0.86848  -0.86469  -0.32141
  Beta  occ. eigenvalues --   -0.31612  -0.31612
  Beta virt. eigenvalues --   -0.24510  -0.24510  -0.23784   0.06628   0.09171
  Beta virt. eigenvalues --    0.10973   0.10973   0.13562   0.14409   0.14409
  Beta virt. eigenvalues --    0.21183   0.77419   0.77419   0.78078   0.78488

 Mulliken charges and spin densities:
               1          2
     1  N   -0.000000  -0.000000
     2  N   -0.000000  -0.000000
 Sum of Mulliken charges =  -0.00000  -0.00000

 Dipole moment (field-independent basis, Debye):
    X=             -0.0000    Y=             -0.0000    Z=             -0.0000  Tot=              0.0000
 Quadrupole moment (field-independent basis, Debye-Ang):
   XX=            -12.4195   YY=            -12.4195   ZZ=            -11.0609
   XY=             -0.0000   XZ=             -0.0000   YZ=              0.0000

 Optimization completed.
    -- Stationary point found.
 Normal termination of Gaussian 16 at Wed Feb 26 14:02:21 2025.
