 Gaussian 16, Revision A.03,
 Gaussian 16:  ES64L-G16RevA.03 25-Dec-2016

 --------------------------------------------
 #p opt UM062X/6-311+G** nosymm int=superfine
 --------------------------------------------

 -------------------
 Title Card Required
 -------------------
 Symbolic Z-matrix:
 Charge =  0 Multiplicity = 1

 SCF Done:  E(UM062X) =  -25.2788279451     A.U. after    8 cycles
 SCF Done:  E(UM062X) =  -25.2804423101     A.U. after    8 cycles
 SCF Done:  E(UM062X) =  -25.2804712579     A.U. after    7 cycles
 Optimization completed.
    -- Stationary point found.

                          Input orientation:
 ---------------------------------------------------------------------
 Center     Atomic      Atomic             Coordinates (Angstroms)
 Number     Number       Type             X           Y           Z
 ---------------------------------------------------------------------
      1          5           0       -0.585097    0.000020    0.000000
      2          1           0       -1.814926   -0.000744    0.000000
 ---------------------------------------------------------------------

 Alpha  occ. eigenvalues --   -7.13035  -0.55205  -0.28382
 Alpha virt. eigenvalues --   -0.04810  -0.04810   0.02215   0.05833   0.06206
 Alpha virt. eigenvalues --    0.06206   0.17035   0.35499   0.41715   0.41715
 Alpha virt. eigenvalues --    0.46026   0.55528   0.82490   0.82490   0.85381

  Beta  occ. eigenvalues --   -7.13035  -0.55205  -0.28382
  Beta virt. eigenvalues --   -0.04810  -0.04810   0.02215   0.05833   0.06206
  Beta virt. eigenvalues --    0.06206   0.17035   0.35499   0.41715   0.41715
  Beta virt. eigenvalues --    0.46026   0.55528   0.82490   0.82490   0.85381

 Mulliken charges and spin densities:
               1          2
     1  B    0.013901  -0.000000
     2  H   -0.013901  -0.000000
 Sum of Mulliken charges =   0.00000  -0.00000

 Dipole moment (field-independent basis, Debye):
    X=             -1.6180    Y=             -0.0010    Z=              0.0000  Tot=              1.6180
 Quadrupole moment (field-independent basis, Debye-Ang):
   XX=             -7.9535   YY=             -6.7275   ZZ=             -6.7275
   XY=             -0.0014   XZ=              0.0000   YZ=             -0.0000

 Normal termination of Gaussian 16 at Wed Apr 16 07:42:12 2025.
