 Gaussian 16, Revision A.03,
 Gaussian 16:  ES64L-G16RevA.03 25-Dec-2016

 --------------------------------------------
 #p opt UM062X/6-311+G** nosymm int=superfine
 --------------------------------------------

 -------------------
 Title Card Required
 -------------------
 Symbolic Z-matrix:
 Charge =  0 Multiplicity = 1

 SCF Done:  E(UM062X) =  -79.6070512841     A.U. after    9 cycles
 SCF Done:  E(UM062X) =  -79.6366676680     A.U. after    8 cycles
 SCF Done:  E(UM062X) =  -79.6478634047     A.U. after    8 cycles
 SCF Done:  E(UM062X) =  -79.6479179914     A.U. after    7 cycles
 Optimization completed.
    -- Stationary point found.

                          Input orientation:
 ---------------------------------------------------------------------
 Center     Atomic      Atomic             Coordinates (Angstroms)
 Number     Number       Type             X           Y           Z
 ---------------------------------------------------------------------
      1          6           0       -0.572660    0.000000    0.000000
      2          6           0        0.572719    0.000000    0.000000
      3          1           0        1.061401   -0.857988    0.496469
      4          1           0       -1.061340   -0.858976   -0.494783
      5          1           0        1.061398    0.858977    0.494780
      6          1           0        1.061411   -0.000946   -0.991283
      7          1           0       -1.061343    0.857986   -0.496472
      8          1           0       -1.061353    0.000945    0.991281
 ---------------------------------------------------------------------

 Alpha  occ. eigenvalues --  -10.49957 -10.49560  -0.94691  -0.67767  -0.54848
 Alpha  occ. eigenvalues --   -0.54847  -0.51376  -0.35031  -0.35030
 Alpha virt. eigenvalues --    0.02051   0.04187   0.04739   0.04739   0.08626
 Alpha virt. eigenvalues --    0.08978   0.08978   0.14258   0.18866   0.18866
 Alpha virt. eigenvalues --    0.19952   0.19952   0.24002   0.27870   0.39061

  Beta  occ. eigenvalues --  -10.49957 -10.49560  -0.94691  -0.67767  -0.54848
  Beta  occ. eigenvalues --   -0.54847  -0.51376  -0.35031  -0.35030
  Beta virt. eigenvalues --    0.02051   0.04187   0.04739   0.04739   0.08626
  Beta virt. eigenvalues --    0.08978   0.08978   0.14258   0.18866   0.18866
  Beta virt. eigenvalues --    0.19952   0.19952   0.24002   0.27870   0.39061

 Mulliken charges and spin densities:
               1          2
     1  C   -0.426416  -0.000000
     2  C   -0.426416   0.000000
     3  H    0.142139  -0.000000
     4  H    0.142138   0.000000
     5  H    0.142138  -0.000000
     6  H    0.142138  -0.000000
     7  H    0.142139  -0.000000
     8  H    0.142138  -0.000000
 Sum of Mulliken charges =  -0.00000  -0.00000

 Dipole moment (field-independent basis, Debye):
    X=              0.0000    Y=             -0.0000    Z=             -0.0000  Tot=              0.0000
 Quadrupole moment (field-independent basis, Debye-Ang):
   XX=            -15.6512   YY=            -14.9453   ZZ=            -14.9455
   XY=              0.0000   XZ=             -0.0000   YZ=             -0.0001

 Normal termination of Gaussian 16 at Tue Nov 19 11:42:35 2024.
