 Gaussian 16, Revision A.03,
 Gaussian 16:  ES64L-G16RevA.03 25-Dec-2016

 --------------------------------------------
 #p opt UM062X/6-311+G** nosymm int=superfine
 --------------------------------------------

 -------------------
 Title Card Required
 -------------------
 Symbolic Z-matrix:
 Charge =  1 Multiplicity = 2

 SCF Done:  E(UM062X) =  -77.9826607256     A.U. after    9 cycles
 SCF Done:  E(UM062X) =  -78.0211025407     A.U. after    9 cycles
 SCF Done:  E(UM062X) =  -78.0513891833     A.U. after   10 cycles
 SCF Done:  E(UM062X) =  -78.0590129851     A.U. after    9 cycles
 SCF Done:  E(UM062X) =  -78.0595796271     A.U. after    9 cycles
 SCF Done:  E(UM062X) =  -78.0595842816     A.U. after    6 cycles
 Optimization completed.
    -- Stationary point found.

                          Input orientation:
 ---------------------------------------------------------------------
 Center     Atomic      Atomic             Coordinates (Angstroms)
 Number     Number       Type             X           Y           Z
 ---------------------------------------------------------------------
      1          6           0       -1.017924    0.000000    0.000000
      2          6           0        1.017924    0.000000    0.000000
      3          1           0       -1.478169   -0.982402    0.000000
      4          1           0       -1.478152    0.982440    0.000000
      5          1           0        1.478169    0.982402   -0.000000
      6          1           0        1.478152   -0.982440   -0.000000
 ---------------------------------------------------------------------

 Alpha  occ. eigenvalues --  -10.92207 -10.92192  -1.06761  -1.00079  -0.80709
 Alpha  occ. eigenvalues --   -0.77499  -0.67158  -0.56295
 Alpha virt. eigenvalues --   -0.36506  -0.24354  -0.14124  -0.11029  -0.10093
 Alpha virt. eigenvalues --   -0.08391  -0.07469  -0.07180  -0.04755  -0.04140
 Alpha virt. eigenvalues --   -0.02751  -0.00540   0.02121   0.09364   0.17966

  Beta  occ. eigenvalues --  -10.91971 -10.91962  -1.03676  -0.97848  -0.80172
  Beta  occ. eigenvalues --   -0.77146  -0.65611
  Beta virt. eigenvalues --   -0.35439  -0.27790  -0.21969  -0.15451  -0.11360
  Beta virt. eigenvalues --   -0.10138  -0.07859  -0.07594  -0.07379  -0.04202
  Beta virt. eigenvalues --   -0.03912  -0.02285   0.00036   0.01313   0.10095

 Mulliken charges and spin densities:
               1          2
     1  C   -0.067266   0.541237
     2  C   -0.067265   0.541237
     3  H    0.283632  -0.020618
     4  H    0.283634  -0.020619
     5  H    0.283632  -0.020618
     6  H    0.283634  -0.020619
 Sum of Mulliken charges =   1.00000   1.00000

 Dipole moment (field-independent basis, Debye):
    X=              0.0000    Y=              0.0000    Z=              0.0000  Tot=              0.0000
 Quadrupole moment (field-independent basis, Debye-Ang):
   XX=             -1.9779   YY=             -8.1372   ZZ=            -12.5161
   XY=             -0.0001   XZ=             -0.0000   YZ=             -0.0000

 Normal termination of Gaussian 16 at Tue Nov 19 11:21:53 2024.
