 Gaussian 16, Revision A.03,
 Gaussian 16:  ES64L-G16RevA.03 25-Dec-2016

 --------------------------------------------
 #p opt UM062X/6-311+G** nosymm int=superfine
 --------------------------------------------

 -------------------
 Title Card Required
 -------------------
 Symbolic Z-matrix:
 Charge =  0 Multiplicity = 1

 SCF Done:  E(UM062X) =  -95.6185435903     A.U. after   13 cycles
 SCF Done:  E(UM062X) =  -95.6355690342     A.U. after   12 cycles
 SCF Done:  E(UM062X) =  -95.6467346089     A.U. after   12 cycles
 SCF Done:  E(UM062X) =  -95.6469986998     A.U. after   12 cycles
 SCF Done:  E(UM062X) =  -95.6470966069     A.U. after   10 cycles
 SCF Done:  E(UM062X) =  -95.6471238704     A.U. after   12 cycles
 SCF Done:  E(UM062X) =  -95.6471286015     A.U. after    9 cycles
 SCF Done:  E(UM062X) =  -95.6471316443     A.U. after   11 cycles
 SCF Done:  E(UM062X) =  -95.6471327943     A.U. after    9 cycles
 SCF Done:  E(UM062X) =  -95.6471328921     A.U. after   10 cycles
 Optimization completed.
    -- Stationary point found.

                          Input orientation:
 ---------------------------------------------------------------------
 Center     Atomic      Atomic             Coordinates (Angstroms)
 Number     Number       Type             X           Y           Z
 ---------------------------------------------------------------------
      1          6           0       -1.530542    0.000000    0.000000
      2          7           0        1.530542    0.000000    0.000000
      3          1           0        1.509532   -1.015958    0.138927
      4          1           0       -1.570311    1.079556    0.006073
      5          1           0        1.509513    0.367181    0.957417
      6          1           0       -1.570094   -0.522342   -0.944803
      7          1           0       -1.683198   -0.546192    0.920124
 ---------------------------------------------------------------------

 Alpha  occ. eigenvalues --  -14.75097 -10.61540  -0.90252  -0.80190  -0.52345
 Alpha  occ. eigenvalues --   -0.52149  -0.50655  -0.35990  -0.27041
 Alpha virt. eigenvalues --   -0.11424   0.01714   0.04810   0.05277   0.06881
 Alpha virt. eigenvalues --    0.10116   0.13265   0.15951   0.16733   0.17338
 Alpha virt. eigenvalues --    0.19320   0.21149   0.22230   0.29981   0.41280

  Beta  occ. eigenvalues --  -14.75097 -10.61540  -0.90252  -0.80190  -0.52345
  Beta  occ. eigenvalues --   -0.52149  -0.50655  -0.35990  -0.27041
  Beta virt. eigenvalues --   -0.11424   0.01714   0.04810   0.05277   0.06881
  Beta virt. eigenvalues --    0.10116   0.13265   0.15951   0.16733   0.17338
  Beta virt. eigenvalues --    0.19320   0.21149   0.22230   0.29981   0.41280

 Mulliken charges and spin densities:
               1          2
     1  C   -0.429181  -0.000000
     2  N   -0.593435   0.000000
     3  H    0.218577  -0.000000
     4  H    0.200179   0.000000
     5  H    0.218576  -0.000000
     6  H    0.200220   0.000000
     7  H    0.185064   0.000000
 Sum of Mulliken charges =  -0.00000  -0.00000

 Dipole moment (field-independent basis, Debye):
    X=             -2.8129    Y=             -0.9752    Z=              1.6480  Tot=              3.4028
 Quadrupole moment (field-independent basis, Debye-Ang):
   XX=            -15.2648   YY=            -13.3713   ZZ=            -14.1746
   XY=             -1.6229   XZ=              2.7423   YZ=              0.7316

 Normal termination of Gaussian 16 at Mon Apr 21 18:14:43 2025.
