 Gaussian 16, Revision A.03,
 Gaussian 16:  ES64L-G16RevA.03 25-Dec-2016

 --------------------------------------------
 #p opt UM062X/6-311+G** nosymm int=superfine
 --------------------------------------------

 -------------------
 Title Card Required
 -------------------
 Symbolic Z-matrix:
 Charge =  0 Multiplicity = 1

 SCF Done:  E(UM062X) =  -110.170255826     A.U. after   12 cycles
 SCF Done:  E(UM062X) =  -110.171890420     A.U. after   15 cycles
 SCF Done:  E(UM062X) =  -110.175354254     A.U. after   16 cycles
 SCF Done:  E(UM062X) =  -110.176810309     A.U. after   18 cycles
 SCF Done:  E(UM062X) =  -110.176828276     A.U. after   13 cycles
 SCF Done:  E(UM062X) =  -110.176829500     A.U. after   14 cycles
 Optimization completed.
    -- Stationary point found.

                          Input orientation:
 ---------------------------------------------------------------------
 Center     Atomic      Atomic             Coordinates (Angstroms)
 Number     Number       Type             X           Y           Z
 ---------------------------------------------------------------------
      1          7           0       -1.765428    0.000000    0.000000
      2          7           0        1.765428    0.000000    0.000000
      3          1           0       -1.527953   -1.011944   -0.000000
      4          1           0        1.527953    1.011944   -0.000000
 ---------------------------------------------------------------------

 Alpha  occ. eigenvalues --  -14.88457 -14.88454  -0.92829  -0.92298  -0.49114
 Alpha  occ. eigenvalues --   -0.48822  -0.31075  -0.30019
 Alpha virt. eigenvalues --   -0.21652  -0.20417   0.05003   0.06983   0.10779
 Alpha virt. eigenvalues --    0.11385   0.13112   0.14556   0.15342   0.17531
 Alpha virt. eigenvalues --    0.19028   0.22638   0.52777   0.54738   0.74520

  Beta  occ. eigenvalues --  -14.88457 -14.88454  -0.92829  -0.92298  -0.49114
  Beta  occ. eigenvalues --   -0.48822  -0.31075  -0.30019
  Beta virt. eigenvalues --   -0.21652  -0.20417   0.05003   0.06983   0.10779
  Beta virt. eigenvalues --    0.11385   0.13112   0.14556   0.15342   0.17531
  Beta virt. eigenvalues --    0.19028   0.22638   0.52777   0.54738   0.74520

 Mulliken charges and spin densities:
               1          2
     1  N   -0.235299   0.000000
     2  N   -0.235299  -0.000000
     3  H    0.235299   0.000000
     4  H    0.235299   0.000000
 Sum of Mulliken charges =  -0.00000  -0.00000

 Dipole moment (field-independent basis, Debye):
    X=             -0.0000    Y=             -0.0000    Z=             -0.0000  Tot=              0.0000
 Quadrupole moment (field-independent basis, Debye-Ang):
   XX=            -15.0935   YY=            -11.3038   ZZ=            -14.1997
   XY=              5.7907   XZ=              0.0000   YZ=              0.0000

 Normal termination of Gaussian 16 at Thu May 15 15:42:54 2025.
