 Gaussian 16, Revision A.03,
 Gaussian 16:  ES64L-G16RevA.03 25-Dec-2016

 --------------------------------------------
 #p opt UM062X/6-311+G** nosymm int=superfine
 --------------------------------------------

 -------------------
 Title Card Required
 -------------------
 Symbolic Z-matrix:
 Charge =  0 Multiplicity = 1

 SCF Done:  E(UM062X) =  -382.271483453     A.U. after   13 cycles
 SCF Done:  E(UM062X) =  -382.281027841     A.U. after   11 cycles
 SCF Done:  E(UM062X) =  -382.285819039     A.U. after   11 cycles
 SCF Done:  E(UM062X) =  -382.285870004     A.U. after    9 cycles
 SCF Done:  E(UM062X) =  -382.285897764     A.U. after    9 cycles
 SCF Done:  E(UM062X) =  -382.285911049     A.U. after   10 cycles
 SCF Done:  E(UM062X) =  -382.285912493     A.U. after   11 cycles
 SCF Done:  E(UM062X) =  -382.285913426     A.U. after    8 cycles
 Optimization completed.
    -- Stationary point found.

                          Input orientation:
 ---------------------------------------------------------------------
 Center     Atomic      Atomic             Coordinates (Angstroms)
 Number     Number       Type             X           Y           Z
 ---------------------------------------------------------------------
      1          6           0       -1.706264    0.000000    0.000000
      2         15           0        1.706264    0.000000    0.000000
      3          1           0        1.649368   -1.417835    0.031468
      4          1           0       -1.798401    1.050143    0.236847
      5          1           0        1.649452    0.082977    1.415738
      6          1           0       -1.798317   -0.316234   -1.029032
      7          1           0       -1.819886   -0.730398    0.788384
 ---------------------------------------------------------------------

 Alpha  occ. eigenvalues --  -78.03311 -10.58970  -6.85668  -4.97196  -4.97122
 Alpha  occ. eigenvalues --   -4.96937  -0.78280  -0.69430  -0.50303  -0.50246
 Alpha  occ. eigenvalues --   -0.43614  -0.34720  -0.25305
 Alpha virt. eigenvalues --   -0.10491   0.02066   0.03995   0.04043   0.04597
 Alpha virt. eigenvalues --    0.06359   0.06953   0.07126   0.07320   0.11846
 Alpha virt. eigenvalues --    0.17464   0.18570   0.18703   0.23771   0.30105

  Beta  occ. eigenvalues --  -78.03311 -10.58970  -6.85668  -4.97196  -4.97122
  Beta  occ. eigenvalues --   -4.96937  -0.78280  -0.69430  -0.50303  -0.50246
  Beta  occ. eigenvalues --   -0.43614  -0.34720  -0.25305
  Beta virt. eigenvalues --   -0.10491   0.02066   0.03995   0.04043   0.04597
  Beta virt. eigenvalues --    0.06359   0.06953   0.07126   0.07320   0.11846
  Beta virt. eigenvalues --    0.17464   0.18570   0.18703   0.23771   0.30105

 Mulliken charges and spin densities:
               1          2
     1  C   -0.529781   0.000000
     2  P   -0.039662  -0.000000
     3  H    0.004212   0.000000
     4  H    0.187695  -0.000000
     5  H    0.004220   0.000000
     6  H    0.187711  -0.000000
     7  H    0.185604  -0.000000
 Sum of Mulliken charges =  -0.00000  -0.00000

 Dipole moment (field-independent basis, Debye):
    X=             -1.2073    Y=             -0.5537    Z=              0.6003  Tot=              1.4576
 Quadrupole moment (field-independent basis, Debye-Ang):
   XX=            -22.3111   YY=            -22.3153   ZZ=            -22.4290
   XY=             -1.1650   XZ=              1.2632   YZ=              0.7030

 Normal termination of Gaussian 16 at Mon Apr 21 19:07:01 2025.
