 Gaussian 16, Revision A.03,
 Gaussian 16:  ES64L-G16RevA.03 25-Dec-2016

 --------------------------------------------
 #p opt UM062X/6-311+G** nosymm int=superfine
 --------------------------------------------

 -------------------
 Title Card Required
 -------------------
 Symbolic Z-matrix:
 Charge =  0 Multiplicity = 1

 SCF Done:  E(UM062X) =  -683.752706727     A.U. after    9 cycles
 SCF Done:  E(UM062X) =  -683.753766752     A.U. after   10 cycles
 SCF Done:  E(UM062X) =  -683.753776243     A.U. after    8 cycles
 Optimization completed.
    -- Stationary point found.

                          Input orientation:
 ---------------------------------------------------------------------
 Center     Atomic      Atomic             Coordinates (Angstroms)
 Number     Number       Type             X           Y           Z
 ---------------------------------------------------------------------
      1         15           0       -1.359490    0.000000    0.000000
      2         15           0        1.359490    0.000000    0.000000
      3          1           0       -1.341543   -1.421257    0.000000
      4          1           0        1.341543    1.421257    0.000000
 ---------------------------------------------------------------------

 Alpha  occ. eigenvalues --  -78.07426 -78.07426  -6.89414  -6.89411  -5.00875
 Alpha  occ. eigenvalues --   -5.00875  -5.00813  -5.00810  -5.00652  -5.00651
 Alpha  occ. eigenvalues --   -0.71009  -0.65512  -0.41022  -0.39753  -0.31104
 Alpha  occ. eigenvalues --   -0.27342
 Alpha virt. eigenvalues --   -0.13020  -0.05804   0.01875   0.03445   0.03934
 Alpha virt. eigenvalues --    0.04587   0.04912   0.06201   0.06816   0.08522
 Alpha virt. eigenvalues --    0.09573   0.12735   0.28426   0.29754   0.30074

  Beta  occ. eigenvalues --  -78.07426 -78.07426  -6.89414  -6.89411  -5.00875
  Beta  occ. eigenvalues --   -5.00875  -5.00813  -5.00810  -5.00652  -5.00651
  Beta  occ. eigenvalues --   -0.71009  -0.65512  -0.41022  -0.39753  -0.31104
  Beta  occ. eigenvalues --   -0.27342
  Beta virt. eigenvalues --   -0.13020  -0.05804   0.01875   0.03445   0.03934
  Beta virt. eigenvalues --    0.04587   0.04912   0.06201   0.06816   0.08522
  Beta virt. eigenvalues --    0.09573   0.12735   0.28426   0.29754   0.30074

 Mulliken charges and spin densities:
               1          2
     1  P    0.008550   0.000000
     2  P    0.008550  -0.000000
     3  H   -0.008550   0.000000
     4  H   -0.008550  -0.000000
 Sum of Mulliken charges =  -0.00000   0.00000

 Dipole moment (field-independent basis, Debye):
    X=             -0.0000    Y=              0.0000    Z=              0.0000  Tot=              0.0000
 Quadrupole moment (field-independent basis, Debye-Ang):
   XX=            -28.1895   YY=            -27.9641   ZZ=            -30.1453
   XY=              2.6379   XZ=             -0.0000   YZ=             -0.0000

 Normal termination of Gaussian 16 at Mon Apr 21 21:12:20 2025.
