 Gaussian 16, Revision A.03,
 Gaussian 16:  ES64L-G16RevA.03 25-Dec-2016

 --------------------------------------------
 #p opt UM062X/6-311+G** nosymm int=superfine
 --------------------------------------------

 -------------------
 Title Card Required
 -------------------
 Symbolic Z-matrix:
 Charge =  0 Multiplicity = 1

 SCF Done:  E(UM062X) =  -94.3527982929     A.U. after   12 cycles
 SCF Done:  E(UM062X) =  -94.3625544778     A.U. after   12 cycles
 SCF Done:  E(UM062X) =  -94.3635433642     A.U. after   13 cycles
 SCF Done:  E(UM062X) =  -94.3635913093     A.U. after   13 cycles
 SCF Done:  E(UM062X) =  -94.3618062426     A.U. after   16 cycles
 SCF Done:  E(UM062X) =  -94.3636402249     A.U. after   14 cycles
 SCF Done:  E(UM062X) =  -94.3636167779     A.U. after   14 cycles
 SCF Done:  E(UM062X) =  -94.3636171962     A.U. after   15 cycles
 SCF Done:  E(UM062X) =  -94.3636904461     A.U. after    9 cycles
 SCF Done:  E(UM062X) =  -94.3637013246     A.U. after   14 cycles
 Optimization completed.
    -- Stationary point found.

                          Input orientation:
 ---------------------------------------------------------------------
 Center     Atomic      Atomic             Coordinates (Angstroms)
 Number     Number       Type             X           Y           Z
 ---------------------------------------------------------------------
      1          6           0       -1.056637    0.000000    0.000000
      2          7           0        1.056637    0.000000    0.000000
      3          1           0       -1.581745   -0.947293    0.004615
      4          1           0        1.063249   -1.033161    0.004894
      5          1           0       -1.479642    0.994858   -0.004702
 ---------------------------------------------------------------------

 Alpha  occ. eigenvalues --  -14.81853 -10.66637  -0.88273  -0.77616  -0.55437
 Alpha  occ. eigenvalues --   -0.43812  -0.36447  -0.29553
 Alpha virt. eigenvalues --   -0.11382  -0.03138   0.02147   0.04707   0.06537
 Alpha virt. eigenvalues --    0.07886   0.12499   0.15004   0.15822   0.17279
 Alpha virt. eigenvalues --    0.20446   0.22296   0.26896   0.41270   0.43279

  Beta  occ. eigenvalues --  -14.81853 -10.66637  -0.88273  -0.77616  -0.55437
  Beta  occ. eigenvalues --   -0.43812  -0.36447  -0.29553
  Beta virt. eigenvalues --   -0.11382  -0.03138   0.02147   0.04707   0.06537
  Beta virt. eigenvalues --    0.07886   0.12499   0.15004   0.15822   0.17279
  Beta virt. eigenvalues --    0.20446   0.22296   0.26896   0.41270   0.43279

 Mulliken charges and spin densities:
               1          2
     1  C   -0.315585  -0.000000
     2  N   -0.278428   0.000000
     3  H    0.195343   0.000000
     4  H    0.195736  -0.000000
     5  H    0.202933   0.000000
 Sum of Mulliken charges =  -0.00000  -0.00000

 Dipole moment (field-independent basis, Debye):
    X=             -2.8135    Y=             -1.4632    Z=              0.0071  Tot=              3.1712
 Quadrupole moment (field-independent basis, Debye-Ang):
   XX=            -11.8362   YY=            -11.5101   ZZ=            -15.7789
   XY=             -1.9697   XZ=              0.0093   YZ=             -0.0204

 Normal termination of Gaussian 16 at Mon Apr 21 18:19:50 2025.
