 Gaussian 16, Revision A.03,
 Gaussian 16:  ES64L-G16RevA.03 25-Dec-2016

 --------------------------------------------
 #p opt UM062X/6-311+G** nosymm int=superfine
 --------------------------------------------

 -------------------
 Title Card Required
 -------------------
 Symbolic Z-matrix:
 Charge =  1 Multiplicity = 2

 SCF Done:  E(UM062X) =  -580.881793997     A.U. after   14 cycles
 SCF Done:  E(UM062X) =  -580.889111115     A.U. after   12 cycles
 SCF Done:  E(UM062X) =  -580.891106267     A.U. after   11 cycles
 SCF Done:  E(UM062X) =  -580.891109087     A.U. after   10 cycles
 SCF Done:  E(UM062X) =  -580.891114255     A.U. after   10 cycles
 SCF Done:  E(UM062X) =  -580.878139737     A.U. after   12 cycles
 SCF Done:  E(UM062X) =  -580.891469651     A.U. after   12 cycles
 SCF Done:  E(UM062X) =  -580.890237045     A.U. after   14 cycles
 SCF Done:  E(UM062X) =  -580.853393315     A.U. after   15 cycles
 SCF Done:  E(UM062X) =  -580.849635037     A.U. after   16 cycles
 SCF Done:  E(UM062X) =  -580.891109392     A.U. after   14 cycles
 SCF Done:  E(UM062X) =  -580.890954884     A.U. after   14 cycles
 SCF Done:  E(UM062X) =  -580.891469890     A.U. after    8 cycles
 SCF Done:  E(UM062X) =  -580.893673302     A.U. after   17 cycles
 SCF Done:  E(UM062X) =  -580.898452060     A.U. after   17 cycles
 SCF Done:  E(UM062X) =  -580.898716243     A.U. after   17 cycles
 SCF Done:  E(UM062X) =  -580.900613680     A.U. after   16 cycles
 SCF Done:  E(UM062X) =  -580.900636404     A.U. after   15 cycles
 SCF Done:  E(UM062X) =  -580.900639335     A.U. after   11 cycles
 SCF Done:  E(UM062X) =  -580.900639700     A.U. after   13 cycles
 Optimization completed.
    -- Stationary point found.

                          Input orientation:
 ---------------------------------------------------------------------
 Center     Atomic      Atomic             Coordinates (Angstroms)
 Number     Number       Type             X           Y           Z
 ---------------------------------------------------------------------
      1         14           0       -1.791295    0.000000    0.000000
      2         14           0        1.791295    0.000000    0.000000
      3          1           0       -2.694613   -1.179750    0.029643
      4          1           0        2.027331    1.255843   -0.742658
      5          1           0       -2.693555    1.180471    0.032953
      6          1           0        2.024205   -1.257319   -0.741114
 ---------------------------------------------------------------------

 Alpha  occ. eigenvalues --  -67.27787 -67.23262  -5.82112  -5.77800  -4.13516
 Alpha  occ. eigenvalues --   -4.13267  -4.12722  -4.09194  -4.08517  -4.08492
 Alpha  occ. eigenvalues --   -0.81604  -0.76966  -0.64055  -0.58983  -0.52241
 Alpha  occ. eigenvalues --   -0.47276
 Alpha virt. eigenvalues --   -0.28198  -0.26207  -0.12874  -0.12418  -0.10256
 Alpha virt. eigenvalues --   -0.09072  -0.09018  -0.08105  -0.07381  -0.06274
 Alpha virt. eigenvalues --   -0.05938  -0.05694  -0.05123  -0.02418   0.12459

  Beta  occ. eigenvalues --  -67.27186 -67.23236  -5.81679  -5.77779  -4.13069
  Beta  occ. eigenvalues --   -4.12523  -4.12105  -4.09185  -4.08509  -4.08440
  Beta  occ. eigenvalues --   -0.78279  -0.76715  -0.62465  -0.58901  -0.47903
  Beta virt. eigenvalues --   -0.30831  -0.26696  -0.25912  -0.13186  -0.12670
  Beta virt. eigenvalues --   -0.10526  -0.09081  -0.08117  -0.07208  -0.07107
  Beta virt. eigenvalues --   -0.06103  -0.05897  -0.05232  -0.04604  -0.02744

 Mulliken charges and spin densities:
               1          2
     1  Si   0.438531   0.027543
     2  Si   0.606601   0.838890
     3  H   -0.028426   0.004118
     4  H    0.005903   0.062705
     5  H   -0.028481   0.004093
     6  H    0.005871   0.062651
 Sum of Mulliken charges =   1.00000   1.00000

 Dipole moment (field-independent basis, Debye):
    X=              1.4125    Y=             -0.0003    Z=             -0.1343  Tot=              1.4189
 Quadrupole moment (field-independent basis, Debye-Ang):
   XX=             -4.0174   YY=            -25.2149   ZZ=            -23.1593
   XY=              0.0007   XZ=              0.0279   YZ=             -0.0045

 Normal termination of Gaussian 16 at Mon Apr 21 20:30:35 2025.
