 Gaussian 16, Revision A.03,
 Gaussian 16:  ES64L-G16RevA.03 25-Dec-2016

 --------------------------------
 #p UM062X/6-311+G** Pop=NBO Read
 --------------------------------

 ------------
 NBO Analysis
 ------------
 Symbolic Z-matrix:
 Charge = -1 Multiplicity = 2

                         Standard orientation:
 ---------------------------------------------------------------------
 Center     Atomic      Atomic             Coordinates (Angstroms)
 Number     Number       Type             X           Y           Z
 ---------------------------------------------------------------------
      1          5           0       -1.090672   -0.000020   -0.000014
      2          5           0        1.090671    0.000009    0.000019
      3          1           0        1.298152   -0.376828   -1.127139
      4          1           0       -1.297874    0.787729   -0.889990
      5          1           0        1.298061   -0.787695    0.889994
      6          1           0        1.297771    1.164641    0.237249
      7          1           0       -1.298161    0.376824    1.127139
      8          1           0       -1.297948   -1.164617   -0.237274
 ---------------------------------------------------------------------

 SCF Done:  E(UM062X) =  -53.2246466397     A.U. after   11 cycles

 The electronic state is 2-A.
 Alpha  occ. eigenvalues --   -6.81096  -6.81085  -0.40559  -0.33550  -0.20293
 Alpha  occ. eigenvalues --   -0.20292  -0.16083  -0.16083  -0.04155
 Alpha virt. eigenvalues --    0.17693   0.19414   0.19414   0.19733   0.21251
 Alpha virt. eigenvalues --    0.21251   0.22314   0.26283   0.33998   0.39379
 Alpha virt. eigenvalues --    0.39381   0.43139   0.43141   0.47295   0.51406

  Beta  occ. eigenvalues --   -6.80990  -6.80990  -0.37859  -0.31767  -0.19608
  Beta  occ. eigenvalues --   -0.19607  -0.15683  -0.15683
  Beta virt. eigenvalues --    0.12787   0.14647   0.19233   0.19233   0.19809
  Beta virt. eigenvalues --    0.19809   0.19949   0.22702   0.26204   0.38874
  Beta virt. eigenvalues --    0.39798   0.39799   0.44289   0.44291   0.48508

 Mulliken charges and spin densities:
               1          2
     1  B   -0.227279   0.557115
     2  B   -0.227279   0.557115
     3  H   -0.090906  -0.019036
     4  H   -0.090910  -0.019050
     5  H   -0.090918  -0.019052
     6  H   -0.090898  -0.019027
     7  H   -0.090906  -0.019036
     8  H   -0.090905  -0.019029
 Sum of Mulliken charges =  -1.00000   1.00000

 Dipole moment (field-independent basis, Debye):
    X=             -0.0000    Y=              0.0000    Z=             -0.0000  Tot=              0.0000
 Quadrupole moment (field-independent basis, Debye-Ang):
   XX=            -31.2844   YY=            -24.0618   ZZ=            -24.0619
   XY=              0.0001   XZ=             -0.0002   YZ=              0.0001

 Summary of Natural Population Analysis:

                                       Natural Population
                Natural  -----------------------------------------------
    Atom  No    Charge         Core      Valence    Rydberg      Total
 -----------------------------------------------------------------------
      B    1    0.13641      0.99970     1.36069    0.00320     2.36359
      B    2    0.13641      0.99970     1.36069    0.00320     2.36359
      H    3   -0.04547      0.00000     0.54512    0.00035     0.54547
      H    4   -0.04547      0.00000     0.54512    0.00035     0.54547
      H    5   -0.04548      0.00000     0.54513    0.00035     0.54548
      H    6   -0.04546      0.00000     0.54511    0.00035     0.54546
      H    7   -0.04547      0.00000     0.54512    0.00035     0.54547
      H    8   -0.04547      0.00000     0.54512    0.00035     0.54547
 =======================================================================
   * Total *    0.00000      1.99939     5.99211    0.00849     8.00000

 Normal termination of Gaussian 16 at Tue Apr 15 16:49:12 2025.
