 Gaussian 16, Revision A.03,
 Gaussian 16:  ES64L-G16RevA.03 25-Dec-2016

 --------------------------------------------
 #p opt UM062X/6-311+G** nosymm int=superfine
 --------------------------------------------

 -------------------
 Title Card Required
 -------------------
 Symbolic Z-matrix:
 Charge =  0 Multiplicity = 1

 SCF Done:  E(UM062X) =  -474.468805410     A.U. after   16 cycles
 SCF Done:  E(UM062X) =  -474.472492503     A.U. after   14 cycles
 SCF Done:  E(UM062X) =  -474.473659302     A.U. after   16 cycles
 SCF Done:  E(UM062X) =  -474.473734052     A.U. after   14 cycles
 SCF Done:  E(UM062X) =  -474.473736366     A.U. after   12 cycles
 SCF Done:  E(UM062X) =  -474.473736521     A.U. after   10 cycles
 Optimization completed.
    -- Stationary point found.

                          Input orientation:
 ---------------------------------------------------------------------
 Center     Atomic      Atomic             Coordinates (Angstroms)
 Number     Number       Type             X           Y           Z
 ---------------------------------------------------------------------
      1          8           0       -1.214392    0.000000    0.000000
      2         16           0        1.214392    0.000000    0.000000
      3          1           0       -1.269347   -0.952018   -0.169749
      4          1           0        1.132363    0.340292    1.298269
 ---------------------------------------------------------------------

 Alpha  occ. eigenvalues --  -89.97251 -19.67370  -8.33279  -6.25497  -6.25129
 Alpha  occ. eigenvalues --   -6.24583  -1.09111  -0.83037  -0.53012  -0.49175
 Alpha  occ. eigenvalues --   -0.40320  -0.39683  -0.34722
 Alpha virt. eigenvalues --   -0.14763   0.01557   0.04107   0.04803   0.05718
 Alpha virt. eigenvalues --    0.07551   0.15195   0.19515   0.20002   0.21601
 Alpha virt. eigenvalues --    0.27002   0.31454   0.34000   0.35259   0.40408

  Beta  occ. eigenvalues --  -89.97251 -19.67370  -8.33279  -6.25497  -6.25129
  Beta  occ. eigenvalues --   -6.24583  -1.09111  -0.83037  -0.53012  -0.49175
  Beta  occ. eigenvalues --   -0.40320  -0.39683  -0.34722
  Beta virt. eigenvalues --   -0.14763   0.01557   0.04107   0.04803   0.05718
  Beta virt. eigenvalues --    0.07551   0.15195   0.19515   0.20002   0.21601
  Beta virt. eigenvalues --    0.27002   0.31454   0.34000   0.35259   0.40408

 Mulliken charges and spin densities:
               1          2
     1  O   -0.434860  -0.000000
     2  S    0.075156   0.000000
     3  H    0.250798   0.000000
     4  H    0.108907  -0.000000
 Sum of Mulliken charges =  -0.00000  -0.00000

 Dipole moment (field-independent basis, Debye):
    X=              1.7510    Y=             -1.3489    Z=              0.8044  Tot=              2.3522
 Quadrupole moment (field-independent basis, Debye-Ang):
   XX=            -18.3948   YY=            -19.8197   ZZ=            -18.5979
   XY=              2.8553   XZ=              1.9412   YZ=              1.4533

 Normal termination of Gaussian 16 at Thu May 15 12:57:17 2025.
