 Gaussian 16, Revision A.03,
 Gaussian 16:  ES64L-G16RevA.03 25-Dec-2016

 ---------------------------------------
 #p UM062X/6-311+G** force int=superfine
 ---------------------------------------

 -------------------
 Title Card Required
 -------------------
 Symbolic Z-matrix:
 Charge =  0 Multiplicity = 1

                         Standard orientation:
 ---------------------------------------------------------------------
 Center     Atomic      Atomic             Coordinates (Angstroms)
 Number     Number       Type             X           Y           Z
 ---------------------------------------------------------------------
      1          6           0       -0.000000    1.020823    0.000000
      2          6           0       -0.000000   -1.020823    0.000000
      3          1           0       -0.974753    1.482276    0.000000
      4          1           0        0.974794    1.482272    0.000000
      5          1           0        0.974753   -1.482276    0.000000
      6          1           0       -0.974794   -1.482272    0.000000
 ---------------------------------------------------------------------

 SCF Done:  E(UM062X) =  -78.3659274569     A.U. after    8 cycles

 The electronic state is 1-AG.
 Alpha  occ. eigenvalues --  -10.61213 -10.61200  -0.77349  -0.71605  -0.52996
 Alpha  occ. eigenvalues --   -0.50001  -0.37517  -0.25960
 Alpha virt. eigenvalues --   -0.06825   0.01442   0.03363   0.05388   0.07307
 Alpha virt. eigenvalues --    0.08869   0.09131   0.09894   0.11376   0.15287
 Alpha virt. eigenvalues --    0.16426   0.20525   0.21283   0.28065   0.39621

  Beta  occ. eigenvalues --  -10.61213 -10.61200  -0.77349  -0.71605  -0.52996
  Beta  occ. eigenvalues --   -0.50001  -0.37517  -0.25960
  Beta virt. eigenvalues --   -0.06825   0.01442   0.03363   0.05388   0.07307
  Beta virt. eigenvalues --    0.08869   0.09131   0.09894   0.11376   0.15287
  Beta virt. eigenvalues --    0.16426   0.20525   0.21283   0.28065   0.39621

 Mulliken charges and spin densities:
               1          2
     1  C   -0.362181  -0.000000
     2  C   -0.362181  -0.000000
     3  H    0.181090   0.000000
     4  H    0.181091  -0.000000
     5  H    0.181090   0.000000
     6  H    0.181091  -0.000000
 Sum of Mulliken charges =   0.00000   0.00000

 Dipole moment (field-independent basis, Debye):
    X=              0.0000    Y=              0.0000    Z=              0.0000  Tot=              0.0000
 Quadrupole moment (field-independent basis, Debye-Ang):
   XX=            -12.0764   YY=            -11.1855   ZZ=            -18.2288
   XY=              0.0000   XZ=              0.0000   YZ=              0.0000

 Normal termination of Gaussian 16 at Tue Nov 19 11:49:57 2024.
