 Gaussian 16, Revision A.03,
 Gaussian 16:  ES64L-G16RevA.03 25-Dec-2016

 --------------------------------------------
 #p opt UM062X/6-311+G** nosymm int=superfine
 --------------------------------------------

 -------------------
 Title Card Required
 -------------------
 Symbolic Z-matrix:
 Charge =  0 Multiplicity = 1

 SCF Done:  E(UM062X) =  -438.516703405     A.U. after   12 cycles
 SCF Done:  E(UM062X) =  -438.529424328     A.U. after   11 cycles
 SCF Done:  E(UM062X) =  -438.534616323     A.U. after   11 cycles
 SCF Done:  E(UM062X) =  -438.534666874     A.U. after   10 cycles
 SCF Done:  E(UM062X) =  -438.534684960     A.U. after    9 cycles
 SCF Done:  E(UM062X) =  -438.534695948     A.U. after   11 cycles
 SCF Done:  E(UM062X) =  -438.534697855     A.U. after    9 cycles
 SCF Done:  E(UM062X) =  -438.534698509     A.U. after   10 cycles
 SCF Done:  E(UM062X) =  -438.534698835     A.U. after    8 cycles
 Optimization completed.
    -- Stationary point found.

                          Input orientation:
 ---------------------------------------------------------------------
 Center     Atomic      Atomic             Coordinates (Angstroms)
 Number     Number       Type             X           Y           Z
 ---------------------------------------------------------------------
      1          6           0       -1.660220    0.000000    0.000000
      2         16           0        1.660220    0.000000    0.000000
      3          1           0        1.619535   -1.343837   -0.001252
      4          1           0       -1.696768    1.080213    0.002601
      5          1           0       -1.731320   -0.533976   -0.937159
      6          1           0       -1.731453   -0.538481    0.934568
 ---------------------------------------------------------------------

 Alpha  occ. eigenvalues --  -89.88334 -10.64234  -8.24589  -6.16644  -6.16563
 Alpha  occ. eigenvalues --   -6.16021  -0.82494  -0.75976  -0.54433  -0.54339
 Alpha  occ. eigenvalues --   -0.42517  -0.28761  -0.28448
 Alpha virt. eigenvalues --   -0.13761   0.01391   0.04000   0.04604   0.05590
 Alpha virt. eigenvalues --    0.07559   0.08237   0.08479   0.10963   0.13570
 Alpha virt. eigenvalues --    0.16235   0.16704   0.21826   0.33448   0.36552

  Beta  occ. eigenvalues --  -89.88334 -10.64234  -8.24589  -6.16644  -6.16563
  Beta  occ. eigenvalues --   -6.16021  -0.82494  -0.75976  -0.54433  -0.54339
  Beta  occ. eigenvalues --   -0.42517  -0.28761  -0.28448
  Beta virt. eigenvalues --   -0.13761   0.01391   0.04000   0.04604   0.05590
  Beta virt. eigenvalues --    0.07559   0.08237   0.08479   0.10963   0.13570
  Beta virt. eigenvalues --    0.16235   0.16704   0.21826   0.33448   0.36552

 Mulliken charges and spin densities:
               1          2
     1  C   -0.419118  -0.000002
     2  S   -0.263013   0.000002
     3  H    0.053873  -0.000000
     4  H    0.210922   0.000000
     5  H    0.208681   0.000000
     6  H    0.208655   0.000000
 Sum of Mulliken charges =  -0.00000  -0.00000

 Dipole moment (field-independent basis, Debye):
    X=             -4.1099    Y=             -0.9471    Z=             -0.0009  Tot=              4.2176
 Quadrupole moment (field-independent basis, Debye-Ang):
   XX=            -20.6791   YY=            -19.5317   ZZ=            -23.5817
   XY=             -1.7042   XZ=             -0.0016   YZ=              0.0038

 Normal termination of Gaussian 16 at Mon Apr 21 19:36:26 2025.
