 Gaussian 16, Revision A.03,
 Gaussian 16:  ES64L-G16RevA.03 25-Dec-2016

 --------------------------------------------
 #p opt UM062X/6-311+G** nosymm int=superfine
 --------------------------------------------

 -------------------
 Title Card Required
 -------------------
 Symbolic Z-matrix:
 Charge =  0 Multiplicity = 1

 SCF Done:  E(UM062X) =  -94.3169367073     A.U. after   14 cycles
 SCF Done:  E(UM062X) =  -94.3259844335     A.U. after   13 cycles
 SCF Done:  E(UM062X) =  -94.3272099298     A.U. after   16 cycles
 SCF Done:  E(UM062X) =  -94.3272366800     A.U. after   16 cycles
 SCF Done:  E(UM062X) =  -94.3268686078     A.U. after   17 cycles
 SCF Done:  E(UM062X) =  -94.3272738406     A.U. after   16 cycles
 SCF Done:  E(UM062X) =  -94.3272735317     A.U. after   13 cycles
 SCF Done:  E(UM062X) =  -94.3272745132     A.U. after   13 cycles
 SCF Done:  E(UM062X) =  -94.3272747055     A.U. after   12 cycles
 Optimization completed.
    -- Stationary point found.

                          Input orientation:
 ---------------------------------------------------------------------
 Center     Atomic      Atomic             Coordinates (Angstroms)
 Number     Number       Type             X           Y           Z
 ---------------------------------------------------------------------
      1          6           0       -1.131637    0.000000    0.000000
      2          7           0        1.131637    0.000000    0.000000
      3          1           0       -1.708893   -0.921082    0.002434
      4          1           0        1.093406   -1.034102    0.002611
      5          1           0       -1.583175    0.986414   -0.002026
 ---------------------------------------------------------------------

 Alpha  occ. eigenvalues --  -14.81394 -10.67252  -0.87346  -0.78493  -0.55187
 Alpha  occ. eigenvalues --   -0.43091  -0.35674  -0.28806
 Alpha virt. eigenvalues --   -0.12252  -0.05637   0.01950   0.04706   0.06338
 Alpha virt. eigenvalues --    0.07803   0.12572   0.15072   0.15915   0.17351
 Alpha virt. eigenvalues --    0.20411   0.21340   0.26994   0.41465   0.42504

  Beta  occ. eigenvalues --  -14.81394 -10.67252  -0.87346  -0.78493  -0.55187
  Beta  occ. eigenvalues --   -0.43091  -0.35674  -0.28806
  Beta virt. eigenvalues --   -0.12252  -0.05637   0.01950   0.04706   0.06338
  Beta virt. eigenvalues --    0.07803   0.12572   0.15072   0.15915   0.17351
  Beta virt. eigenvalues --    0.20411   0.21340   0.26994   0.41465   0.42504

 Mulliken charges and spin densities:
               1          2
     1  C   -0.305935   0.000000
     2  N   -0.277003  -0.000000
     3  H    0.191842  -0.000000
     4  H    0.192167   0.000000
     5  H    0.198930  -0.000000
 Sum of Mulliken charges =  -0.00000   0.00000

 Dipole moment (field-independent basis, Debye):
    X=             -3.1829    Y=             -1.4333    Z=              0.0043  Tot=              3.4907
 Quadrupole moment (field-independent basis, Debye-Ang):
   XX=            -11.1316   YY=            -11.7592   ZZ=            -15.7612
   XY=             -2.0253   XZ=              0.0051   YZ=             -0.0098

 Normal termination of Gaussian 16 at Mon Apr 21 18:23:47 2025.
