 Gaussian 16, Revision A.03,
 Gaussian 16:  ES64L-G16RevA.03 25-Dec-2016

 --------------------------------------------
 #p opt UM062X/6-311+G** nosymm int=superfine
 --------------------------------------------

 -------------------
 Title Card Required
 -------------------
 Symbolic Z-matrix:
 Charge =  1 Multiplicity = 2

 SCF Done:  E(UM062X) =  -76.7469070560     A.U. after   15 cycles
 SCF Done:  E(UM062X) =  -76.7958871029     A.U. after   10 cycles
 SCF Done:  E(UM062X) =  -76.8004604656     A.U. after    8 cycles
 SCF Done:  E(UM062X) =  -76.8004773252     A.U. after    7 cycles
 Optimization completed.
    -- Stationary point found.

                          Input orientation:
 ---------------------------------------------------------------------
 Center     Atomic      Atomic             Coordinates (Angstroms)
 Number     Number       Type             X           Y           Z
 ---------------------------------------------------------------------
      1          6           0       -0.521928    0.000000    0.000000
      2          6           0        0.521928    0.000000    0.000000
      3          1           0       -1.596980    0.000000    0.000000
      4          1           0        1.596979   -0.000000   -0.000000
 ---------------------------------------------------------------------

 Alpha  occ. eigenvalues --  -10.91090 -10.90122  -1.30202  -0.95656  -0.90988
 Alpha  occ. eigenvalues --   -0.79732  -0.76467
 Alpha virt. eigenvalues --   -0.21462  -0.19609  -0.14668  -0.14069  -0.11900
 Alpha virt. eigenvalues --   -0.11148  -0.10839  -0.03923  -0.03301  -0.03087
 Alpha virt. eigenvalues --    0.02401   0.04401   0.17317   0.19785   0.26627

  Beta  occ. eigenvalues --  -10.90776 -10.89856  -1.24633  -0.94124  -0.90244
  Beta  occ. eigenvalues --   -0.73845
  Beta virt. eigenvalues --   -0.50376  -0.18329  -0.16697  -0.15610  -0.13597
  Beta virt. eigenvalues --   -0.11872  -0.11348  -0.10955  -0.02898  -0.02553
  Beta virt. eigenvalues --   -0.01968   0.02515   0.04781   0.17973   0.20190

 Mulliken charges and spin densities:
               1          2
     1  C    0.225311   0.520134
     2  C    0.225312   0.520134
     3  H    0.274689  -0.020134
     4  H    0.274688  -0.020134
 Sum of Mulliken charges =   1.00000   1.00000

 Dipole moment (field-independent basis, Debye):
    X=             -0.0000    Y=              0.0000    Z=             -0.0000  Tot=              0.0000
 Quadrupole moment (field-independent basis, Debye-Ang):
   XX=             -1.7849   YY=             -9.6280   ZZ=            -10.0289
   XY=             -0.0000   XZ=              0.0000   YZ=              0.7811

 Normal termination of Gaussian 16 at Tue Nov 19 12:55:14 2024.
