 Gaussian 16, Revision A.03,
 Gaussian 16:  ES64L-G16RevA.03 25-Dec-2016

 --------------------------------------------
 #p opt UM062X/6-311+G** nosymm int=superfine
 --------------------------------------------

 -------------------
 Title Card Required
 -------------------
 Symbolic Z-matrix:
 Charge =  1 Multiplicity = 2

 SCF Done:  E(UM062X) =  -76.5764882978     A.U. after   37 cycles
 SCF Done:  E(UM062X) =  -76.5770972218     A.U. after   64 cycles
 SCF Done:  E(UM062X) =  -76.5770988620     A.U. after   13 cycles
 Optimization completed.
    -- Stationary point found.

                          Input orientation:
 ---------------------------------------------------------------------
 Center     Atomic      Atomic             Coordinates (Angstroms)
 Number     Number       Type             X           Y           Z
 ---------------------------------------------------------------------
      1          6           0       -1.257160    0.000000    0.000000
      2          6           0        1.257160    0.000000    0.000000
      3          1           0       -2.381573   -0.000000   -0.000001
      4          1           0        2.381573   -0.000000   -0.000001
 ---------------------------------------------------------------------

 Alpha  occ. eigenvalues --  -10.95486 -10.95484  -0.99960  -0.98461  -0.70253
 Alpha  occ. eigenvalues --   -0.59130  -0.52331
 Alpha virt. eigenvalues --   -0.39127  -0.36189  -0.33255  -0.13338  -0.11712
 Alpha virt. eigenvalues --   -0.08392  -0.07855  -0.06908  -0.05324  -0.04945
 Alpha virt. eigenvalues --   -0.00913   0.01934   0.05881   0.25517   0.31815

  Beta  occ. eigenvalues --  -10.95111 -10.95110  -0.97470  -0.96355  -0.68982
  Beta  occ. eigenvalues --   -0.57600
  Beta virt. eigenvalues --   -0.34616  -0.33027  -0.31405  -0.29744  -0.14019
  Beta virt. eigenvalues --   -0.11685  -0.07926  -0.07611  -0.07148  -0.04655
  Beta virt. eigenvalues --   -0.03770  -0.01677   0.03539   0.06962   0.24804

 Mulliken charges and spin densities:
               1          2
     1  C    0.249285   0.515490
     2  C    0.249285   0.515490
     3  H    0.250715  -0.015490
     4  H    0.250715  -0.015490
 Sum of Mulliken charges =   1.00000   1.00000

 Dipole moment (field-independent basis, Debye):
    X=             -0.0000    Y=             -0.0000    Z=             -0.0000  Tot=              0.0000
 Quadrupole moment (field-independent basis, Debye-Ang):
   XX=              6.7335   YY=             -9.8827   ZZ=            -11.1693
   XY=             -0.0000   XZ=             -0.0000   YZ=             -0.8239

 Normal termination of Gaussian 16 at Tue Dec  3 11:25:27 2024.
