 Gaussian 16, Revision A.03,
 Gaussian 16:  ES64L-G16RevA.03 25-Dec-2016

 --------------------------------------------
 #p opt UM062X/6-311+G** nosymm int=superfine
 --------------------------------------------

 -------------------
 Title Card Required
 -------------------
 Symbolic Z-matrix:
 Charge =  0 Multiplicity = 2

 SCF Done:  E(UM062X) =  -55.8644577272     A.U. after   15 cycles
 SCF Done:  E(UM062X) =  -55.8649579305     A.U. after   11 cycles
 SCF Done:  E(UM062X) =  -55.8649783607     A.U. after    8 cycles
 Optimization completed.
    -- Stationary point found.

                          Input orientation:
 ---------------------------------------------------------------------
 Center     Atomic      Atomic             Coordinates (Angstroms)
 Number     Number       Type             X           Y           Z
 ---------------------------------------------------------------------
      1          7           0        0.716460    0.009514   -0.016121
      2          1           0        1.099257   -0.942215    0.013100
      3          1           0        1.099259    0.444059    0.831113
 ---------------------------------------------------------------------

 Alpha  occ. eigenvalues --  -14.77548  -0.96419  -0.55049  -0.40809  -0.38917
 Alpha virt. eigenvalues --    0.04885   0.10575   0.13111   0.13421   0.17693
 Alpha virt. eigenvalues --    0.20132   0.51940   0.59559   0.76557   0.77015
 Alpha virt. eigenvalues --    0.78942   0.95778   1.22263   1.23663   1.39934

  Beta  occ. eigenvalues --  -14.76458  -0.90110  -0.53204  -0.37400
  Beta virt. eigenvalues --   -0.06891   0.03675   0.10421   0.13489   0.14382
  Beta virt. eigenvalues --    0.18194   0.20656   0.52132   0.60265   0.77771
  Beta virt. eigenvalues --    0.78341   0.82915   0.97762   1.23559   1.26244

 Mulliken charges and spin densities:
               1          2
     1  N   -0.431751   1.082591
     2  H    0.215876  -0.041295
     3  H    0.215876  -0.041296
 Sum of Mulliken charges =  -0.00000   1.00000

 Dipole moment (field-independent basis, Debye):
    X=              1.2711    Y=             -0.8587    Z=              1.4552  Tot=              2.1144
 Quadrupole moment (field-independent basis, Debye-Ang):
   XX=             -5.4270   YY=             -6.0469   ZZ=             -6.8704
   XY=             -0.6043   XZ=              1.0241   YZ=              0.7455

 1\1\GINC-NODE02\FOpt\UM062X\6-311+G(d,p)\H2N1(2)\SZHAO\16-Apr-2025\0\\
 #p opt UM062X/6-311+G** nosymm int=superfine\\Title Card Required\\0,2
 \N,0.7164600666,0.0095136426,-0.0161208329\H,1.0992573229,-0.942215282
 ,0.0131000386\H,1.0992592706,0.4440592094,0.8311129343\\Version=ES64L-
 G16RevA.03\HF=-55.8649784\S2=0.753798\S2-1=0.\S2A=0.750011\RMSD=6.588e
 -09\RMSF=5.631e-05\Dipole=0.5000985,-0.3378321,0.5725147\Quadrupole=0.
 5113513,0.050456,-0.5618073,-0.4492692,0.7613665,0.5542831\PG=CS [SG(H
 2N1)]\\@

 Normal termination of Gaussian 16 at Wed Apr 16 08:19:13 2025.
