 Gaussian 16, Revision A.03,
 Gaussian 16:  ES64L-G16RevA.03 25-Dec-2016

 --------------------------------------------
 #p opt UM062X/6-311+G** nosymm int=superfine
 --------------------------------------------

 -------------------
 Title Card Required
 -------------------
 Symbolic Z-matrix:
 Charge =  0 Multiplicity = 1

 SCF Done:  E(UM062X) =  -95.5879355665     A.U. after   14 cycles
 SCF Done:  E(UM062X) =  -95.6036186975     A.U. after   11 cycles
 SCF Done:  E(UM062X) =  -95.6148898232     A.U. after   14 cycles
 SCF Done:  E(UM062X) =  -95.6153713984     A.U. after   12 cycles
 SCF Done:  E(UM062X) =  -95.6157873029     A.U. after   12 cycles
 SCF Done:  E(UM062X) =  -95.6159416643     A.U. after   12 cycles
 SCF Done:  E(UM062X) =  -95.6159736942     A.U. after   10 cycles
 SCF Done:  E(UM062X) =  -95.6159794583     A.U. after   11 cycles
 SCF Done:  E(UM062X) =  -95.6159808369     A.U. after    9 cycles
 SCF Done:  E(UM062X) =  -95.6159825394     A.U. after   11 cycles
 SCF Done:  E(UM062X) =  -95.6159840807     A.U. after    9 cycles
 SCF Done:  E(UM062X) =  -95.6159847336     A.U. after   11 cycles
 Optimization completed.
    -- Stationary point found.

                          Input orientation:
 ---------------------------------------------------------------------
 Center     Atomic      Atomic             Coordinates (Angstroms)
 Number     Number       Type             X           Y           Z
 ---------------------------------------------------------------------
      1          6           0       -1.805542    0.000000    0.000000
      2          7           0        1.805542    0.000000    0.000000
      3          1           0        1.754273   -1.015168    0.139006
      4          1           0       -1.798533    1.080361    0.010129
      5          1           0        1.754659    0.368355    0.956164
      6          1           0       -1.798621   -0.525323   -0.944096
      7          1           0       -1.931841   -0.548316    0.922689
 ---------------------------------------------------------------------

 Alpha  occ. eigenvalues --  -14.74868 -10.62062  -0.90178  -0.80892  -0.53079
 Alpha  occ. eigenvalues --   -0.52893  -0.50672  -0.35935  -0.25172
 Alpha virt. eigenvalues --   -0.13950   0.01748   0.04646   0.05009   0.07076
 Alpha virt. eigenvalues --    0.09932   0.13084   0.15888   0.16748   0.16913
 Alpha virt. eigenvalues --    0.18365   0.20599   0.22187   0.27340   0.41117

  Beta  occ. eigenvalues --  -14.74868 -10.62062  -0.90178  -0.80892  -0.53079
  Beta  occ. eigenvalues --   -0.52893  -0.50672  -0.35935  -0.25172
  Beta virt. eigenvalues --   -0.13950   0.01748   0.04646   0.05009   0.07076
  Beta virt. eigenvalues --    0.09932   0.13084   0.15888   0.16748   0.16913
  Beta virt. eigenvalues --    0.18365   0.20599   0.22187   0.27340   0.41117

 Mulliken charges and spin densities:
               1          2
     1  C   -0.431375   0.000000
     2  N   -0.580314  -0.000000
     3  H    0.210791   0.000000
     4  H    0.200593   0.000000
     5  H    0.210792   0.000000
     6  H    0.200626   0.000000
     7  H    0.188887   0.000000
 Sum of Mulliken charges =  -0.00000   0.00000

 Dipole moment (field-independent basis, Debye):
    X=             -3.2949    Y=             -0.9971    Z=              1.6883  Tot=              3.8342
 Quadrupole moment (field-independent basis, Debye-Ang):
   XX=            -15.6415   YY=            -13.4416   ZZ=            -14.2427
   XY=             -1.8532   XZ=              3.1397   YZ=              0.7269

 Normal termination of Gaussian 16 at Mon Apr 21 18:12:35 2025.
