 Gaussian 16, Revision A.03,
 Gaussian 16:  ES64L-G16RevA.03 25-Dec-2016

 --------------------------------------------
 #p opt UM062X/6-311+G** nosymm int=superfine
 --------------------------------------------

 -------------------
 Title Card Required
 -------------------
 Symbolic Z-matrix:
 Charge =  0 Multiplicity = 1

 SCF Done:  E(UM062X) =  -797.386265882     A.U. after   13 cycles
 SCF Done:  E(UM062X) =  -797.386403126     A.U. after   13 cycles
 SCF Done:  E(UM062X) =  -797.386583562     A.U. after   14 cycles
 SCF Done:  E(UM062X) =  -797.386846256     A.U. after   15 cycles
 SCF Done:  E(UM062X) =  -797.387045147     A.U. after   15 cycles
 SCF Done:  E(UM062X) =  -797.383742236     A.U. after   19 cycles
 SCF Done:  E(UM062X) =  -797.385909794     A.U. after   23 cycles
 SCF Done:  E(UM062X) =  -797.387050193     A.U. after   14 cycles
 SCF Done:  E(UM062X) =  -797.387063404     A.U. after   23 cycles
 SCF Done:  E(UM062X) =  -797.387156310     A.U. after   18 cycles
 SCF Done:  E(UM062X) =  -797.387189314     A.U. after   23 cycles
 SCF Done:  E(UM062X) =  -797.387199005     A.U. after   20 cycles
 SCF Done:  E(UM062X) =  -797.387199394     A.U. after   14 cycles
 SCF Done:  E(UM062X) =  -797.387181720     A.U. after   18 cycles
 SCF Done:  E(UM062X) =  -797.387201647     A.U. after   23 cycles
 SCF Done:  E(UM062X) =  -797.387201498     A.U. after   13 cycles
 SCF Done:  E(UM062X) =  -797.387201636     A.U. after   13 cycles
 SCF Done:  E(UM062X) =  -797.387201920     A.U. after   12 cycles
 SCF Done:  E(UM062X) =  -797.387202021     A.U. after   17 cycles
 SCF Done:  E(UM062X) =  -797.387202079     A.U. after   13 cycles
 Optimization completed.
    -- Stationary point found.

                          Input orientation:
 ---------------------------------------------------------------------
 Center     Atomic      Atomic             Coordinates (Angstroms)
 Number     Number       Type             X           Y           Z
 ---------------------------------------------------------------------
      1         16           0       -2.243191    0.000000    0.000000
      2         16           0        2.243191    0.000000    0.000000
      3          1           0       -2.092128   -1.277514   -0.396953
      4          1           0        2.084954    0.451032    1.258585
 ---------------------------------------------------------------------

 Alpha  occ. eigenvalues --  -89.94407 -89.94404  -8.30659  -8.30657  -6.22803
 Alpha  occ. eigenvalues --   -6.22800  -6.22556  -6.22554  -6.21988  -6.21986
 Alpha  occ. eigenvalues --   -0.81410  -0.81154  -0.47374  -0.47335  -0.33431
 Alpha  occ. eigenvalues --   -0.33297  -0.30344
 Alpha virt. eigenvalues --   -0.22233   0.01864   0.02985   0.04375   0.04878
 Alpha virt. eigenvalues --    0.06549   0.06630   0.07278   0.07434   0.08646
 Alpha virt. eigenvalues --    0.12959   0.30818   0.31337   0.32650   0.35084

  Beta  occ. eigenvalues --  -89.94407 -89.94404  -8.30659  -8.30657  -6.22803
  Beta  occ. eigenvalues --   -6.22800  -6.22556  -6.22554  -6.21988  -6.21986
  Beta  occ. eigenvalues --   -0.81410  -0.81154  -0.47374  -0.47335  -0.33431
  Beta  occ. eigenvalues --   -0.33297  -0.30344
  Beta virt. eigenvalues --   -0.22233   0.01864   0.02985   0.04375   0.04878
  Beta virt. eigenvalues --    0.06549   0.06630   0.07278   0.07434   0.08646
  Beta virt. eigenvalues --    0.12959   0.30818   0.31337   0.32650   0.35084

 Mulliken charges and spin densities:
               1          2
     1  S   -0.081878   0.000000
     2  S   -0.081518  -0.000000
     3  H    0.081681  -0.000000
     4  H    0.081715   0.000000
 Sum of Mulliken charges =   0.00000   0.00000

 Dipole moment (field-independent basis, Debye):
    X=             -0.0034    Y=             -0.6857    Z=              0.7158  Tot=              0.9913
 Quadrupole moment (field-independent basis, Debye-Ang):
   XX=            -25.7969   YY=            -28.0003   ZZ=            -28.2087
   XY=              3.1046   XZ=              2.9672   YZ=              2.4220

 Normal termination of Gaussian 16 at Mon Apr 21 21:22:38 2025.
