 Gaussian 16, Revision A.03,
 Gaussian 16:  ES64L-G16RevA.03 25-Dec-2016

 --------------------------------------------
 #p opt UM062X/6-311+G** nosymm int=superfine
 --------------------------------------------

 -------------------
 Title Card Required
 -------------------
 Symbolic Z-matrix:
 Charge =  0 Multiplicity = 1

 SCF Done:  E(UM062X) =  -92.9886528844     A.U. after   11 cycles
 SCF Done:  E(UM062X) =  -92.9895945672     A.U. after   10 cycles
 SCF Done:  E(UM062X) =  -92.9895955769     A.U. after    9 cycles
 Optimization completed.
    -- Stationary point found.

                          Input orientation:
 ---------------------------------------------------------------------
 Center     Atomic      Atomic             Coordinates (Angstroms)
 Number     Number       Type             X           Y           Z
 ---------------------------------------------------------------------
      1          6           0       -1.022395    0.000000    0.000000
      2          7           0        1.022395    0.000000    0.000000
      3          1           0       -2.128823   -0.000000    0.000000
 ---------------------------------------------------------------------

 Alpha  occ. eigenvalues --  -14.89479 -10.73613  -0.84075  -0.76179  -0.44736
 Alpha  occ. eigenvalues --   -0.32054  -0.32054
 Alpha virt. eigenvalues --   -0.13038  -0.13038  -0.07581   0.01582   0.06481
 Alpha virt. eigenvalues --    0.07340   0.07340   0.13374   0.16872   0.16872
 Alpha virt. eigenvalues --    0.20215   0.26821   0.46705   0.54442   0.54442

  Beta  occ. eigenvalues --  -14.89479 -10.73613  -0.84075  -0.76179  -0.44736
  Beta  occ. eigenvalues --   -0.32054  -0.32054
  Beta virt. eigenvalues --   -0.13038  -0.13038  -0.07581   0.01582   0.06481
  Beta virt. eigenvalues --    0.07340   0.07340   0.13374   0.16872   0.16872
  Beta virt. eigenvalues --    0.20215   0.26821   0.46705   0.54442   0.54442

 Mulliken charges and spin densities:
               1          2
     1  C   -0.177133   0.000000
     2  N   -0.053857  -0.000000
     3  H    0.230990  -0.000000
 Sum of Mulliken charges =  -0.00000  -0.00000

 Dipole moment (field-independent basis, Debye):
    X=             -3.3318    Y=             -0.0000    Z=              0.0000  Tot=              3.3318
 Quadrupole moment (field-independent basis, Debye-Ang):
   XX=             -6.8165   YY=            -14.0885   ZZ=            -14.0885
   XY=              0.0000   XZ=             -0.0000   YZ=              0.0000

 Normal termination of Gaussian 16 at Mon Apr 21 18:38:01 2025.
