 Gaussian 16, Revision A.03,
 Gaussian 16:  ES64L-G16RevA.03 25-Dec-2016

 --------------------------------------------
 #p opt UM062X/6-311+G** nosymm int=superfine
 --------------------------------------------

 -------------------
 Title Card Required
 -------------------
 Symbolic Z-matrix:
 Charge =  0 Multiplicity = 1

 SCF Done:  E(UM062X) =  -93.4089756145     A.U. after    9 cycles
 SCF Done:  E(UM062X) =  -93.4089780018     A.U. after    7 cycles
 Optimization completed.
    -- Stationary point found.

                          Input orientation:
 ---------------------------------------------------------------------
 Center     Atomic      Atomic             Coordinates (Angstroms)
 Number     Number       Type             X           Y           Z
 ---------------------------------------------------------------------
      1          6           0       -0.597395    0.000000    0.000000
      2          7           0        0.597395    0.000000    0.000000
      3          1           0       -1.667006   -0.000000    0.000000
 ---------------------------------------------------------------------

 Alpha  occ. eigenvalues --  -14.79383 -10.61031  -1.02075  -0.69383  -0.47073
 Alpha  occ. eigenvalues --   -0.42538  -0.42538
 Alpha virt. eigenvalues --    0.01740   0.02102   0.02102   0.03769   0.07930
 Alpha virt. eigenvalues --    0.07930   0.13200   0.18998   0.19290   0.19290
 Alpha virt. eigenvalues --    0.25844   0.40580   0.56050   0.56050   0.60576

  Beta  occ. eigenvalues --  -14.79383 -10.61031  -1.02075  -0.69383  -0.47073
  Beta  occ. eigenvalues --   -0.42538  -0.42538
  Beta virt. eigenvalues --    0.01740   0.02102   0.02102   0.03769   0.07930
  Beta virt. eigenvalues --    0.07930   0.13200   0.18998   0.19290   0.19290
  Beta virt. eigenvalues --    0.25844   0.40580   0.56050   0.56050   0.60576

 Mulliken charges and spin densities:
               1          2
     1  C    0.002319   0.000000
     2  N   -0.215943  -0.000000
     3  H    0.213624   0.000000
 Sum of Mulliken charges =  -0.00000  -0.00000

 Dipole moment (field-independent basis, Debye):
    X=             -3.0813    Y=              0.0000    Z=             -0.0000  Tot=              3.0813
 Quadrupole moment (field-independent basis, Debye-Ang):
   XX=             -9.2715   YY=            -12.0187   ZZ=            -12.0187
   XY=             -0.0000   XZ=              0.0000   YZ=              0.0000

 Normal termination of Gaussian 16 at Mon Apr 21 18:38:07 2025.
