 Gaussian 16, Revision A.03,
 Gaussian 16:  ES64L-G16RevA.03 25-Dec-2016

 ---------------------------------------
 #p UM062X/6-311+G** force int=superfine
 ---------------------------------------

 -------------------
 Title Card Required
 -------------------
 Symbolic Z-matrix:
 Charge =  0 Multiplicity = 1

                         Standard orientation:
 ---------------------------------------------------------------------
 Center     Atomic      Atomic             Coordinates (Angstroms)
 Number     Number       Type             X           Y           Z
 ---------------------------------------------------------------------
      1          6           0        0.580326    0.000008    0.000002
      2          6           0       -0.580325   -0.000008   -0.000003
      3          1           0       -1.064725   -0.987273   -0.100952
      4          1           0        1.064740   -0.581066    0.804516
      5          1           0       -1.064741    0.581067   -0.804514
      6          1           0       -1.064756    0.406210    0.905462
      7          1           0        1.064725    0.987273    0.100955
      8          1           0        1.064756   -0.406212   -0.905461
 ---------------------------------------------------------------------

 SCF Done:  E(UM062X) =  -79.6639826145     A.U. after    9 cycles

 The electronic state is 1-A.
 Alpha  occ. eigenvalues --  -10.50002 -10.49649  -0.94225  -0.67859  -0.54573
 Alpha  occ. eigenvalues --   -0.54572  -0.51044  -0.35287  -0.35286
 Alpha virt. eigenvalues --    0.02060   0.04190   0.04789   0.04789   0.08635
 Alpha virt. eigenvalues --    0.08970   0.08970   0.14252   0.19002   0.19003
 Alpha virt. eigenvalues --    0.19882   0.19882   0.24014   0.27889   0.38804

  Beta  occ. eigenvalues --  -10.50002 -10.49649  -0.94225  -0.67859  -0.54573
  Beta  occ. eigenvalues --   -0.54572  -0.51044  -0.35287  -0.35286
  Beta virt. eigenvalues --    0.02060   0.04190   0.04789   0.04789   0.08635
  Beta virt. eigenvalues --    0.08970   0.08970   0.14252   0.19002   0.19003
  Beta virt. eigenvalues --    0.19882   0.19882   0.24014   0.27889   0.38804

 Mulliken charges and spin densities:
               1          2
     1  C   -0.428384  -0.000000
     2  C   -0.428384   0.000000
     3  H    0.142796  -0.000000
     4  H    0.142794   0.000000
     5  H    0.142794  -0.000000
     6  H    0.142794  -0.000000
     7  H    0.142796   0.000000
     8  H    0.142794   0.000000
 Sum of Mulliken charges =  -0.00000   0.00000

 Dipole moment (field-independent basis, Debye):
    X=             -0.0000    Y=             -0.0000    Z=              0.0000  Tot=              0.0000
 Quadrupole moment (field-independent basis, Debye-Ang):
   XX=            -15.6479   YY=            -14.9464   ZZ=            -14.9466
   XY=             -0.0000   XZ=             -0.0000   YZ=              0.0000

 Normal termination of Gaussian 16 at Tue Nov 19 12:37:58 2024.
