 Gaussian 16, Revision A.03,
 Gaussian 16:  ES64L-G16RevA.03 25-Dec-2016

 --------------------------------------------
 #p opt UM062X/6-311+G** nosymm int=superfine
 --------------------------------------------

 -------------------
 Title Card Required
 -------------------
 Symbolic Z-matrix:
 Charge =  1 Multiplicity = 2

 SCF Done:  E(UM062X) =  -92.5748757757     A.U. after   17 cycles
 SCF Done:  E(UM062X) =  -92.5751872595     A.U. after   10 cycles
 Optimization completed.
    -- Stationary point found.

                          Input orientation:
 ---------------------------------------------------------------------
 Center     Atomic      Atomic             Coordinates (Angstroms)
 Number     Number       Type             X           Y           Z
 ---------------------------------------------------------------------
      1          6           0       -1.826540    0.000000    0.000000
      2          7           0        1.826540    0.000000    0.000000
      3          1           0       -2.943213   -0.000000    0.000000
 ---------------------------------------------------------------------

 Alpha  occ. eigenvalues --  -15.21788 -10.97914  -1.17194  -0.99022  -0.72234
 Alpha  occ. eigenvalues --   -0.69239  -0.65681
 Alpha virt. eigenvalues --   -0.42505  -0.34397  -0.32866  -0.13779  -0.09821
 Alpha virt. eigenvalues --   -0.07968  -0.07266  -0.04308  -0.02314  -0.01778
 Alpha virt. eigenvalues --   -0.01646   0.07215   0.25492   0.34977   0.35200

  Beta  occ. eigenvalues --  -15.19173 -10.98300  -1.05306  -1.01242  -0.66936
  Beta  occ. eigenvalues --   -0.50918
  Beta virt. eigenvalues --   -0.43010  -0.39008  -0.36298  -0.34302  -0.13576
  Beta virt. eigenvalues --   -0.10299  -0.08474  -0.08026  -0.04786  -0.02457
  Beta virt. eigenvalues --   -0.02325  -0.01797   0.05449   0.26087   0.34544

 Mulliken charges and spin densities:
               1          2
     1  C    0.287942  -0.478698
     2  N    0.462422   1.463110
     3  H    0.249636   0.015588
 Sum of Mulliken charges =   1.00000   1.00000

 Dipole moment (field-independent basis, Debye):
    X=             -2.9057    Y=             -0.0000    Z=              0.0000  Tot=              2.9057
 Quadrupole moment (field-independent basis, Debye-Ang):
   XX=             15.6413   YY=            -10.4091   ZZ=            -10.2803
   XY=             -0.0000   XZ=              0.0000   YZ=              0.9109

 Normal termination of Gaussian 16 at Mon Apr 21 18:37:36 2025.
