 Gaussian 16, Revision A.03,
 Gaussian 16:  ES64L-G16RevA.03 25-Dec-2016

 --------------------------------------------
 #p opt UM062X/6-311+G** nosymm int=superfine
 --------------------------------------------

 -------------------
 Title Card Required
 -------------------
 Symbolic Z-matrix:
 Charge =  1 Multiplicity = 2

 SCF Done:  E(UM062X) =  -76.5206840610     A.U. after    9 cycles
 SCF Done:  E(UM062X) =  -76.6217981909     A.U. after    9 cycles
 SCF Done:  E(UM062X) =  -76.6486255066     A.U. after   19 cycles
 SCF Done:  E(UM062X) =  -76.6507959982     A.U. after    9 cycles
 SCF Done:  E(UM062X) =  -76.6507965506     A.U. after    6 cycles
 Optimization completed.
    -- Stationary point found.

                          Input orientation:
 ---------------------------------------------------------------------
 Center     Atomic      Atomic             Coordinates (Angstroms)
 Number     Number       Type             X           Y           Z
 ---------------------------------------------------------------------
      1          6           0       -0.478434    0.000000    0.000000
      2          6           0        0.478434    0.000000    0.000000
      3          1           0       -1.550651    0.000000    0.000001
      4          1           0        1.550650   -0.000000    0.000001
 ---------------------------------------------------------------------

 Alpha  occ. eigenvalues --  -10.90653 -10.88651  -1.32751  -0.94918  -0.91498
 Alpha  occ. eigenvalues --   -0.83539  -0.79962
 Alpha virt. eigenvalues --   -0.18701  -0.17013  -0.14752  -0.13722  -0.11976
 Alpha virt. eigenvalues --   -0.11534  -0.11204  -0.03245  -0.02484  -0.01968
 Alpha virt. eigenvalues --    0.02476   0.04178   0.17000   0.21270   0.25277

  Beta  occ. eigenvalues --  -10.90275 -10.88358  -1.26653  -0.93405  -0.90614
  Beta  occ. eigenvalues --   -0.77314
  Beta virt. eigenvalues --   -0.52747  -0.15969  -0.15544  -0.14863  -0.13336
  Beta virt. eigenvalues --   -0.11901  -0.11710  -0.11290  -0.01977  -0.01515
  Beta virt. eigenvalues --   -0.00920   0.02738   0.04628   0.17543   0.21651

 Mulliken charges and spin densities:
               1          2
     1  C    0.241195   0.521341
     2  C    0.241195   0.521341
     3  H    0.258806  -0.021341
     4  H    0.258805  -0.021341
 Sum of Mulliken charges =   1.00000   1.00000

 Dipole moment (field-independent basis, Debye):
    X=             -0.0000    Y=              0.0000    Z=              0.0000  Tot=              0.0000
 Quadrupole moment (field-independent basis, Debye-Ang):
   XX=             -2.2589   YY=             -9.7116   ZZ=             -9.2918
   XY=             -0.0000   XZ=             -0.0000   YZ=             -0.7278

 Normal termination of Gaussian 16 at Tue Nov 19 12:49:26 2024.
