 Gaussian 16, Revision A.03,
 Gaussian 16:  ES64L-G16RevA.03 25-Dec-2016

 ---------------------------------------
 #p UM062X/6-311+G** force int=superfine
 ---------------------------------------

 -------------------
 Title Card Required
 -------------------
 Symbolic Z-matrix:
 Charge =  1 Multiplicity = 2

                         Standard orientation:
 ---------------------------------------------------------------------
 Center     Atomic      Atomic             Coordinates (Angstroms)
 Number     Number       Type             X           Y           Z
 ---------------------------------------------------------------------
      1          6           0        0.000000    0.000000   -0.621342
      2          6           0        0.000000    0.000000    0.621344
      3          1           0        0.000000    0.000000   -1.702411
      4          1           0        0.000000    0.000000    1.702402
 ---------------------------------------------------------------------

 SCF Done:  E(UM062X) =  -76.9011480751     A.U. after    9 cycles

 Unable to determine electronic state:  an orbital has unidentified symmetry.
 Alpha  occ. eigenvalues --  -10.94179 -10.93959  -1.22891  -0.97115  -0.89596
 Alpha  occ. eigenvalues --   -0.72967  -0.70251
 Alpha virt. eigenvalues --   -0.27347  -0.25341  -0.15478  -0.14509  -0.11559
 Alpha virt. eigenvalues --   -0.10342  -0.10085  -0.06228  -0.04761  -0.04318
 Alpha virt. eigenvalues --    0.02282   0.04555   0.15834   0.18674   0.29212

  Beta  occ. eigenvalues --  -10.93929 -10.93734  -1.18075  -0.95529  -0.89042
  Beta  occ. eigenvalues --   -0.67748
  Beta virt. eigenvalues --   -0.46315  -0.23746  -0.21006  -0.15630  -0.14606
  Beta virt. eigenvalues --   -0.11671  -0.10602  -0.10293  -0.05713  -0.04158
  Beta virt. eigenvalues --   -0.03525   0.02063   0.04803   0.16376   0.19511

 Mulliken charges and spin densities:
               1          2
     1  C    0.191213   0.519356
     2  C    0.191213   0.519356
     3  H    0.308789  -0.019356
     4  H    0.308784  -0.019356
 Sum of Mulliken charges =   1.00000   1.00000

 Dipole moment (field-independent basis, Debye):
    X=              0.0000    Y=              0.0000    Z=             -0.0000  Tot=              0.0000
 Quadrupole moment (field-independent basis, Debye-Ang):
   XX=            -11.4160   YY=             -9.6126   ZZ=             -0.5169
   XY=              0.0000   XZ=              0.0000   YZ=              0.0000

 Optimization completed.
    -- Stationary point found.
 Normal termination of Gaussian 16 at Tue Nov 19 13:30:42 2024.
