 Gaussian 16, Revision A.03,
 Gaussian 16:  ES64L-G16RevA.03 25-Dec-2016

 ---------------------------------------------------
 #p UM062X/6-311+G** force int=superfine pop=saveNBO
 ---------------------------------------------------

 -------------------
 Title Card Required
 -------------------
 Symbolic Z-matrix:
 Charge = -1 Multiplicity = 2

                         Standard orientation:
 ---------------------------------------------------------------------
 Center     Atomic      Atomic             Coordinates (Angstroms)
 Number     Number       Type             X           Y           Z
 ---------------------------------------------------------------------
      1          5           0       -0.000000   -0.000000    0.741404
      2          5           0        0.000000    0.000000   -0.741404
      3          1           0        0.000000   -0.000000    1.925183
      4          1           0       -0.000000    0.000000   -1.925183
 ---------------------------------------------------------------------

 SCF Done:  E(UM062X) =  -50.7868507573     A.U. after   11 cycles

 Unable to determine electronic state:  an orbital has unidentified symmetry.
 Alpha  occ. eigenvalues --   -6.80016  -6.79867  -0.36314  -0.28606  -0.20015
 Alpha  occ. eigenvalues --   -0.03357  -0.01617
 Alpha virt. eigenvalues --    0.14394   0.15669   0.18583   0.19165   0.20167
 Alpha virt. eigenvalues --    0.21199   0.21948   0.26387   0.29232   0.30375
 Alpha virt. eigenvalues --    0.34723   0.39962   0.53138   0.55765   0.59077

  Beta  occ. eigenvalues --   -6.79963  -6.79819  -0.33361  -0.27708  -0.19545
  Beta  occ. eigenvalues --    0.00469
  Beta virt. eigenvalues --    0.11775   0.14601   0.15267   0.17709   0.19457
  Beta virt. eigenvalues --    0.19607   0.21081   0.21718   0.24432   0.32021
  Beta virt. eigenvalues --    0.32698   0.35764   0.40418   0.53842   0.56240

 Mulliken charges and spin densities:
               1          2
     1  B   -0.437556   0.525824
     2  B   -0.437556   0.525824
     3  H   -0.062444  -0.025824
     4  H   -0.062444  -0.025824
 Sum of Mulliken charges =  -1.00000   1.00000

 Dipole moment (field-independent basis, Debye):
    X=              0.0000    Y=              0.0000    Z=             -0.0000  Tot=              0.0000
 Quadrupole moment (field-independent basis, Debye-Ang):
   XX=            -20.0178   YY=            -25.9502   ZZ=            -22.1063
   XY=              0.0000   XZ=             -0.0000   YZ=             -0.0000

 Summary of Natural Population Analysis:

                                       Natural Population
                Natural  -----------------------------------------------
    Atom  No    Charge         Core      Valence    Rydberg      Total
 -----------------------------------------------------------------------
      B    1    0.06943      0.99935     1.42266    0.00856     2.43057
      B    2    0.06943      0.99935     1.42266    0.00856     2.43057
      H    3   -0.06943      0.00000     0.56818    0.00125     0.56943
      H    4   -0.06943      0.00000     0.56818    0.00125     0.56943
 =======================================================================
   * Total *   -0.00000      1.99871     3.98167    0.01962     6.00000

 Optimization completed.
    -- Stationary point found.
 Normal termination of Gaussian 16 at Wed Apr 16 00:06:57 2025.
