 Gaussian 16, Revision A.03,
 Gaussian 16:  ES64L-G16RevA.03 25-Dec-2016

 --------------------------------------------
 #p opt UM062X/6-311+G** nosymm int=superfine
 --------------------------------------------

 -------------------
 Title Card Required
 -------------------
 Symbolic Z-matrix:
 Charge =  0 Multiplicity = 3

 SCF Done:  E(UM062X) =  -50.7489488115     A.U. after   10 cycles

 Alpha  occ. eigenvalues --   -7.07573  -7.07490  -0.61243  -0.52770  -0.44295
 Alpha  occ. eigenvalues --   -0.26990  -0.26990
 Alpha virt. eigenvalues --    0.01298   0.01298   0.02491   0.02576   0.05477
 Alpha virt. eigenvalues --    0.05477   0.07097   0.08737   0.08737   0.11245
 Alpha virt. eigenvalues --    0.15057   0.22737   0.31686   0.35140   0.38981

  Beta  occ. eigenvalues --   -7.07333  -7.07225  -0.55349  -0.50952  -0.43340
  Beta virt. eigenvalues --   -0.07578  -0.07578   0.01021   0.03028   0.03355
  Beta virt. eigenvalues --    0.03355   0.05235   0.08723   0.08723   0.09902
  Beta virt. eigenvalues --    0.13621   0.13621   0.17689   0.24016   0.33620

 Mulliken charges and spin densities:
               1          2
     1  B   -0.055187   1.035306
     2  B   -0.055187   1.035306
     3  H    0.055187  -0.035306
     4  H    0.055187  -0.035306
 Sum of Mulliken charges =  -0.00000   2.00000

 Dipole moment (field-independent basis, Debye):
    X=             -0.0000    Y=              0.0000    Z=             -0.0000  Tot=              0.0000
 Quadrupole moment (field-independent basis, Debye-Ang):
   XX=            -12.2503   YY=            -14.4949   ZZ=            -14.4949
   XY=              0.0000   XZ=              0.0000   YZ=             -0.0000

 Optimization completed.
    -- Stationary point found.

                          Input orientation:
 ---------------------------------------------------------------------
 Center     Atomic      Atomic             Coordinates (Angstroms)
 Number     Number       Type             X           Y           Z
 ---------------------------------------------------------------------
      1          5           0       -0.803410    0.000000    0.000000
      2          5           0        0.803410    0.000000    0.000000
      3          1           0       -1.975953   -0.000080    0.000000
      4          1           0        1.975953    0.000080    0.000000
 ---------------------------------------------------------------------

 1\1\GINC-NODE06\FOpt\UM062X\6-311+G(d,p)\B2H2(3)\SZHAO\21-Apr-2025\0\\
 #p opt UM062X/6-311+G** nosymm int=superfine\\Title Card Required\\0,3
 \B,-0.80341047,0.,0.\B,0.80341047,0.,0.\H,-1.97595276,-0.00008027,0.\H
 ,1.97595276,0.00008027,0.\\Version=ES64L-G16RevA.03\HF=-50.7489488\S2=
 2.00596\S2-1=0.\S2A=2.000013\RMSD=2.625e-09\RMSF=8.022e-05\Dipole=0.,0
 .,0.\Quadrupole=1.1125082,-0.5562541,-0.5562541,0.0000218,0.,0.\PG=C*V
  [C*(H1B1B1H1)]\\@

 Normal termination of Gaussian 16 at Mon Apr 21 17:27:08 2025.
