 Gaussian 16, Revision A.03,
 Gaussian 16:  ES64L-G16RevA.03 25-Dec-2016

 --------------------------------------------
 #p opt UM062X/6-311+G** nosymm int=superfine
 --------------------------------------------

 -------------------
 Title Card Required
 -------------------
 Symbolic Z-matrix:
 Charge =  1 Multiplicity = 2

 SCF Done:  E(UM062X) =  -582.126610888     A.U. after   11 cycles
 SCF Done:  E(UM062X) =  -582.127449475     A.U. after    9 cycles
 SCF Done:  E(UM062X) =  -582.127864173     A.U. after   10 cycles
 SCF Done:  E(UM062X) =  -582.127867246     A.U. after    9 cycles
 Optimization completed.
    -- Stationary point found.

                          Input orientation:
 ---------------------------------------------------------------------
 Center     Atomic      Atomic             Coordinates (Angstroms)
 Number     Number       Type             X           Y           Z
 ---------------------------------------------------------------------
      1         14           0       -2.851292    0.000000    0.000000
      2         14           0        2.851292    0.000000    0.000000
      3          1           0        2.935337   -1.461416   -0.000030
      4          1           0       -2.934555   -0.730562    1.265753
      5          1           0        2.935111    0.730755   -1.265604
      6          1           0        2.934323    0.730644    1.265721
      7          1           0       -2.935364    1.461414   -0.000161
      8          1           0       -2.934851   -0.730840   -1.265573
 ---------------------------------------------------------------------

 Alpha  occ. eigenvalues --  -67.21244 -67.21244  -5.76116  -5.76116  -4.07818
 Alpha  occ. eigenvalues --   -4.07818  -4.06995  -4.06995  -4.06995  -4.06995
 Alpha  occ. eigenvalues --   -0.79912  -0.79778  -0.60419  -0.60418  -0.60405
 Alpha  occ. eigenvalues --   -0.60404  -0.37236
 Alpha virt. eigenvalues --   -0.30653  -0.11141  -0.11136  -0.09468  -0.08511
 Alpha virt. eigenvalues --   -0.08510  -0.07463  -0.07462  -0.07358  -0.06620
 Alpha virt. eigenvalues --   -0.06620  -0.05805  -0.05805  -0.04908  -0.00267

  Beta  occ. eigenvalues --  -67.20954 -67.20954  -5.76029  -5.76029  -4.07134
  Beta  occ. eigenvalues --   -4.07134  -4.06894  -4.06894  -4.06894  -4.06894
  Beta  occ. eigenvalues --   -0.78165  -0.78135  -0.60351  -0.60351  -0.60339
  Beta  occ. eigenvalues --   -0.60338
  Beta virt. eigenvalues --   -0.27687  -0.23667  -0.14930  -0.10272  -0.10076
  Beta virt. eigenvalues --   -0.10073  -0.09455  -0.08090  -0.08089  -0.07456
  Beta virt. eigenvalues --   -0.05981  -0.05981  -0.05215  -0.05214  -0.04971

 Mulliken charges and spin densities:
               1          2
     1  Si   0.528098   0.570756
     2  Si   0.528098   0.570756
     3  H   -0.009362  -0.023585
     4  H   -0.009369  -0.023585
     5  H   -0.009363  -0.023587
     6  H   -0.009373  -0.023585
     7  H   -0.009362  -0.023585
     8  H   -0.009367  -0.023587
 Sum of Mulliken charges =   1.00000   1.00000

 Dipole moment (field-independent basis, Debye):
    X=             -0.0000    Y=             -0.0000    Z=              0.0000  Tot=              0.0000
 Quadrupole moment (field-independent basis, Debye-Ang):
   XX=             17.3783   YY=            -26.2390   ZZ=            -26.2388
   XY=              0.0007   XZ=              0.0000   YZ=             -0.0000

 Normal termination of Gaussian 16 at Mon Apr 21 20:17:47 2025.
