 Gaussian 16, Revision A.03,
 Gaussian 16:  ES64L-G16RevA.03 25-Dec-2016

 ---------------------------------------
 #p UM062X/6-311+G** force int=superfine
 ---------------------------------------

 -------------------
 Title Card Required
 -------------------
 Symbolic Z-matrix:
 Charge =  1 Multiplicity = 2

                         Standard orientation:
 ---------------------------------------------------------------------
 Center     Atomic      Atomic             Coordinates (Angstroms)
 Number     Number       Type             X           Y           Z
 ---------------------------------------------------------------------
      1          7           0        0.000000    0.000000    0.830391
      2          7           0        0.000000    0.000000   -0.830391
 ---------------------------------------------------------------------

 SCF Done:  E(UM062X) =  -108.711087287     A.U. after   10 cycles

 Unable to determine electronic state:  partially filled degenerate orbitals.
 Alpha  occ. eigenvalues --  -15.38013 -15.37978  -1.40191  -1.16829  -0.84295
 Alpha  occ. eigenvalues --   -0.81545  -0.78840
 Alpha virt. eigenvalues --   -0.54288  -0.51564  -0.34731  -0.14301  -0.09580
 Alpha virt. eigenvalues --   -0.09352  -0.08678  -0.04427  -0.02987  -0.02721
 Alpha virt. eigenvalues --    0.06603   0.43641   0.45488   0.49464   0.52999

  Beta  occ. eigenvalues --  -15.37602 -15.37576  -1.36048  -1.13557  -0.82435
  Beta  occ. eigenvalues --   -0.77043
  Beta virt. eigenvalues --   -0.55882  -0.49864  -0.44021  -0.32920  -0.16084
  Beta virt. eigenvalues --   -0.10513  -0.09811  -0.09004  -0.05223  -0.03328
  Beta virt. eigenvalues --   -0.03026   0.05312   0.44853   0.45703   0.49236

 Mulliken charges and spin densities:
               1          2
     1  N    0.500000   0.500000
     2  N    0.500000   0.500000
 Sum of Mulliken charges =   1.00000   1.00000

 Dipole moment (field-independent basis, Debye):
    X=              0.0000    Y=              0.0000    Z=              0.0000  Tot=              0.0000
 Quadrupole moment (field-independent basis, Debye-Ang):
   XX=             -8.1871   YY=             -9.5926   ZZ=             -6.0615
   XY=              0.0000   XZ=             -0.0000   YZ=              0.0000

 Optimization completed.
    -- Stationary point found.
 Normal termination of Gaussian 16 at Wed Feb 26 13:43:43 2025.
