 Gaussian 16, Revision A.03,
 Gaussian 16:  ES64L-G16RevA.03 25-Dec-2016

 --------------------------------------------
 #p opt UM062X/6-311+G** nosymm int=superfine
 --------------------------------------------

 -------------------
 Title Card Required
 -------------------
 Symbolic Z-matrix:
 Charge =  0 Multiplicity = 1

 SCF Done:  E(UM062X) =  -81.6885977056     A.U. after   28 cycles
 SCF Done:  E(UM062X) =  -81.7007206970     A.U. after   22 cycles
 SCF Done:  E(UM062X) =  -81.7061861837     A.U. after   16 cycles
 SCF Done:  E(UM062X) =  -81.7077133142     A.U. after   17 cycles
 SCF Done:  E(UM062X) =  -81.7102734362     A.U. after   14 cycles
 SCF Done:  E(UM062X) =  -81.7118514018     A.U. after   17 cycles
 SCF Done:  E(UM062X) =  -81.7120928675     A.U. after   14 cycles
 SCF Done:  E(UM062X) =  -81.7123647374     A.U. after   14 cycles
 SCF Done:  E(UM062X) =  -81.7126711368     A.U. after   14 cycles
 SCF Done:  E(UM062X) =  -81.7127975709     A.U. after   14 cycles
 SCF Done:  E(UM062X) =  -81.7128457851     A.U. after   13 cycles
 SCF Done:  E(UM062X) =  -81.7128541296     A.U. after   13 cycles
 SCF Done:  E(UM062X) =  -81.7128547899     A.U. after   12 cycles
 Optimization completed.
    -- Stationary point found.

                          Input orientation:
 ---------------------------------------------------------------------
 Center     Atomic      Atomic             Coordinates (Angstroms)
 Number     Number       Type             X           Y           Z
 ---------------------------------------------------------------------
      1          5           0       -2.145399    0.000000    0.000000
      2          7           0        2.145399    0.000000    0.000000
      3          1           0       -2.457617   -1.129003   -0.028289
      4          1           0        2.119049    0.802276    0.638252
      5          1           0       -2.457617    1.128990   -0.028803
      6          1           0        2.119050   -0.802035    0.638554
 ---------------------------------------------------------------------

 Alpha  occ. eigenvalues --  -14.71381  -7.18701  -0.87209  -0.63589  -0.52402
 Alpha  occ. eigenvalues --   -0.47866  -0.33129  -0.22065
 Alpha virt. eigenvalues --   -0.12729  -0.09493   0.00420   0.02449   0.04128
 Alpha virt. eigenvalues --    0.04995   0.08764   0.11016   0.13538   0.17368
 Alpha virt. eigenvalues --    0.19559   0.19875   0.21817   0.25895   0.31830

  Beta  occ. eigenvalues --  -14.71381  -7.18701  -0.87209  -0.63589  -0.52402
  Beta  occ. eigenvalues --   -0.47866  -0.33129  -0.22065
  Beta virt. eigenvalues --   -0.12729  -0.09493   0.00420   0.02449   0.04128
  Beta virt. eigenvalues --    0.04995   0.08764   0.11016   0.13538   0.17368
  Beta virt. eigenvalues --    0.19559   0.19875   0.21817   0.25895   0.31830

 Mulliken charges and spin densities:
               1          2
     1  B    0.132005  -0.000000
     2  N   -0.675996   0.000000
     3  H    0.072969  -0.000000
     4  H    0.199026  -0.000000
     5  H    0.072969  -0.000000
     6  H    0.199026  -0.000000
 Sum of Mulliken charges =  -0.00000  -0.00000

 Dipole moment (field-independent basis, Debye):
    X=             -6.1495    Y=              0.0004    Z=              1.8994  Tot=              6.4362
 Quadrupole moment (field-independent basis, Debye-Ang):
   XX=            -13.7764   YY=            -13.4681   ZZ=            -14.6505
   XY=              0.0008   XZ=              4.2790   YZ=             -0.0002

 Normal termination of Gaussian 16 at Mon Apr 21 17:56:20 2025.
