 Gaussian 16, Revision A.03,
 Gaussian 16:  ES64L-G16RevA.03 25-Dec-2016

 ---------------------------------------
 #p UM062X/6-311+G** force int=superfine
 ---------------------------------------

 -------------------
 Title Card Required
 -------------------
 Symbolic Z-matrix:
 Charge =  0 Multiplicity = 1

                         Standard orientation:
 ---------------------------------------------------------------------
 Center     Atomic      Atomic             Coordinates (Angstroms)
 Number     Number       Type             X           Y           Z
 ---------------------------------------------------------------------
      1          6           0       -0.095404   -0.300433    1.037462
      2          6           0        0.095404    0.300433   -1.037463
      3          1           0        0.356709   -0.617381   -1.550427
      4          1           0       -0.882609   -1.044624    1.020766
      5          1           0        0.882609    1.044626   -1.020769
      6          1           0       -0.884599    0.689761   -1.286062
      7          1           0       -0.356709    0.617382    1.550427
      8          1           0        0.884598   -0.689763    1.286066
 ---------------------------------------------------------------------

 SCF Done:  E(UM062X) =  -79.7192155134     A.U. after    8 cycles

 The electronic state is 1-A.
 Alpha  occ. eigenvalues --  -10.55024 -10.55016  -0.78305  -0.73191  -0.48299
 Alpha  occ. eigenvalues --   -0.48299  -0.45150  -0.45150  -0.31236
 Alpha virt. eigenvalues --    0.01392   0.02400   0.05605   0.05605   0.08403
 Alpha virt. eigenvalues --    0.08403   0.08965   0.09712   0.13371   0.18171
 Alpha virt. eigenvalues --    0.18171   0.22112   0.22112   0.24345   0.26696

  Beta  occ. eigenvalues --  -10.55024 -10.55016  -0.78305  -0.73191  -0.48299
  Beta  occ. eigenvalues --   -0.48299  -0.45150  -0.45150  -0.31236
  Beta virt. eigenvalues --    0.01392   0.02400   0.05605   0.05605   0.08403
  Beta virt. eigenvalues --    0.08403   0.08965   0.09712   0.13371   0.18171
  Beta virt. eigenvalues --    0.18171   0.22112   0.22112   0.24345   0.26696

 Mulliken charges and spin densities:
               1          2
     1  C   -0.502799  -0.000000
     2  C   -0.502800  -0.000000
     3  H    0.167600   0.000000
     4  H    0.167600   0.000000
     5  H    0.167600   0.000000
     6  H    0.167600   0.000000
     7  H    0.167599   0.000000
     8  H    0.167600   0.000000
 Sum of Mulliken charges =  -0.00000   0.00000

 Dipole moment (field-independent basis, Debye):
    X=             -0.0000    Y=             -0.0000    Z=              0.0000  Tot=              0.0000
 Quadrupole moment (field-independent basis, Debye-Ang):
   XX=            -14.8504   YY=            -14.9004   ZZ=            -15.5096
   XY=             -0.0177   XZ=              0.0612   YZ=              0.1925

 Normal termination of Gaussian 16 at Tue Nov 19 12:53:15 2024.
