 Gaussian 16, Revision A.03,
 Gaussian 16:  ES64L-G16RevA.03 25-Dec-2016

 ---------------------------------------
 #p UM062X/6-311+G** force int=superfine
 ---------------------------------------

 -------------------
 Title Card Required
 -------------------
 Symbolic Z-matrix:
 Charge =  1 Multiplicity = 2

                         Standard orientation:
 ---------------------------------------------------------------------
 Center     Atomic      Atomic             Coordinates (Angstroms)
 Number     Number       Type             X           Y           Z
 ---------------------------------------------------------------------
      1          6           0       -0.827126   -0.000022   -0.025750
      2          6           0        0.827010   -0.000024    0.025813
      3          1           0        1.268932    0.923015   -0.334031
      4          1           0       -1.269724    0.922078    0.335586
      5          1           0        1.270550   -0.921212   -0.336710
      6          1           0        0.636919   -0.001871    1.137054
      7          1           0       -1.270280   -0.922254    0.334598
      8          1           0       -0.635702    0.000520   -1.136874
 ---------------------------------------------------------------------

 SCF Done:  E(UM062X) =  -79.3714768603     A.U. after   12 cycles

 The electronic state is 2-A.
 Alpha  occ. eigenvalues --  -10.85753 -10.85728  -1.16451  -0.99528  -0.82523
 Alpha  occ. eigenvalues --   -0.80172  -0.75098  -0.71893  -0.64330
 Alpha virt. eigenvalues --   -0.17271  -0.14051  -0.11932  -0.11576  -0.10130
 Alpha virt. eigenvalues --   -0.07617  -0.07593  -0.06467  -0.05720  -0.01700
 Alpha virt. eigenvalues --   -0.01248  -0.00508   0.02280   0.03590   0.03707

  Beta  occ. eigenvalues --  -10.85507 -10.85488  -1.13464  -0.96467  -0.79323
  Beta  occ. eigenvalues --   -0.78215  -0.73587  -0.71304
  Beta virt. eigenvalues --   -0.41994  -0.16902  -0.13560  -0.11441  -0.11425
  Beta virt. eigenvalues --   -0.09802  -0.07727  -0.06543  -0.05513  -0.04687
  Beta virt. eigenvalues --   -0.01265  -0.00829   0.00053   0.02867   0.04252

 Mulliken charges and spin densities:
               1          2
     1  C   -0.344929   0.429273
     2  C   -0.345499   0.428465
     3  H    0.275784  -0.020255
     4  H    0.275836  -0.020288
     5  H    0.275806  -0.020240
     6  H    0.293582   0.111647
     7  H    0.275812  -0.020285
     8  H    0.293608   0.111684
 Sum of Mulliken charges =   1.00000   1.00000

 Dipole moment (field-independent basis, Debye):
    X=             -0.0006    Y=             -0.0004    Z=             -0.0006  Tot=              0.0009
 Quadrupole moment (field-independent basis, Debye-Ang):
   XX=             -7.9118   YY=            -10.8381   ZZ=            -10.2113
   XY=             -0.0010   XZ=              0.0882   YZ=             -0.0009

 Normal termination of Gaussian 16 at Tue Nov 19 08:43:38 2024.
