 Gaussian 16, Revision A.03,
 Gaussian 16:  ES64L-G16RevA.03 25-Dec-2016

 ---------------------------------------------------
 #p UM062X/6-311+G** force int=superfine pop=saveNBO
 ---------------------------------------------------

 -------------------
 Title Card Required
 -------------------
 Symbolic Z-matrix:
 Charge =  0 Multiplicity = 1

                         Standard orientation:
 ---------------------------------------------------------------------
 Center     Atomic      Atomic             Coordinates (Angstroms)
 Number     Number       Type             X           Y           Z
 ---------------------------------------------------------------------
      1          8           0        0.000000    0.000000   -1.693424
      2         16           0        0.000000    0.000000    0.846712
 ---------------------------------------------------------------------

 SCF Done:  E(UM062X) =  -473.046073942     A.U. after   28 cycles

 Unable to determine electronic state:  an orbital has unidentified symmetry.
 Alpha  occ. eigenvalues --  -90.03935 -19.74430  -8.39478  -6.31718  -6.31308
 Alpha  occ. eigenvalues --   -6.30597  -1.03685  -0.81483  -0.42035  -0.40337
 Alpha  occ. eigenvalues --   -0.37507  -0.37429
 Alpha virt. eigenvalues --   -0.23930  -0.17746   0.02544   0.04535   0.05149
 Alpha virt. eigenvalues --    0.05679   0.18206   0.20269   0.20527   0.26518
 Alpha virt. eigenvalues --    0.32325   0.33404   0.34343   0.58472   0.73311

  Beta  occ. eigenvalues --  -90.03935 -19.74430  -8.39478  -6.31718  -6.31308
  Beta  occ. eigenvalues --   -6.30597  -1.03685  -0.81483  -0.42035  -0.40337
  Beta  occ. eigenvalues --   -0.37507  -0.37429
  Beta virt. eigenvalues --   -0.23930  -0.17746   0.02544   0.04535   0.05149
  Beta virt. eigenvalues --    0.05679   0.18206   0.20269   0.20527   0.26518
  Beta virt. eigenvalues --    0.32325   0.33404   0.34343   0.58472   0.73311

 Mulliken charges and spin densities:
               1          2
     1  O   -0.229134   0.000000
     2  S    0.229134  -0.000000
 Sum of Mulliken charges =  -0.00000   0.00000

 Dipole moment (field-independent basis, Debye):
    X=              0.0000    Y=              0.0000    Z=              2.8647  Tot=              2.8647
 Quadrupole moment (field-independent basis, Debye-Ang):
   XX=            -20.6886   YY=            -16.8167   ZZ=            -18.9093
   XY=              0.0000   XZ=              0.0000   YZ=              0.0000

 Summary of Natural Population Analysis:

                                       Natural Population
                Natural  -----------------------------------------------
    Atom  No    Charge         Core      Valence    Rydberg      Total
 -----------------------------------------------------------------------
      O    1   -0.15679      1.00000     3.15587    0.00092     4.15679
      S    2    0.15679      4.99999     2.84202    0.00119     7.84321
 =======================================================================
   * Total *   -0.00000      5.99999     5.99790    0.00212    12.00000

 Normal termination of Gaussian 16 at Mon Apr 21 20:00:04 2025.
