 Gaussian 16, Revision A.03,
 Gaussian 16:  ES64L-G16RevA.03 25-Dec-2016

 --------------------------------------------
 #p opt UM062X/6-311+G** nosymm int=superfine
 --------------------------------------------

 -------------------
 Title Card Required
 -------------------
 Symbolic Z-matrix:
 Charge =  0 Multiplicity = 1

 SCF Done:  E(UM062X) =  -115.698636418     A.U. after   10 cycles
 SCF Done:  E(UM062X) =  -115.699299066     A.U. after    9 cycles
 SCF Done:  E(UM062X) =  -115.699307030     A.U. after    8 cycles
 SCF Done:  E(UM062X) =  -115.699307357     A.U. after    7 cycles
 Optimization completed.
    -- Stationary point found.

                          Input orientation:
 ---------------------------------------------------------------------
 Center     Atomic      Atomic             Coordinates (Angstroms)
 Number     Number       Type             X           Y           Z
 ---------------------------------------------------------------------
      1          6           0       -0.757203    0.000000    0.000000
      2          8           0        0.757203    0.000000    0.000000
      3          1           0        1.028019   -0.920807    0.000509
      4          1           0       -1.132192   -0.490859    0.898354
      5          1           0       -1.040490    1.048430   -0.000612
      6          1           0       -1.132193   -0.491907   -0.897780
 ---------------------------------------------------------------------

 Alpha  occ. eigenvalues --  -19.62110 -10.58668  -1.11792  -0.78174  -0.56947
 Alpha  occ. eigenvalues --   -0.51240  -0.48682  -0.41837  -0.35923
 Alpha virt. eigenvalues --    0.01306   0.03102   0.05327   0.05522   0.16006
 Alpha virt. eigenvalues --    0.17940   0.18954   0.19820   0.20458   0.23083
 Alpha virt. eigenvalues --    0.24016   0.24472   0.32689   0.42659   0.44640

  Beta  occ. eigenvalues --  -19.62110 -10.58668  -1.11792  -0.78174  -0.56947
  Beta  occ. eigenvalues --   -0.51240  -0.48682  -0.41837  -0.35923
  Beta virt. eigenvalues --    0.01306   0.03102   0.05327   0.05522   0.16006
  Beta virt. eigenvalues --    0.17940   0.18954   0.19820   0.20458   0.23083
  Beta virt. eigenvalues --    0.24016   0.24472   0.32689   0.42659   0.44640

 Mulliken charges and spin densities:
               1          2
     1  C   -0.310232   0.000000
     2  O   -0.407896  -0.000000
     3  H    0.254931   0.000000
     4  H    0.147938   0.000000
     5  H    0.167322  -0.000000
     6  H    0.147937  -0.000000
 Sum of Mulliken charges =  -0.00000   0.00000

 Dipole moment (field-independent basis, Debye):
    X=             -1.5069    Y=             -1.5417    Z=              0.0008  Tot=              2.1558
 Quadrupole moment (field-independent basis, Debye-Ang):
   XX=            -13.4611   YY=            -11.6188   ZZ=            -13.8414
   XY=             -2.1403   XZ=              0.0012   YZ=             -0.0012

 Normal termination of Gaussian 16 at Mon Apr 21 18:35:40 2025.
