 Gaussian 16, Revision A.03,
 Gaussian 16:  ES64L-G16RevA.03 25-Dec-2016

 --------------------------------------------
 #p opt UM062X/6-311+G** nosymm int=superfine
 --------------------------------------------

 -------------------
 Title Card Required
 -------------------
 Symbolic Z-matrix:
 Charge =  1 Multiplicity = 2

 SCF Done:  E(UM062X) =  -580.870042625     A.U. after   14 cycles
 SCF Done:  E(UM062X) =  -580.877195330     A.U. after    9 cycles
 SCF Done:  E(UM062X) =  -580.879188261     A.U. after   12 cycles
 SCF Done:  E(UM062X) =  -580.879190811     A.U. after   10 cycles
 Optimization completed.
    -- Stationary point found.

                          Input orientation:
 ---------------------------------------------------------------------
 Center     Atomic      Atomic             Coordinates (Angstroms)
 Number     Number       Type             X           Y           Z
 ---------------------------------------------------------------------
      1         14           0       -2.116295    0.000000    0.000000
      2         14           0        2.116295    0.000000    0.000000
      3          1           0       -3.011613   -1.191193    0.000056
      4          1           0        3.011613    1.191192    0.001087
      5          1           0       -3.011628    1.191182   -0.000054
      6          1           0        3.011628   -1.191182   -0.001086
 ---------------------------------------------------------------------

 Alpha  occ. eigenvalues --  -67.24339 -67.24339  -5.78825  -5.78823  -4.10097
 Alpha  occ. eigenvalues --   -4.10097  -4.09772  -4.09772  -4.09431  -4.09431
 Alpha  occ. eigenvalues --   -0.78400  -0.78196  -0.60163  -0.60109  -0.50218
 Alpha  occ. eigenvalues --   -0.47045
 Alpha virt. eigenvalues --   -0.27396  -0.26541  -0.13014  -0.12053  -0.09276
 Alpha virt. eigenvalues --   -0.07970  -0.07966  -0.07383  -0.06760  -0.06066
 Alpha virt. eigenvalues --   -0.06003  -0.05837  -0.05568  -0.03443   0.13239

  Beta  occ. eigenvalues --  -67.23994 -67.23994  -5.78558  -5.78557  -4.09992
  Beta  occ. eigenvalues --   -4.09992  -4.09318  -4.09317  -4.08988  -4.08987
  Beta  occ. eigenvalues --   -0.76578  -0.76220  -0.58986  -0.58917  -0.44089
  Beta virt. eigenvalues --   -0.32367  -0.26213  -0.25173  -0.11972  -0.11551
  Beta virt. eigenvalues --   -0.09358  -0.07482  -0.07128  -0.06578  -0.06412
  Beta virt. eigenvalues --   -0.05839  -0.05553  -0.05359  -0.05331  -0.03032

 Mulliken charges and spin densities:
               1          2
     1  Si   0.557715   0.386627
     2  Si   0.557715   0.386627
     3  H   -0.028858   0.056686
     4  H   -0.028858   0.056686
     5  H   -0.028857   0.056687
     6  H   -0.028857   0.056687
 Sum of Mulliken charges =   1.00000   1.00000

 Dipole moment (field-independent basis, Debye):
    X=              0.0000    Y=              0.0000    Z=              0.0000  Tot=              0.0000
 Quadrupole moment (field-independent basis, Debye-Ang):
   XX=              0.9045   YY=            -25.8274   ZZ=            -20.8473
   XY=             -0.0000   XZ=              0.0000   YZ=             -0.0022

 Normal termination of Gaussian 16 at Mon Apr 21 20:27:17 2025.
