 Gaussian 16, Revision A.03,
 Gaussian 16:  ES64L-G16RevA.03 25-Dec-2016

 --------------------------------------------
 #p opt UM062X/6-311+G** nosymm int=superfine
 --------------------------------------------

 -------------------
 Title Card Required
 -------------------
 Symbolic Z-matrix:
 Charge =  1 Multiplicity = 2

 SCF Done:  E(UM062X) =  -78.0389464296     A.U. after    9 cycles
 SCF Done:  E(UM062X) =  -78.0699124326     A.U. after    9 cycles
 SCF Done:  E(UM062X) =  -78.0889769774     A.U. after    9 cycles
 SCF Done:  E(UM062X) =  -78.0906660061     A.U. after    8 cycles
 SCF Done:  E(UM062X) =  -78.0907116368     A.U. after    8 cycles
 Optimization completed.
    -- Stationary point found.

                          Input orientation:
 ---------------------------------------------------------------------
 Center     Atomic      Atomic             Coordinates (Angstroms)
 Number     Number       Type             X           Y           Z
 ---------------------------------------------------------------------
      1          6           0       -0.954304    0.000000    0.000000
      2          6           0        0.954304    0.000000    0.000000
      3          1           0       -1.431211   -0.974085    0.000000
      4          1           0       -1.431251    0.973989    0.000000
      5          1           0        1.431211    0.974085    0.000000
      6          1           0        1.431251   -0.973988    0.000000
 ---------------------------------------------------------------------

 Alpha  occ. eigenvalues --  -10.91965 -10.91946  -1.08171  -0.99735  -0.81159
 Alpha  occ. eigenvalues --   -0.76946  -0.69496  -0.57759
 Alpha virt. eigenvalues --   -0.35574  -0.20878  -0.14260  -0.11141  -0.09655
 Alpha virt. eigenvalues --   -0.08579  -0.07398  -0.07284  -0.04738  -0.04304
 Alpha virt. eigenvalues --   -0.02279  -0.00952   0.02326   0.09508   0.18166

  Beta  occ. eigenvalues --  -10.91733 -10.91721  -1.04969  -0.97556  -0.80548
  Beta  occ. eigenvalues --   -0.76595  -0.68080
  Beta virt. eigenvalues --   -0.36384  -0.27123  -0.18495  -0.15693  -0.11506
  Beta virt. eigenvalues --   -0.09475  -0.08212  -0.07802  -0.07354  -0.04341
  Beta virt. eigenvalues --   -0.03978  -0.01854  -0.00345   0.01598   0.10154

 Mulliken charges and spin densities:
               1          2
     1  C   -0.065743   0.540736
     2  C   -0.065743   0.540736
     3  H    0.282874  -0.020369
     4  H    0.282869  -0.020367
     5  H    0.282874  -0.020369
     6  H    0.282869  -0.020367
 Sum of Mulliken charges =   1.00000   1.00000

 Dipole moment (field-independent basis, Debye):
    X=             -0.0000    Y=              0.0000    Z=              0.0000  Tot=              0.0000
 Quadrupole moment (field-independent basis, Debye-Ang):
   XX=             -2.8339   YY=             -8.2146   ZZ=            -12.3605
   XY=              0.0001   XZ=             -0.0000   YZ=             -0.0000

 Normal termination of Gaussian 16 at Tue Nov 19 11:16:41 2024.
