 Gaussian 16, Revision A.03,
 Gaussian 16:  ES64L-G16RevA.03 25-Dec-2016

 --------------------------------------------
 #p opt UM062X/6-311+G** nosymm int=superfine
 --------------------------------------------

 -------------------
 Title Card Required
 -------------------
 Symbolic Z-matrix:
 Charge =  1 Multiplicity = 2

 SCF Done:  E(UM062X) =  -379.302871730     A.U. after   30 cycles
 SCF Done:  E(UM062X) =  -379.303586435     A.U. after   74 cycles
 SCF Done:  E(UM062X) =  -379.303588037     A.U. after   11 cycles
 Optimization completed.
    -- Stationary point found.

                          Input orientation:
 ---------------------------------------------------------------------
 Center     Atomic      Atomic             Coordinates (Angstroms)
 Number     Number       Type             X           Y           Z
 ---------------------------------------------------------------------
      1          6           0       -1.794427    0.000000    0.000000
      2         15           0        1.794427    0.000000    0.000000
      3          1           0       -2.914088    0.000001   -0.000001
 ---------------------------------------------------------------------

 Alpha  occ. eigenvalues --  -78.33506 -10.97334  -7.14999  -5.27133  -5.26771
 Alpha  occ. eigenvalues --   -5.25757  -0.99394  -0.86604  -0.65708  -0.52174
 Alpha  occ. eigenvalues --   -0.46747
 Alpha virt. eigenvalues --   -0.38267  -0.34983  -0.34716  -0.13333  -0.09853
 Alpha virt. eigenvalues --   -0.08610  -0.08285  -0.06639  -0.05624  -0.05234
 Alpha virt. eigenvalues --   -0.02318   0.00441   0.16150   0.16352   0.16550

  Beta  occ. eigenvalues --  -78.32755 -10.97290  -7.14773  -5.26557  -5.25628
  Beta  occ. eigenvalues --   -5.24836  -0.99159  -0.81464  -0.65517  -0.45748
  Beta virt. eigenvalues --   -0.37154  -0.34854  -0.33392  -0.29741  -0.13807
  Beta virt. eigenvalues --   -0.10823  -0.08529  -0.08300  -0.06656  -0.05277
  Beta virt. eigenvalues --   -0.04944  -0.02677   0.00322   0.13767   0.15585

 Mulliken charges and spin densities:
               1          2
     1  C    0.212709   0.056022
     2  P    0.534026   0.946441
     3  H    0.253265  -0.002463
 Sum of Mulliken charges =   1.00000   1.00000

 Dipole moment (field-independent basis, Debye):
    X=             -1.6363    Y=              0.0000    Z=             -0.0000  Tot=              1.6363
 Quadrupole moment (field-independent basis, Debye-Ang):
   XX=             10.3139   YY=            -17.1297   ZZ=            -19.4547
   XY=             -0.0000   XZ=              0.0000   YZ=             -1.0651

 Normal termination of Gaussian 16 at Mon Apr 21 19:27:12 2025.
