 Gaussian 16, Revision A.03,
 Gaussian 16:  ES64L-G16RevA.03 25-Dec-2016

 --------------------------------------------
 #p opt UM062X/6-311+G** nosymm int=superfine
 --------------------------------------------

 -------------------
 Title Card Required
 -------------------
 Symbolic Z-matrix:
 Charge =  1 Multiplicity = 2

 SCF Done:  E(UM062X) =  -76.2574198671     A.U. after    9 cycles
 SCF Done:  E(UM062X) =  -76.4107161147     A.U. after    9 cycles
 SCF Done:  E(UM062X) =  -76.4721189253     A.U. after   10 cycles
 SCF Done:  E(UM062X) =  -76.4747450060     A.U. after    9 cycles
 SCF Done:  E(UM062X) =  -76.4747487713     A.U. after    8 cycles
 Optimization completed.
    -- Stationary point found.

                          Input orientation:
 ---------------------------------------------------------------------
 Center     Atomic      Atomic             Coordinates (Angstroms)
 Number     Number       Type             X           Y           Z
 ---------------------------------------------------------------------
      1          6           0       -0.447367    0.000000    0.000000
      2          6           0        0.447367    0.000000    0.000000
      3          1           0       -1.517280   -0.000000   -0.000000
      4          1           0        1.517280   -0.000000   -0.000000
 ---------------------------------------------------------------------

 Alpha  occ. eigenvalues --  -10.91320 -10.87903  -1.33865  -0.94365  -0.91813
 Alpha  occ. eigenvalues --   -0.86709  -0.82879
 Alpha virt. eigenvalues --   -0.16786  -0.15264  -0.14836  -0.13519  -0.11966
 Alpha virt. eigenvalues --   -0.11839  -0.11478  -0.02569  -0.01686  -0.01265
 Alpha virt. eigenvalues --    0.02555   0.03962   0.16923   0.22260   0.24225

  Beta  occ. eigenvalues --  -10.90873 -10.87585  -1.27340  -0.92859  -0.90824
  Beta  occ. eigenvalues --   -0.80193
  Beta virt. eigenvalues --   -0.54756  -0.15483  -0.14415  -0.13661  -0.13179
  Beta virt. eigenvalues --   -0.11969  -0.11865  -0.11534  -0.01115  -0.00895
  Beta virt. eigenvalues --    0.00000   0.02929   0.04462   0.17380   0.22644

 Mulliken charges and spin densities:
               1          2
     1  C    0.252404   0.522593
     2  C    0.252404   0.522593
     3  H    0.247596  -0.022593
     4  H    0.247596  -0.022593
 Sum of Mulliken charges =   1.00000   1.00000

 Dipole moment (field-independent basis, Debye):
    X=             -0.0000    Y=             -0.0000    Z=             -0.0000  Tot=              0.0000
 Quadrupole moment (field-independent basis, Debye-Ang):
   XX=             -2.5700   YY=             -9.8890   ZZ=             -8.6285
   XY=             -0.0000   XZ=              0.0000   YZ=             -0.3478

 Normal termination of Gaussian 16 at Tue Nov 19 12:45:10 2024.
