 Gaussian 16, Revision A.03,
 Gaussian 16:  ES64L-G16RevA.03 25-Dec-2016

 ---------------------------------------
 #p UM062X/6-311+G** force int=superfine
 ---------------------------------------

 -------------------
 Title Card Required
 -------------------
 Symbolic Z-matrix:
 Charge =  0 Multiplicity = 1

                         Standard orientation:
 ---------------------------------------------------------------------
 Center     Atomic      Atomic             Coordinates (Angstroms)
 Number     Number       Type             X           Y           Z
 ---------------------------------------------------------------------
      1          6           0       -0.809401    0.000000    0.000000
      2          6           0        0.809401   -0.000000   -0.000000
      3          1           0        1.184190   -0.885920    0.512628
      4          1           0       -1.184189   -0.886918   -0.510897
      5          1           0        1.184189    0.886918    0.510897
      6          1           0        1.184149   -0.000998   -1.023555
      7          1           0       -1.184190    0.885920   -0.512628
      8          1           0       -1.184149    0.000998    1.023555
 ---------------------------------------------------------------------

 SCF Done:  E(UM062X) =  -79.7935303857     A.U. after    8 cycles

 The electronic state is 1-AG.
 Alpha  occ. eigenvalues --  -10.52713 -10.52686  -0.83269  -0.70539  -0.49669
 Alpha  occ. eigenvalues --   -0.49669  -0.41225  -0.41225  -0.40702
 Alpha virt. eigenvalues --    0.02204   0.03996   0.05551   0.05551   0.08723
 Alpha virt. eigenvalues --    0.08723   0.09016   0.13802   0.18587   0.18587
 Alpha virt. eigenvalues --    0.21360   0.21360   0.24165   0.24659   0.28000

  Beta  occ. eigenvalues --  -10.52713 -10.52686  -0.83269  -0.70539  -0.49669
  Beta  occ. eigenvalues --   -0.49669  -0.41225  -0.41225  -0.40702
  Beta virt. eigenvalues --    0.02204   0.03996   0.05551   0.05551   0.08723
  Beta virt. eigenvalues --    0.08723   0.09016   0.13802   0.18587   0.18587
  Beta virt. eigenvalues --    0.21360   0.21360   0.24165   0.24659   0.28000

 Mulliken charges and spin densities:
               1          2
     1  C   -0.477268  -0.000000
     2  C   -0.477268  -0.000000
     3  H    0.159089   0.000000
     4  H    0.159089   0.000000
     5  H    0.159089   0.000000
     6  H    0.159089  -0.000000
     7  H    0.159089   0.000000
     8  H    0.159089  -0.000000
 Sum of Mulliken charges =  -0.00000  -0.00000

 Dipole moment (field-independent basis, Debye):
    X=              0.0000    Y=              0.0000    Z=             -0.0000  Tot=              0.0000
 Quadrupole moment (field-independent basis, Debye-Ang):
   XX=            -15.6271   YY=            -14.9594   ZZ=            -14.9595
   XY=              0.0000   XZ=              0.0001   YZ=             -0.0000

 Normal termination of Gaussian 16 at Tue Nov 19 12:44:55 2024.
