 Gaussian 16, Revision A.03,
 Gaussian 16:  ES64L-G16RevA.03 25-Dec-2016

 --------------------------------------------
 #p opt UM062X/6-311+G** nosymm int=superfine
 --------------------------------------------

 -------------------
 Title Card Required
 -------------------
 Symbolic Z-matrix:
 Charge =  0 Multiplicity = 1

 SCF Done:  E(UM062X) =  -79.5855028040     A.U. after    9 cycles
 SCF Done:  E(UM062X) =  -79.6171936242     A.U. after    8 cycles
 SCF Done:  E(UM062X) =  -79.6303207952     A.U. after    8 cycles
 SCF Done:  E(UM062X) =  -79.6304024559     A.U. after    7 cycles
 Optimization completed.
    -- Stationary point found.

                          Input orientation:
 ---------------------------------------------------------------------
 Center     Atomic      Atomic             Coordinates (Angstroms)
 Number     Number       Type             X           Y           Z
 ---------------------------------------------------------------------
      1          6           0       -0.565025    0.000000    0.000000
      2          6           0        0.565083    0.000000    0.000000
      3          1           0        1.058104   -0.857006    0.495897
      4          1           0       -1.058042   -0.857995   -0.494213
      5          1           0        1.058100    0.857995    0.494210
      6          1           0        1.058115   -0.000944   -0.990148
      7          1           0       -1.058046    0.857004   -0.495900
      8          1           0       -1.058057    0.000942    0.990146
 ---------------------------------------------------------------------

 Alpha  occ. eigenvalues --  -10.49923 -10.49474  -0.95156  -0.67674  -0.55133
 Alpha  occ. eigenvalues --   -0.55132  -0.51705  -0.34770  -0.34769
 Alpha virt. eigenvalues --    0.02040   0.04182   0.04687   0.04687   0.08617
 Alpha virt. eigenvalues --    0.08985   0.08985   0.14263   0.18724   0.18724
 Alpha virt. eigenvalues --    0.20023   0.20024   0.23989   0.27848   0.39308

  Beta  occ. eigenvalues --  -10.49923 -10.49474  -0.95156  -0.67674  -0.55133
  Beta  occ. eigenvalues --   -0.55132  -0.51705  -0.34770  -0.34769
  Beta virt. eigenvalues --    0.02040   0.04182   0.04687   0.04687   0.08617
  Beta virt. eigenvalues --    0.08985   0.08985   0.14263   0.18724   0.18724
  Beta virt. eigenvalues --    0.20023   0.20024   0.23989   0.27848   0.39308

 Mulliken charges and spin densities:
               1          2
     1  C   -0.424443  -0.000000
     2  C   -0.424443   0.000000
     3  H    0.141482  -0.000000
     4  H    0.141480   0.000000
     5  H    0.141480  -0.000000
     6  H    0.141481  -0.000000
     7  H    0.141482  -0.000000
     8  H    0.141481   0.000000
 Sum of Mulliken charges =  -0.00000   0.00000

 Dipole moment (field-independent basis, Debye):
    X=              0.0000    Y=             -0.0000    Z=             -0.0000  Tot=              0.0000
 Quadrupole moment (field-independent basis, Debye-Ang):
   XX=            -15.6550   YY=            -14.9443   ZZ=            -14.9445
   XY=             -0.0000   XZ=             -0.0000   YZ=             -0.0001

 Normal termination of Gaussian 16 at Tue Nov 19 11:42:00 2024.
