 Gaussian 16, Revision A.03,
 Gaussian 16:  ES64L-G16RevA.03 25-Dec-2016

 --------------------------------------------
 #p opt UM062X/6-311+G** nosymm int=superfine
 --------------------------------------------

 -------------------
 Title Card Required
 -------------------
 Symbolic Z-matrix:
 Charge =  0 Multiplicity = 1

 SCF Done:  E(UM062X) =  -83.1489460649     A.U. after   10 cycles
 SCF Done:  E(UM062X) =  -83.1586299705     A.U. after    9 cycles
 SCF Done:  E(UM062X) =  -83.1593546770     A.U. after    8 cycles
 SCF Done:  E(UM062X) =  -83.1593558992     A.U. after    7 cycles
 SCF Done:  E(UM062X) =  -83.1593563561     A.U. after    6 cycles
 Optimization completed.
    -- Stationary point found.

                          Input orientation:
 ---------------------------------------------------------------------
 Center     Atomic      Atomic             Coordinates (Angstroms)
 Number     Number       Type             X           Y           Z
 ---------------------------------------------------------------------
      1          5           0       -1.227429    0.000000    0.000000
      2          7           0        1.227429    0.000000    0.000000
      3          1           0        1.578284   -0.950238    0.000000
      4          1           0       -1.316779   -0.593704    1.028299
      5          1           0        1.578072    0.475214   -0.822970
      6          1           0        1.578061    0.475211    0.822976
      7          1           0       -1.316767    1.187384    0.000012
      8          1           0       -1.316784   -0.593683   -1.028310
 ---------------------------------------------------------------------

 Alpha  occ. eigenvalues --  -14.76060  -7.01750  -0.98805  -0.56733  -0.56732
 Alpha  occ. eigenvalues --   -0.55580  -0.37568  -0.37568  -0.37314
 Alpha virt. eigenvalues --   -0.00028   0.02792   0.04781   0.04781   0.07859
 Alpha virt. eigenvalues --    0.09246   0.11069   0.11069   0.16661   0.16662
 Alpha virt. eigenvalues --    0.17692   0.20585   0.20586   0.23391   0.30199

  Beta  occ. eigenvalues --  -14.76060  -7.01750  -0.98805  -0.56733  -0.56732
  Beta  occ. eigenvalues --   -0.55580  -0.37568  -0.37568  -0.37314
  Beta virt. eigenvalues --   -0.00028   0.02792   0.04781   0.04781   0.07859
  Beta virt. eigenvalues --    0.09246   0.11069   0.11069   0.16661   0.16662
  Beta virt. eigenvalues --    0.17692   0.20585   0.20586   0.23391   0.30199

 Mulliken charges and spin densities:
               1          2
     1  B    0.001474  -0.000000
     2  N   -0.736846   0.000000
     3  H    0.269290  -0.000000
     4  H   -0.024167   0.000000
     5  H    0.269293  -0.000000
     6  H    0.269294  -0.000000
     7  H   -0.024172   0.000000
     8  H   -0.024166   0.000000
 Sum of Mulliken charges =  -0.00000  -0.00000

 Dipole moment (field-independent basis, Debye):
    X=              3.1635    Y=              0.0002    Z=              0.0000  Tot=              3.1635
 Quadrupole moment (field-independent basis, Debye-Ang):
   XX=            -13.4088   YY=            -15.8531   ZZ=            -15.8532
   XY=             -0.0001   XZ=             -0.0000   YZ=              0.0000

 Normal termination of Gaussian 16 at Mon Apr 21 17:36:54 2025.
