 Gaussian 16, Revision A.03,
 Gaussian 16:  ES64L-G16RevA.03 25-Dec-2016

 ---------------------------------------
 #p UM062X/6-311+G** force int=superfine
 ---------------------------------------

 -------------------
 Title Card Required
 -------------------
 Symbolic Z-matrix:
 Charge =  0 Multiplicity = 1

                         Standard orientation:
 ---------------------------------------------------------------------
 Center     Atomic      Atomic             Coordinates (Angstroms)
 Number     Number       Type             X           Y           Z
 ---------------------------------------------------------------------
      1          6           0        1.023205   -0.000001   -0.000001
      2          6           0       -1.023205    0.000001    0.000000
      3          1           0       -1.306997   -0.445503    0.947809
      4          1           0        1.306999    0.598115    0.859696
      5          1           0       -1.307001   -0.598115   -0.859695
      6          1           0       -1.307066    1.043558   -0.088108
      7          1           0        1.306996    0.445502   -0.947809
      8          1           0        1.307068   -1.043556    0.088108
 ---------------------------------------------------------------------

 SCF Done:  E(UM062X) =  -79.7373002425     A.U. after    9 cycles

 The electronic state is 1-A.
 Alpha  occ. eigenvalues --  -10.54649 -10.54640  -0.78916  -0.72655  -0.48382
 Alpha  occ. eigenvalues --   -0.48381  -0.44463  -0.44463  -0.32914
 Alpha virt. eigenvalues --    0.02344   0.02459   0.05630   0.05630   0.08476
 Alpha virt. eigenvalues --    0.08476   0.09533   0.10799   0.13677   0.18192
 Alpha virt. eigenvalues --    0.18193   0.22043   0.22043   0.24302   0.26938

  Beta  occ. eigenvalues --  -10.54649 -10.54640  -0.78916  -0.72655  -0.48382
  Beta  occ. eigenvalues --   -0.48381  -0.44463  -0.44463  -0.32914
  Beta virt. eigenvalues --    0.02344   0.02459   0.05630   0.05630   0.08476
  Beta virt. eigenvalues --    0.08476   0.09533   0.10799   0.13677   0.18192
  Beta virt. eigenvalues --    0.18193   0.22043   0.22043   0.24302   0.26938

 Mulliken charges and spin densities:
               1          2
     1  C   -0.498721  -0.000000
     2  C   -0.498722   0.000000
     3  H    0.166241  -0.000000
     4  H    0.166241   0.000000
     5  H    0.166241   0.000000
     6  H    0.166239  -0.000000
     7  H    0.166241   0.000000
     8  H    0.166239   0.000000
 Sum of Mulliken charges =  -0.00000  -0.00000

 Dipole moment (field-independent basis, Debye):
    X=              0.0000    Y=             -0.0000    Z=             -0.0000  Tot=              0.0000
 Quadrupole moment (field-independent basis, Debye-Ang):
   XX=            -15.5924   YY=            -14.8732   ZZ=            -14.8734
   XY=             -0.0001   XZ=              0.0000   YZ=             -0.0000

 Normal termination of Gaussian 16 at Tue Nov 19 12:51:22 2024.
