 Gaussian 16, Revision A.03,
 Gaussian 16:  ES64L-G16RevA.03 25-Dec-2016

 --------------------------------------------
 #p opt UM062X/6-311+G** nosymm int=superfine
 --------------------------------------------

 -------------------
 Title Card Required
 -------------------
 Symbolic Z-matrix:
 Charge =  0 Multiplicity = 1

 SCF Done:  E(UM062X) =  -51.7971885872     A.U. after   10 cycles
 SCF Done:  E(UM062X) =  -51.8024734897     A.U. after    9 cycles
 SCF Done:  E(UM062X) =  -51.8055581492     A.U. after   11 cycles
 SCF Done:  E(UM062X) =  -51.8055609959     A.U. after    9 cycles
 SCF Done:  E(UM062X) =  -51.8055566522     A.U. after   11 cycles
 SCF Done:  E(UM062X) =  -51.8055598748     A.U. after    9 cycles
 SCF Done:  E(UM062X) =  -51.8055609289     A.U. after    8 cycles
 Optimization completed.
    -- Stationary point found.

                          Input orientation:
 ---------------------------------------------------------------------
 Center     Atomic      Atomic             Coordinates (Angstroms)
 Number     Number       Type             X           Y           Z
 ---------------------------------------------------------------------
      1          5           0       -1.995607    0.000000    0.000000
      2          5           0        1.995607    0.000000    0.000000
      3          1           0       -2.457246   -1.085509    0.000562
      4          1           0        2.457246    1.085497   -0.005268
      5          1           0       -2.457247    1.085508    0.000751
      6          1           0        2.457247   -1.085489    0.006575
 ---------------------------------------------------------------------

 Alpha  occ. eigenvalues --   -7.11461  -7.11459  -0.57898  -0.57585  -0.45141
 Alpha  occ. eigenvalues --   -0.45052  -0.20150
 Alpha virt. eigenvalues --   -0.07089  -0.05171  -0.04008   0.02276   0.03220
 Alpha virt. eigenvalues --    0.03850   0.05436   0.06222   0.07233   0.08317
 Alpha virt. eigenvalues --    0.10038   0.15376   0.16002   0.17133   0.24163

  Beta  occ. eigenvalues --   -7.11461  -7.11459  -0.57898  -0.57585  -0.45141
  Beta  occ. eigenvalues --   -0.45052  -0.20150
  Beta virt. eigenvalues --   -0.07089  -0.05171  -0.04008   0.02276   0.03220
  Beta virt. eigenvalues --    0.03850   0.05436   0.06222   0.07233   0.08317
  Beta virt. eigenvalues --    0.10038   0.15376   0.16002   0.17133   0.24163

 Mulliken charges and spin densities:
               1          2
     1  B   -0.058810   0.000013
     2  B   -0.058812  -0.000013
     3  H    0.029405   0.000000
     4  H    0.029405  -0.000000
     5  H    0.029405   0.000000
     6  H    0.029405  -0.000000
 Sum of Mulliken charges =  -0.00000   0.00000

 Dipole moment (field-independent basis, Debye):
    X=             -0.0000    Y=              0.0000    Z=              0.0013  Tot=              0.0013
 Quadrupole moment (field-independent basis, Debye-Ang):
   XX=            -11.1679   YY=            -16.9539   ZZ=            -14.5509
   XY=             -0.0000   XZ=              0.0000   YZ=              0.0065

 Normal termination of Gaussian 16 at Mon Apr 21 17:13:53 2025.
