 Gaussian 16, Revision A.03,
 Gaussian 16:  ES64L-G16RevA.03 25-Dec-2016

 ---------------------------------------
 #p UM062X/6-311+G** force int=superfine
 ---------------------------------------

 -------------------
 Title Card Required
 -------------------
 Symbolic Z-matrix:
 Charge =  0 Multiplicity = 1

                         Standard orientation:
 ---------------------------------------------------------------------
 Center     Atomic      Atomic             Coordinates (Angstroms)
 Number     Number       Type             X           Y           Z
 ---------------------------------------------------------------------
      1          6           0       -0.094921   -0.298572    1.030064
      2          6           0        0.094922    0.298572   -1.030064
      3          1           0        0.356106   -0.617732   -1.546099
      4          1           0       -0.882194   -1.042970    1.016242
      5          1           0        0.882193    1.042973   -1.016246
      6          1           0       -0.884063    0.688971   -1.281638
      7          1           0       -0.356106    0.617733    1.546098
      8          1           0        0.884062   -0.688975    1.281643
 ---------------------------------------------------------------------

 SCF Done:  E(UM062X) =  -79.7214344257     A.U. after    8 cycles

 The electronic state is 1-A.
 Alpha  occ. eigenvalues --  -10.54979 -10.54971  -0.78373  -0.73129  -0.48305
 Alpha  occ. eigenvalues --   -0.48305  -0.45070  -0.45070  -0.31436
 Alpha virt. eigenvalues --    0.01544   0.02393   0.05609   0.05609   0.08412
 Alpha virt. eigenvalues --    0.08412   0.09156   0.09689   0.13400   0.18175
 Alpha virt. eigenvalues --    0.18175   0.22106   0.22106   0.24342   0.26728

  Beta  occ. eigenvalues --  -10.54979 -10.54971  -0.78373  -0.73129  -0.48305
  Beta  occ. eigenvalues --   -0.48305  -0.45070  -0.45070  -0.31436
  Beta virt. eigenvalues --    0.01544   0.02393   0.05609   0.05609   0.08412
  Beta virt. eigenvalues --    0.08412   0.09156   0.09689   0.13400   0.18175
  Beta virt. eigenvalues --    0.18175   0.22106   0.22106   0.24342   0.26728

 Mulliken charges and spin densities:
               1          2
     1  C   -0.502281   0.000000
     2  C   -0.502282  -0.000000
     3  H    0.167427   0.000000
     4  H    0.167427  -0.000000
     5  H    0.167427   0.000000
     6  H    0.167428  -0.000000
     7  H    0.167427   0.000000
     8  H    0.167427   0.000000
 Sum of Mulliken charges =  -0.00000   0.00000

 Dipole moment (field-independent basis, Debye):
    X=             -0.0000    Y=             -0.0000    Z=              0.0000  Tot=              0.0000
 Quadrupole moment (field-independent basis, Debye-Ang):
   XX=            -14.8541   YY=            -14.9039   ZZ=            -15.5097
   XY=             -0.0177   XZ=              0.0610   YZ=              0.1917

 Normal termination of Gaussian 16 at Tue Nov 19 12:53:02 2024.
