 Gaussian 16, Revision A.03,
 Gaussian 16:  ES64L-G16RevA.03 25-Dec-2016

 ---------------------------------------------------
 #p UM062X/6-311+G** force int=superfine pop=saveNBO
 ---------------------------------------------------

 -------------------
 Title Card Required
 -------------------
 Symbolic Z-matrix:
 Charge =  0 Multiplicity = 1

                         Standard orientation:
 ---------------------------------------------------------------------
 Center     Atomic      Atomic             Coordinates (Angstroms)
 Number     Number       Type             X           Y           Z
 ---------------------------------------------------------------------
      1          6           0        0.000000    0.000000   -1.441237
      2          8           0        0.000000    0.000000    1.080927
 ---------------------------------------------------------------------

 SCF Done:  E(UM062X) =  -112.796206740     A.U. after   21 cycles

 The electronic state is 1-SG.
 Alpha  occ. eigenvalues --  -19.67722 -10.80827  -0.98857  -0.70923  -0.36965
 Alpha  occ. eigenvalues --   -0.36965  -0.35035
 Alpha virt. eigenvalues --   -0.16611  -0.16611  -0.12136   0.03063   0.06234
 Alpha virt. eigenvalues --    0.06234   0.07067   0.19473   0.22112   0.22112
 Alpha virt. eigenvalues --    0.31029   0.52333   0.52333   0.55462   0.64446

  Beta  occ. eigenvalues --  -19.67722 -10.80827  -0.98857  -0.70923  -0.36965
  Beta  occ. eigenvalues --   -0.36965  -0.35035
  Beta virt. eigenvalues --   -0.16611  -0.16611  -0.12136   0.03063   0.06234
  Beta virt. eigenvalues --    0.06234   0.07067   0.19473   0.22112   0.22112
  Beta virt. eigenvalues --    0.31029   0.52333   0.52333   0.55462   0.64446

 Mulliken charges and spin densities:
               1          2
     1  C    0.280011   0.000000
     2  O   -0.280011   0.000000
 Sum of Mulliken charges =  -0.00000   0.00000

 Dipole moment (field-independent basis, Debye):
    X=              0.0000    Y=              0.0000    Z=             -3.4875  Tot=              3.4875
 Quadrupole moment (field-independent basis, Debye-Ang):
   XX=            -11.2573   YY=            -11.2573   ZZ=            -11.0854
   XY=              0.0000   XZ=              0.0000   YZ=              0.0000

 Summary of Natural Population Analysis:

                                       Natural Population
                Natural  -----------------------------------------------
    Atom  No    Charge         Core      Valence    Rydberg      Total
 -----------------------------------------------------------------------
      C    1    0.20186      1.00000     1.79766    0.00048     2.79814
      O    2   -0.20186      1.00000     3.20025    0.00161     4.20186
 =======================================================================
   * Total *   -0.00000      2.00000     4.99792    0.00208     7.00000

 Normal termination of Gaussian 16 at Mon Apr 21 19:25:56 2025.
