 Gaussian 16, Revision A.03,
 Gaussian 16:  ES64L-G16RevA.03 25-Dec-2016

 --------------------------------------------
 #p opt UM062X/6-311+G** nosymm int=superfine
 --------------------------------------------

 -------------------
 Title Card Required
 -------------------
 Symbolic Z-matrix:
 Charge =  1 Multiplicity = 2

 SCF Done:  E(UM062X) =  -579.674644575     A.U. after   14 cycles
 SCF Done:  E(UM062X) =  -579.675638673     A.U. after   12 cycles
 SCF Done:  E(UM062X) =  -579.676895206     A.U. after   12 cycles
 SCF Done:  E(UM062X) =  -579.678217700     A.U. after   14 cycles
 SCF Done:  E(UM062X) =  -579.678731892     A.U. after   14 cycles
 SCF Done:  E(UM062X) =  -579.679089333     A.U. after   14 cycles
 SCF Done:  E(UM062X) =  -579.679158576     A.U. after   11 cycles
 SCF Done:  E(UM062X) =  -579.679168504     A.U. after   11 cycles
 SCF Done:  E(UM062X) =  -579.679171044     A.U. after   10 cycles
 SCF Done:  E(UM062X) =  -579.679178063     A.U. after   12 cycles
 SCF Done:  E(UM062X) =  -579.679183531     A.U. after   11 cycles
 SCF Done:  E(UM062X) =  -579.679185189     A.U. after   12 cycles
 Optimization completed.
    -- Stationary point found.

                          Input orientation:
 ---------------------------------------------------------------------
 Center     Atomic      Atomic             Coordinates (Angstroms)
 Number     Number       Type             X           Y           Z
 ---------------------------------------------------------------------
      1         14           0       -2.252975    0.000000    0.000000
      2         14           0        2.252975    0.000000    0.000000
      3          1           0       -2.349421   -1.505347    0.000000
      4          1           0        2.349072    1.505381    0.000000
 ---------------------------------------------------------------------

 Alpha  occ. eigenvalues --  -67.26305 -67.26305  -5.80473  -5.80472  -4.11570
 Alpha  occ. eigenvalues --   -4.11570  -4.11486  -4.11486  -4.10837  -4.10837
 Alpha  occ. eigenvalues --   -0.75345  -0.74867  -0.52032  -0.51858  -0.39788
 Alpha virt. eigenvalues --   -0.29448  -0.27265  -0.26565  -0.10666  -0.09340
 Alpha virt. eigenvalues --   -0.08429  -0.07975  -0.07607  -0.06555  -0.05548
 Alpha virt. eigenvalues --   -0.05458  -0.04831  -0.02490   0.12647   0.14040

  Beta  occ. eigenvalues --  -67.26052 -67.26052  -5.80401  -5.80400  -4.11425
  Beta  occ. eigenvalues --   -4.11424  -4.10890  -4.10890  -4.10736  -4.10735
  Beta  occ. eigenvalues --   -0.73498  -0.73259  -0.51400  -0.51196
  Beta virt. eigenvalues --   -0.27727  -0.27104  -0.26164  -0.23767  -0.14113
  Beta virt. eigenvalues --   -0.10786  -0.09085  -0.08347  -0.08164  -0.06559
  Beta virt. eigenvalues --   -0.05517  -0.05378  -0.05117  -0.02605   0.09918

 Mulliken charges and spin densities:
               1          2
     1  Si   0.582785   0.508368
     2  Si   0.582803   0.508355
     3  H   -0.082790  -0.008361
     4  H   -0.082797  -0.008362
 Sum of Mulliken charges =   1.00000   1.00000

 Dipole moment (field-independent basis, Debye):
    X=             -0.0000    Y=              0.0000    Z=              0.0000  Tot=              0.0001
 Quadrupole moment (field-independent basis, Debye-Ang):
   XX=              5.3176   YY=            -27.7845   ZZ=            -19.9965
   XY=              2.4010   XZ=             -0.0000   YZ=              0.0000

 Normal termination of Gaussian 16 at Mon Apr 21 20:43:17 2025.
