 Gaussian 16, Revision A.03,
 Gaussian 16:  ES64L-G16RevA.03 25-Dec-2016

 ---------------------------------------------------
 #p UM062X/6-311+G** force int=superfine pop=saveNBO
 ---------------------------------------------------

 -------------------
 Title Card Required
 -------------------
 Symbolic Z-matrix:
 Charge =  0 Multiplicity = 1

                         Standard orientation:
 ---------------------------------------------------------------------
 Center     Atomic      Atomic             Coordinates (Angstroms)
 Number     Number       Type             X           Y           Z
 ---------------------------------------------------------------------
      1          6           0        0.000000    0.000000   -0.755522
      2          8           0        0.000000    0.000000    0.566642
 ---------------------------------------------------------------------

 SCF Done:  E(UM062X) =  -113.246989610     A.U. after   10 cycles

 The electronic state is 1-SG.
 Alpha  occ. eigenvalues --  -19.74014 -10.72913  -1.19341  -0.67211  -0.49453
 Alpha  occ. eigenvalues --   -0.49453  -0.46509
 Alpha virt. eigenvalues --   -0.04965  -0.04965   0.03608   0.05782   0.07065
 Alpha virt. eigenvalues --    0.07065   0.19357   0.22469   0.22469   0.27580
 Alpha virt. eigenvalues --    0.34099   0.55290   0.55290   0.59054   0.80568

  Beta  occ. eigenvalues --  -19.74014 -10.72913  -1.19341  -0.67211  -0.49453
  Beta  occ. eigenvalues --   -0.49453  -0.46509
  Beta virt. eigenvalues --   -0.04965  -0.04965   0.03608   0.05782   0.07065
  Beta virt. eigenvalues --    0.07065   0.19357   0.22469   0.22469   0.27580
  Beta virt. eigenvalues --    0.34099   0.55290   0.55290   0.59054   0.80568

 Mulliken charges and spin densities:
               1          2
     1  C    0.133488  -0.000000
     2  O   -0.133488   0.000000
 Sum of Mulliken charges =  -0.00000   0.00000

 Dipole moment (field-independent basis, Debye):
    X=              0.0000    Y=              0.0000    Z=             -0.8479  Tot=              0.8479
 Quadrupole moment (field-independent basis, Debye-Ang):
   XX=            -10.7028   YY=            -10.7028   ZZ=            -12.2960
   XY=              0.0000   XZ=              0.0000   YZ=              0.0000

 Summary of Natural Population Analysis:

                                       Natural Population
                Natural  -----------------------------------------------
    Atom  No    Charge         Core      Valence    Rydberg      Total
 -----------------------------------------------------------------------
      C    1    0.29118      0.99995     1.68837    0.02050     2.70882
      O    2   -0.29118      0.99994     3.28502    0.00621     4.29118
 =======================================================================
   * Total *   -0.00000      1.99989     4.97340    0.02671     7.00000

 Normal termination of Gaussian 16 at Mon Apr 21 19:31:11 2025.
