 Gaussian 16, Revision A.03,
 Gaussian 16:  ES64L-G16RevA.03 25-Dec-2016

 --------------------------------------------
 #p opt UM062X/6-311+G** nosymm int=superfine
 --------------------------------------------

 -------------------
 Title Card Required
 -------------------
 Symbolic Z-matrix:
 Charge =  1 Multiplicity = 2

 SCF Done:  E(UM062X) =  -579.676283158     A.U. after   14 cycles
 SCF Done:  E(UM062X) =  -579.677505791     A.U. after   12 cycles
 SCF Done:  E(UM062X) =  -579.679363625     A.U. after   14 cycles
 SCF Done:  E(UM062X) =  -579.680686341     A.U. after   14 cycles
 SCF Done:  E(UM062X) =  -579.681199450     A.U. after   14 cycles
 SCF Done:  E(UM062X) =  -579.681445219     A.U. after   13 cycles
 SCF Done:  E(UM062X) =  -579.681492235     A.U. after   12 cycles
 SCF Done:  E(UM062X) =  -579.681499186     A.U. after   11 cycles
 SCF Done:  E(UM062X) =  -579.681503741     A.U. after   12 cycles
 SCF Done:  E(UM062X) =  -579.681511036     A.U. after   12 cycles
 SCF Done:  E(UM062X) =  -579.681517140     A.U. after   10 cycles
 SCF Done:  E(UM062X) =  -579.681519640     A.U. after   12 cycles
 Optimization completed.
    -- Stationary point found.

                          Input orientation:
 ---------------------------------------------------------------------
 Center     Atomic      Atomic             Coordinates (Angstroms)
 Number     Number       Type             X           Y           Z
 ---------------------------------------------------------------------
      1         14           0       -2.177975    0.000000    0.000000
      2         14           0        2.177975    0.000000    0.000000
      3          1           0       -2.267128   -1.505674    0.000000
      4          1           0        2.265865    1.505767    0.000000
 ---------------------------------------------------------------------

 Alpha  occ. eigenvalues --  -67.26450 -67.26450  -5.80616  -5.80615  -4.11712
 Alpha  occ. eigenvalues --   -4.11712  -4.11630  -4.11630  -4.10980  -4.10980
 Alpha  occ. eigenvalues --   -0.75548  -0.74972  -0.52189  -0.52011  -0.40312
 Alpha virt. eigenvalues --   -0.29214  -0.27491  -0.26644  -0.10771  -0.09451
 Alpha virt. eigenvalues --   -0.08508  -0.08131  -0.07686  -0.06641  -0.05578
 Alpha virt. eigenvalues --   -0.05497  -0.04883  -0.02571   0.12748   0.13783

  Beta  occ. eigenvalues --  -67.26198 -67.26197  -5.80545  -5.80542  -4.11569
  Beta  occ. eigenvalues --   -4.11568  -4.11037  -4.11036  -4.10877  -4.10876
  Beta  occ. eigenvalues --   -0.73677  -0.73366  -0.51560  -0.51327
  Beta virt. eigenvalues --   -0.27814  -0.27318  -0.26234  -0.23630  -0.13910
  Beta virt. eigenvalues --   -0.10702  -0.09074  -0.08380  -0.08326  -0.06615
  Beta virt. eigenvalues --   -0.05482  -0.05408  -0.05173  -0.02670   0.10584

 Mulliken charges and spin densities:
               1          2
     1  Si   0.582037   0.508843
     2  Si   0.582108   0.508790
     3  H   -0.082059  -0.008814
     4  H   -0.082085  -0.008819
 Sum of Mulliken charges =   1.00000   1.00000

 Dipole moment (field-independent basis, Debye):
    X=             -0.0001    Y=              0.0001    Z=              0.0000  Tot=              0.0002
 Quadrupole moment (field-independent basis, Debye-Ang):
   XX=              3.6675   YY=            -27.7539   ZZ=            -19.9731
   XY=              2.3598   XZ=              0.0000   YZ=             -0.0000

 Normal termination of Gaussian 16 at Mon Apr 21 20:43:32 2025.
