 Gaussian 16, Revision A.03,
 Gaussian 16:  ES64L-G16RevA.03 25-Dec-2016

 ---------------------------------------
 #p UM062X/6-311+G** force int=superfine
 ---------------------------------------

 -------------------
 Title Card Required
 -------------------
 Symbolic Z-matrix:
 Charge =  1 Multiplicity = 2

                         Standard orientation:
 ---------------------------------------------------------------------
 Center     Atomic      Atomic             Coordinates (Angstroms)
 Number     Number       Type             X           Y           Z
 ---------------------------------------------------------------------
      1          6           0        1.212671   -0.000037   -0.000020
      2          6           0       -1.212671    0.000043    0.000008
      3          1           0       -1.299552   -0.984276   -0.446317
      4          1           0        1.298765   -0.878714    0.629387
      5          1           0       -1.299206    0.878800   -0.629227
      6          1           0       -1.298807    0.105671    1.075676
      7          1           0        1.299575    0.984330    0.446191
      8          1           0        1.299225   -0.105844   -1.075637
 ---------------------------------------------------------------------

 SCF Done:  E(UM062X) =  -79.3594460233     A.U. after    9 cycles

 The electronic state is 2-A.
 Alpha  occ. eigenvalues --  -10.85766 -10.85760  -1.06979  -1.02396  -0.76693
 Alpha  occ. eigenvalues --   -0.76693  -0.74238  -0.74237  -0.57960
 Alpha virt. eigenvalues --   -0.30694  -0.15494  -0.10699  -0.10699  -0.09977
 Alpha virt. eigenvalues --   -0.06478  -0.06237  -0.06237  -0.04224  -0.04222
 Alpha virt. eigenvalues --   -0.02698   0.01642   0.01644   0.05245   0.07342

  Beta  occ. eigenvalues --  -10.85564 -10.85564  -1.03696  -0.99860  -0.75915
  Beta  occ. eigenvalues --   -0.75914  -0.73624  -0.73623
  Beta virt. eigenvalues --   -0.35407  -0.22059  -0.15701  -0.11085  -0.11085
  Beta virt. eigenvalues --   -0.09354  -0.06576  -0.06576  -0.06494  -0.03996
  Beta virt. eigenvalues --   -0.03993  -0.01940   0.02108   0.02110   0.05661

 Mulliken charges and spin densities:
               1          2
     1  C   -0.292593   0.571211
     2  C   -0.292593   0.571212
     3  H    0.264212  -0.023743
     4  H    0.264182  -0.023728
     5  H    0.264199  -0.023737
     6  H    0.264182  -0.023732
     7  H    0.264213  -0.023743
     8  H    0.264198  -0.023740
 Sum of Mulliken charges =   1.00000   1.00000

 Dipole moment (field-independent basis, Debye):
    X=              0.0000    Y=             -0.0000    Z=              0.0000  Tot=              0.0000
 Quadrupole moment (field-independent basis, Debye-Ang):
   XX=             -4.2700   YY=            -10.9064   ZZ=            -10.9067
   XY=              0.0006   XZ=              0.0002   YZ=              0.0000

 Normal termination of Gaussian 16 at Wed Nov 13 13:00:37 2024.
