 Gaussian 16, Revision A.03,
 Gaussian 16:  ES64L-G16RevA.03 25-Dec-2016

 --------------------------------------------
 #p opt UM062X/6-311+G** nosymm int=superfine
 --------------------------------------------

 -------------------
 Title Card Required
 -------------------
 Symbolic Z-matrix:
 Charge =  1 Multiplicity = 2

 SCF Done:  E(UM062X) =  -92.6981452022     A.U. after   20 cycles
 SCF Done:  E(UM062X) =  -92.6984250620     A.U. after   14 cycles
 SCF Done:  E(UM062X) =  -92.6984255142     A.U. after   12 cycles
 Optimization completed.
    -- Stationary point found.

                          Input orientation:
 ---------------------------------------------------------------------
 Center     Atomic      Atomic             Coordinates (Angstroms)
 Number     Number       Type             X           Y           Z
 ---------------------------------------------------------------------
      1          6           0       -0.901540    0.000000    0.000000
      2          7           0        0.901540    0.000000    0.000000
      3          1           0       -2.017813   -0.000000    0.000000
 ---------------------------------------------------------------------

 Alpha  occ. eigenvalues --  -15.24129 -11.09214  -1.22287  -1.06881  -0.79624
 Alpha  occ. eigenvalues --   -0.72279  -0.66096
 Alpha virt. eigenvalues --   -0.43839  -0.42378  -0.34420  -0.16220  -0.11312
 Alpha virt. eigenvalues --   -0.10576  -0.10083  -0.05384  -0.01894  -0.01457
 Alpha virt. eigenvalues --    0.01633   0.07645   0.24241   0.29223   0.29337

  Beta  occ. eigenvalues --  -15.23296 -11.09098  -1.17031  -1.05062  -0.77909
  Beta  occ. eigenvalues --   -0.65239
  Beta virt. eigenvalues --   -0.45611  -0.40979  -0.34662  -0.32100  -0.16722
  Beta virt. eigenvalues --   -0.11660  -0.10514  -0.10428  -0.05722  -0.02343
  Beta virt. eigenvalues --   -0.01926   0.01726   0.06110   0.24218   0.28372

 Mulliken charges and spin densities:
               1          2
     1  C    0.257433   0.273679
     2  N    0.381124   0.744083
     3  H    0.361443  -0.017762
 Sum of Mulliken charges =   1.00000   1.00000

 Dipole moment (field-independent basis, Debye):
    X=             -4.1287    Y=             -0.0000    Z=              0.0000  Tot=              4.1287
 Quadrupole moment (field-independent basis, Debye-Ang):
   XX=             -0.0076   YY=            -11.2088   ZZ=             -9.2667
   XY=              0.0000   XZ=             -0.0000   YZ=              0.0182

 Normal termination of Gaussian 16 at Mon Apr 21 18:33:51 2025.
