 Gaussian 16, Revision A.03,
 Gaussian 16:  ES64L-G16RevA.03 25-Dec-2016

 ---------------------------------------
 #p UM062X/6-311+G** force int=superfine
 ---------------------------------------

 -------------------
 Title Card Required
 -------------------
 Symbolic Z-matrix:
 Charge =  0 Multiplicity = 1

                         Standard orientation:
 ---------------------------------------------------------------------
 Center     Atomic      Atomic             Coordinates (Angstroms)
 Number     Number       Type             X           Y           Z
 ---------------------------------------------------------------------
      1          6           0       -0.070677   -0.224737    0.782335
      2          6           0        0.070677    0.224737   -0.782335
      3          1           0        0.337544   -0.636999   -1.393664
      4          1           0       -0.845635   -0.984365    0.882003
      5          1           0        0.845634    0.984365   -0.882003
      6          1           0       -0.874796    0.633333   -1.138221
      7          1           0       -0.337544    0.637000    1.393664
      8          1           0        0.874796   -0.633334    1.138222
 ---------------------------------------------------------------------

 SCF Done:  E(UM062X) =  -79.7923780126     A.U. after    8 cycles

 The electronic state is 1-A.
 Alpha  occ. eigenvalues --  -10.52799 -10.52774  -0.83033  -0.70623  -0.49586
 Alpha  occ. eigenvalues --   -0.49586  -0.41371  -0.41371  -0.40377
 Alpha virt. eigenvalues --    0.02208   0.03975   0.05561   0.05561   0.08715
 Alpha virt. eigenvalues --    0.08715   0.09032   0.13779   0.18563   0.18564
 Alpha virt. eigenvalues --    0.21401   0.21401   0.24097   0.24170   0.27937

  Beta  occ. eigenvalues --  -10.52799 -10.52774  -0.83033  -0.70623  -0.49586
  Beta  occ. eigenvalues --   -0.49586  -0.41371  -0.41371  -0.40377
  Beta virt. eigenvalues --    0.02208   0.03975   0.05561   0.05561   0.08715
  Beta virt. eigenvalues --    0.08715   0.09032   0.13779   0.18563   0.18564
  Beta virt. eigenvalues --    0.21401   0.21401   0.24097   0.24170   0.27937

 Mulliken charges and spin densities:
               1          2
     1  C   -0.478381  -0.000000
     2  C   -0.478381   0.000000
     3  H    0.159461  -0.000000
     4  H    0.159461   0.000000
     5  H    0.159461  -0.000000
     6  H    0.159459  -0.000000
     7  H    0.159461   0.000000
     8  H    0.159459   0.000000
 Sum of Mulliken charges =  -0.00000   0.00000

 Dipole moment (field-independent basis, Debye):
    X=             -0.0000    Y=              0.0000    Z=             -0.0000  Tot=              0.0000
 Quadrupole moment (field-independent basis, Debye-Ang):
   XX=            -14.9626   YY=            -15.0082   ZZ=            -15.5708
   XY=             -0.0159   XZ=              0.0553   YZ=              0.1762

 Normal termination of Gaussian 16 at Tue Nov 19 12:45:09 2024.
