 Gaussian 16, Revision A.03,
 Gaussian 16:  ES64L-G16RevA.03 25-Dec-2016

 --------------------------------------------
 #p opt UM062X/6-311+G** nosymm int=superfine
 --------------------------------------------

 -------------------
 Title Card Required
 -------------------
 Symbolic Z-matrix:
 Charge =  0 Multiplicity = 1

 SCF Done:  E(UM062X) =  -437.162861670     A.U. after   16 cycles
 SCF Done:  E(UM062X) =  -437.164960843     A.U. after    9 cycles
 SCF Done:  E(UM062X) =  -437.165690385     A.U. after   15 cycles
 SCF Done:  E(UM062X) =  -437.165691092     A.U. after    9 cycles
 Optimization completed.
    -- Stationary point found.

                          Input orientation:
 ---------------------------------------------------------------------
 Center     Atomic      Atomic             Coordinates (Angstroms)
 Number     Number       Type             X           Y           Z
 ---------------------------------------------------------------------
      1          6           0       -1.902140    0.000000    0.000000
      2         16           0        1.902140    0.000000    0.000000
      3          1           0       -2.578756   -0.873508    0.000047
      4          1           0       -2.579694    0.872780   -0.000081
 ---------------------------------------------------------------------

 Alpha  occ. eigenvalues --  -89.93658 -10.63657  -8.29688  -6.22461  -6.20904
 Alpha  occ. eigenvalues --   -6.20903  -0.77898  -0.73809  -0.50338  -0.33757
 Alpha  occ. eigenvalues --   -0.31184  -0.31172
 Alpha virt. eigenvalues --   -0.16129  -0.10333   0.01241   0.04857   0.05411
 Alpha virt. eigenvalues --    0.06571   0.08116   0.08847   0.09136   0.14016
 Alpha virt. eigenvalues --    0.17122   0.18169   0.35422   0.36675   0.36889

  Beta  occ. eigenvalues --  -89.93658 -10.63657  -8.29688  -6.22461  -6.20904
  Beta  occ. eigenvalues --   -6.20903  -0.77898  -0.73809  -0.50338  -0.33757
  Beta  occ. eigenvalues --   -0.31184  -0.31172
  Beta virt. eigenvalues --   -0.16129  -0.10333   0.01241   0.04857   0.05411
  Beta virt. eigenvalues --    0.06571   0.08116   0.08847   0.09136   0.14016
  Beta virt. eigenvalues --    0.17122   0.18169   0.35422   0.36675   0.36889

 Mulliken charges and spin densities:
               1          2
     1  C   -0.277207  -0.000000
     2  S   -0.021123   0.000000
     3  H    0.149160   0.000000
     4  H    0.149170  -0.000000
 Sum of Mulliken charges =  -0.00000  -0.00000

 Dipole moment (field-independent basis, Debye):
    X=             -3.0179    Y=             -0.0011    Z=             -0.0000  Tot=              3.0179
 Quadrupole moment (field-independent basis, Debye-Ang):
   XX=            -10.7687   YY=            -22.3485   ZZ=            -21.8081
   XY=              0.0002   XZ=              0.0001   YZ=              0.0000

 Normal termination of Gaussian 16 at Mon Apr 21 19:44:50 2025.
