 Gaussian 16, Revision A.03,
 Gaussian 16:  ES64L-G16RevA.03 25-Dec-2016

 --------------------------------------------
 #p opt UM062X/6-311+G** nosymm int=superfine
 --------------------------------------------

 -------------------
 Title Card Required
 -------------------
 Symbolic Z-matrix:
 Charge =  0 Multiplicity = 1

 SCF Done:  E(UM062X) =  -80.5360612370     A.U. after   13 cycles
 SCF Done:  E(UM062X) =  -80.5362987148     A.U. after    9 cycles
 SCF Done:  E(UM062X) =  -80.5363034736     A.U. after   11 cycles
 SCF Done:  E(UM062X) =  -80.5408407696     A.U. after   15 cycles
 SCF Done:  E(UM062X) =  -80.5474338553     A.U. after   14 cycles
 SCF Done:  E(UM062X) =  -80.5419428884     A.U. after   17 cycles
 SCF Done:  E(UM062X) =  -80.5557068577     A.U. after   15 cycles
 SCF Done:  E(UM062X) =  -80.5659468365     A.U. after   16 cycles
 SCF Done:  E(UM062X) =  -80.5725249304     A.U. after   14 cycles
 SCF Done:  E(UM062X) =  -80.5862481280     A.U. after   13 cycles
 SCF Done:  E(UM062X) =  -80.5827228457     A.U. after   14 cycles
 SCF Done:  E(UM062X) =  -80.5868817274     A.U. after   15 cycles
 SCF Done:  E(UM062X) =  -80.5896917025     A.U. after   15 cycles
 SCF Done:  E(UM062X) =  -80.5908455235     A.U. after   14 cycles
 SCF Done:  E(UM062X) =  -80.5910850515     A.U. after   13 cycles
 SCF Done:  E(UM062X) =  -80.5910906925     A.U. after   12 cycles
 SCF Done:  E(UM062X) =  -80.5910909814     A.U. after   10 cycles
 Optimization completed.
    -- Stationary point found.

                          Input orientation:
 ---------------------------------------------------------------------
 Center     Atomic      Atomic             Coordinates (Angstroms)
 Number     Number       Type             X           Y           Z
 ---------------------------------------------------------------------
      1          5           0       -0.942066    0.000000    0.000000
      2          7           0        0.942066    0.000000    0.000000
      3          1           0       -2.107509   -0.075630    0.174891
      4          1           0        1.049530    0.409471   -0.943573
 ---------------------------------------------------------------------

 Alpha  occ. eigenvalues --  -14.77146  -7.19249  -0.85960  -0.60180  -0.44113
 Alpha  occ. eigenvalues --   -0.36207  -0.28788
 Alpha virt. eigenvalues --   -0.06886  -0.05328  -0.00008   0.00920   0.04308
 Alpha virt. eigenvalues --    0.04893   0.07259   0.13692   0.16031   0.18626
 Alpha virt. eigenvalues --    0.20292   0.23516   0.25812   0.37452   0.38767

  Beta  occ. eigenvalues --  -14.77146  -7.19249  -0.85960  -0.60179  -0.44113
  Beta  occ. eigenvalues --   -0.36207  -0.28788
  Beta virt. eigenvalues --   -0.06886  -0.05328  -0.00009   0.00920   0.04308
  Beta virt. eigenvalues --    0.04893   0.07259   0.13692   0.16031   0.18626
  Beta virt. eigenvalues --    0.20292   0.23516   0.25812   0.37452   0.38767

 Mulliken charges and spin densities:
               1          2
     1  B    0.190129   0.000058
     2  N   -0.457244  -0.000060
     3  H    0.072740   0.000000
     4  H    0.194375   0.000001
 Sum of Mulliken charges =  -0.00000   0.00000

 Dipole moment (field-independent basis, Debye):
    X=             -3.7655    Y=              0.4973    Z=             -1.1455  Tot=              3.9672
 Quadrupole moment (field-independent basis, Debye-Ang):
   XX=            -11.5457   YY=            -14.7666   ZZ=            -12.3786
   XY=              0.7696   XZ=             -1.7734   YZ=             -1.2768

 Normal termination of Gaussian 16 at Mon Apr 21 18:03:42 2025.
