 Gaussian 16, Revision A.03,
 Gaussian 16:  ES64L-G16RevA.03 25-Dec-2016

 --------------------------------------------
 #p opt UM062X/6-311+G** nosymm int=superfine
 --------------------------------------------

 -------------------
 Title Card Required
 -------------------
 Symbolic Z-matrix:
 Charge =  0 Multiplicity = 1

 SCF Done:  E(UM062X) =  -474.514304875     A.U. after   13 cycles
 SCF Done:  E(UM062X) =  -474.517443462     A.U. after   13 cycles
 SCF Done:  E(UM062X) =  -474.517607204     A.U. after   14 cycles
 SCF Done:  E(UM062X) =  -474.517830876     A.U. after   12 cycles
 SCF Done:  E(UM062X) =  -474.517832053     A.U. after    9 cycles
 Optimization completed.
    -- Stationary point found.

                          Input orientation:
 ---------------------------------------------------------------------
 Center     Atomic      Atomic             Coordinates (Angstroms)
 Number     Number       Type             X           Y           Z
 ---------------------------------------------------------------------
      1          8           0       -1.064392    0.000000    0.000000
      2         16           0        1.064392    0.000000    0.000000
      3          1           0       -1.184539   -0.955139   -0.087247
      4          1           0        1.060438    0.254713    1.318851
 ---------------------------------------------------------------------

 Alpha  occ. eigenvalues --  -89.96420 -19.67053  -8.32465  -6.24686  -6.24320
 Alpha  occ. eigenvalues --   -6.23791  -1.10378  -0.82505  -0.54093  -0.49517
 Alpha  occ. eigenvalues --   -0.42766  -0.39817  -0.33928
 Alpha virt. eigenvalues --   -0.09857   0.01491   0.04213   0.04971   0.05971
 Alpha virt. eigenvalues --    0.07890   0.15732   0.19314   0.20022   0.22090
 Alpha virt. eigenvalues --    0.27781   0.31765   0.33736   0.35109   0.40866

  Beta  occ. eigenvalues --  -89.96420 -19.67053  -8.32465  -6.24686  -6.24320
  Beta  occ. eigenvalues --   -6.23791  -1.10378  -0.82505  -0.54093  -0.49517
  Beta  occ. eigenvalues --   -0.42766  -0.39817  -0.33928
  Beta virt. eigenvalues --   -0.09857   0.01491   0.04213   0.04971   0.05971
  Beta virt. eigenvalues --    0.07890   0.15732   0.19314   0.20022   0.22090
  Beta virt. eigenvalues --    0.27781   0.31765   0.33736   0.35109   0.40866

 Mulliken charges and spin densities:
               1          2
     1  O   -0.436986   0.000000
     2  S    0.079869   0.000000
     3  H    0.257602  -0.000000
     4  H    0.099516   0.000000
 Sum of Mulliken charges =   0.00000   0.00000

 Dipole moment (field-independent basis, Debye):
    X=              1.3905    Y=             -1.4265    Z=              0.9383  Tot=              2.2020
 Quadrupole moment (field-independent basis, Debye-Ang):
   XX=            -18.6654   YY=            -19.7613   ZZ=            -18.4661
   XY=              2.7084   XZ=              1.6830   YZ=              0.9956

 Normal termination of Gaussian 16 at Thu May 15 12:54:14 2025.
