 Gaussian 16, Revision A.03,
 Gaussian 16:  ES64L-G16RevA.03 25-Dec-2016

 --------------------------------------------
 #p opt UM062X/6-311+G** nosymm int=superfine
 --------------------------------------------

 -------------------
 Title Card Required
 -------------------
 Symbolic Z-matrix:
 Charge =  0 Multiplicity = 1

 SCF Done:  E(UM062X) =  -77.0327160818     A.U. after   13 cycles
 SCF Done:  E(UM062X) =  -77.0325663836     A.U. after   11 cycles
 SCF Done:  E(UM062X) =  -77.0327506927     A.U. after   11 cycles
 SCF Done:  E(UM062X) =  -77.0327518380     A.U. after   10 cycles
 Optimization completed.
    -- Stationary point found.

                          Input orientation:
 ---------------------------------------------------------------------
 Center     Atomic      Atomic             Coordinates (Angstroms)
 Number     Number       Type             X           Y           Z
 ---------------------------------------------------------------------
      1          6           0       -1.007625    0.000000    0.000000
      2          6           0        1.007625    0.000000    0.000000
      3          1           0       -1.097037    0.329366    1.064165
      4          1           0        1.097169    1.035411   -0.410870
 ---------------------------------------------------------------------

 Alpha  occ. eigenvalues --  -10.65866 -10.65853  -0.77547  -0.67856  -0.41699
 Alpha  occ. eigenvalues --   -0.37696  -0.30626
 Alpha virt. eigenvalues --   -0.09000  -0.08463   0.02109   0.02703   0.06614
 Alpha virt. eigenvalues --    0.07665   0.09747   0.09862   0.10304   0.10507
 Alpha virt. eigenvalues --    0.15903   0.16613   0.21194   0.46149   0.47790

  Beta  occ. eigenvalues --  -10.65866 -10.65853  -0.77547  -0.67856  -0.41699
  Beta  occ. eigenvalues --   -0.37696  -0.30626
  Beta virt. eigenvalues --   -0.09000  -0.08463   0.02109   0.02703   0.06614
  Beta virt. eigenvalues --    0.07665   0.09747   0.09862   0.10304   0.10507
  Beta virt. eigenvalues --    0.15903   0.16613   0.21194   0.46149   0.47790

 Mulliken charges and spin densities:
               1          2
     1  C   -0.147344   0.000000
     2  C   -0.147369  -0.000000
     3  H    0.147351  -0.000000
     4  H    0.147362   0.000000
 Sum of Mulliken charges =  -0.00000  -0.00000

 Dipole moment (field-independent basis, Debye):
    X=              0.0001    Y=              1.8894    Z=              0.9043  Tot=              2.0946
 Quadrupole moment (field-independent basis, Debye-Ang):
   XX=            -17.0335   YY=            -13.0293   ZZ=            -13.0400
   XY=              1.1594   XZ=             -2.4218   YZ=              0.0068

 Normal termination of Gaussian 16 at Tue Dec  3 21:21:34 2024.
