 Gaussian 16, Revision A.03,
 Gaussian 16:  ES64L-G16RevA.03 25-Dec-2016

 --------------------------------------------
 #p opt UM062X/6-311+G** nosymm int=superfine
 --------------------------------------------

 -------------------
 Title Card Required
 -------------------
 Symbolic Z-matrix:
 Charge =  0 Multiplicity = 1

 SCF Done:  E(UM062X) =  -80.5321186045     A.U. after   16 cycles
 SCF Done:  E(UM062X) =  -80.5333142321     A.U. after   12 cycles
 SCF Done:  E(UM062X) =  -80.5341536781     A.U. after   12 cycles
 SCF Done:  E(UM062X) =  -80.5346281163     A.U. after   12 cycles
 SCF Done:  E(UM062X) =  -80.5346376182     A.U. after   11 cycles
 SCF Done:  E(UM062X) =  -80.5346379596     A.U. after   10 cycles
 Optimization completed.
    -- Stationary point found.

                          Input orientation:
 ---------------------------------------------------------------------
 Center     Atomic      Atomic             Coordinates (Angstroms)
 Number     Number       Type             X           Y           Z
 ---------------------------------------------------------------------
      1          5           0       -1.042153   -0.000223    0.000000
      2          7           0        1.042007    0.000134    0.000000
      3          1           0       -2.213291   -0.201729    0.002752
      4          1           0        1.083227    1.035405   -0.014905
 ---------------------------------------------------------------------

 Alpha  occ. eigenvalues --  -14.77494  -7.20609  -0.84980  -0.60811  -0.42229
 Alpha  occ. eigenvalues --   -0.35594  -0.27699
 Alpha virt. eigenvalues --   -0.08032  -0.07048  -0.02095   0.00716   0.04072
 Alpha virt. eigenvalues --    0.04794   0.05734   0.13371   0.16079   0.18537
 Alpha virt. eigenvalues --    0.20178   0.22224   0.25646   0.36378   0.38425

  Beta  occ. eigenvalues --  -14.77494  -7.20609  -0.84980  -0.60811  -0.42229
  Beta  occ. eigenvalues --   -0.35594  -0.27699
  Beta virt. eigenvalues --   -0.08032  -0.07048  -0.02095   0.00716   0.04072
  Beta virt. eigenvalues --    0.04794   0.05734   0.13371   0.16079   0.18537
  Beta virt. eigenvalues --    0.20178   0.22224   0.25646   0.36378   0.38425

 Mulliken charges and spin densities:
               1          2
     1  B    0.161787   0.000000
     2  N   -0.418698  -0.000000
     3  H    0.073470   0.000000
     4  H    0.183441   0.000000
 Sum of Mulliken charges =  -0.00000   0.00000

 Dipole moment (field-independent basis, Debye):
    X=             -4.1539    Y=              1.2097    Z=             -0.0176  Tot=              4.3265
 Quadrupole moment (field-independent basis, Debye-Ang):
   XX=            -11.1099   YY=            -12.0484   ZZ=            -15.5342
   XY=              1.9559   XZ=             -0.0282   YZ=             -0.0502

 Normal termination of Gaussian 16 at Mon Apr 21 22:19:22 2025.
