 Gaussian 16, Revision A.03,
 Gaussian 16:  ES64L-G16RevA.03 25-Dec-2016

 --------------------------------------------
 #p opt UM062X/6-311+G** nosymm int=superfine
 --------------------------------------------

 -------------------
 Title Card Required
 -------------------
 Symbolic Z-matrix:
 Charge =  0 Multiplicity = 1

 SCF Done:  E(UM062X) =  -79.6361475643     A.U. after    8 cycles
 SCF Done:  E(UM062X) =  -79.6705447630     A.U. after    9 cycles
 SCF Done:  E(UM062X) =  -79.6999443244     A.U. after   10 cycles
 SCF Done:  E(UM062X) =  -79.7082695989     A.U. after   10 cycles
 SCF Done:  E(UM062X) =  -79.7083568873     A.U. after    8 cycles
 SCF Done:  E(UM062X) =  -79.7083590378     A.U. after    7 cycles
 Optimization completed.
    -- Stationary point found.

                          Input orientation:
 ---------------------------------------------------------------------
 Center     Atomic      Atomic             Coordinates (Angstroms)
 Number     Number       Type             X           Y           Z
 ---------------------------------------------------------------------
      1          6           0       -1.122414    0.000000    0.000000
      2          6           0        1.122529    0.000000    0.000000
      3          1           0        1.368315   -0.912968    0.528288
      4          1           0       -1.368194   -0.914000   -0.526505
      5          1           0        1.368311    0.914000    0.526504
      6          1           0        1.368313   -0.001028   -1.054798
      7          1           0       -1.368200    0.912968   -0.528289
      8          1           0       -1.368202    0.001027    1.054796
 ---------------------------------------------------------------------

 Alpha  occ. eigenvalues --  -10.55251 -10.55245  -0.77994  -0.73490  -0.48265
 Alpha  occ. eigenvalues --   -0.48264  -0.45520  -0.45520  -0.30314
 Alpha virt. eigenvalues --    0.00570   0.02439   0.05586   0.05586   0.08157
 Alpha virt. eigenvalues --    0.08356   0.08356   0.09827   0.13242   0.18164
 Alpha virt. eigenvalues --    0.18164   0.22101   0.22102   0.24359   0.26531

  Beta  occ. eigenvalues --  -10.55251 -10.55245  -0.77994  -0.73490  -0.48265
  Beta  occ. eigenvalues --   -0.48264  -0.45520  -0.45520  -0.30314
  Beta virt. eigenvalues --    0.00570   0.02439   0.05586   0.05586   0.08157
  Beta virt. eigenvalues --    0.08356   0.08356   0.09827   0.13242   0.18164
  Beta virt. eigenvalues --    0.18164   0.22101   0.22102   0.24359   0.26531

 Mulliken charges and spin densities:
               1          2
     1  C   -0.505138   0.000000
     2  C   -0.505138  -0.000000
     3  H    0.168379   0.000000
     4  H    0.168379  -0.000000
     5  H    0.168380   0.000000
     6  H    0.168380   0.000000
     7  H    0.168379  -0.000000
     8  H    0.168379  -0.000000
 Sum of Mulliken charges =  -0.00000   0.00000

 Dipole moment (field-independent basis, Debye):
    X=             -0.0000    Y=             -0.0000    Z=             -0.0000  Tot=              0.0000
 Quadrupole moment (field-independent basis, Debye-Ang):
   XX=            -15.5504   YY=            -14.8327   ZZ=            -14.8328
   XY=             -0.0000   XZ=             -0.0000   YZ=             -0.0000

 Normal termination of Gaussian 16 at Tue Nov 19 12:14:57 2024.
