 Gaussian 16, Revision A.03,
 Gaussian 16:  ES64L-G16RevA.03 25-Dec-2016

 --------------------------------------------
 #p opt UM062X/6-311+G** nosymm int=superfine
 --------------------------------------------

 -------------------
 Title Card Required
 -------------------
 Symbolic Z-matrix:
 Charge = -1 Multiplicity = 2

 SCF Done:  E(UM062X) =  -51.8886443812     A.U. after   11 cycles
 SCF Done:  E(UM062X) =  -51.8929528540     A.U. after   10 cycles
 SCF Done:  E(UM062X) =  -51.8949556046     A.U. after   11 cycles
 SCF Done:  E(UM062X) =  -51.8949753874     A.U. after   11 cycles
 SCF Done:  E(UM062X) =  -51.8949700764     A.U. after   11 cycles
 SCF Done:  E(UM062X) =  -51.8949684913     A.U. after   12 cycles
 SCF Done:  E(UM062X) =  -51.8949748692     A.U. after   11 cycles
 SCF Done:  E(UM062X) =  -51.8949754458     A.U. after   10 cycles
 Optimization completed.
    -- Stationary point found.

                          Input orientation:
 ---------------------------------------------------------------------
 Center     Atomic      Atomic             Coordinates (Angstroms)
 Number     Number       Type             X           Y           Z
 ---------------------------------------------------------------------
      1          5           0       -1.472274    0.000000    0.000000
      2          5           0        1.472274    0.000000    0.000000
      3          1           0       -2.004561   -1.067143    0.000158
      4          1           0        2.004561    1.067143   -0.000357
      5          1           0       -2.004561    1.067143   -0.000319
      6          1           0        2.004561   -1.067143    0.000196
 ---------------------------------------------------------------------

 Alpha  occ. eigenvalues --   -6.88084  -6.88080  -0.37746  -0.36356  -0.23296
 Alpha  occ. eigenvalues --   -0.22637  -0.04135   0.01430
 Alpha virt. eigenvalues --    0.12735   0.14947   0.16502   0.18788   0.19138
 Alpha virt. eigenvalues --    0.20816   0.22359   0.22489   0.23841   0.25737
 Alpha virt. eigenvalues --    0.32470   0.34280   0.34535   0.41489   0.49353

  Beta  occ. eigenvalues --   -6.88048  -6.88046  -0.36161  -0.35057  -0.23195
  Beta  occ. eigenvalues --   -0.22599  -0.02878
  Beta virt. eigenvalues --    0.10743   0.13430   0.13747   0.14065   0.16091
  Beta virt. eigenvalues --    0.17351   0.18694   0.19592   0.21681   0.23068
  Beta virt. eigenvalues --    0.24314   0.31565   0.33374   0.34372   0.41177

 Mulliken charges and spin densities:
               1          2
     1  B   -0.421159   0.546001
     2  B   -0.421157   0.545980
     3  H   -0.039421  -0.022996
     4  H   -0.039421  -0.022995
     5  H   -0.039421  -0.022996
     6  H   -0.039421  -0.022995
 Sum of Mulliken charges =  -1.00000   1.00000

 Dipole moment (field-independent basis, Debye):
    X=              0.0000    Y=             -0.0000    Z=             -0.0001  Tot=              0.0001
 Quadrupole moment (field-independent basis, Debye-Ang):
   XX=            -32.5417   YY=            -23.5480   ZZ=            -25.9714
   XY=             -0.0000   XZ=             -0.0000   YZ=             -0.0006

 Normal termination of Gaussian 16 at Mon Apr 21 17:19:42 2025.
