 Gaussian 16, Revision A.03,
 Gaussian 16:  ES64L-G16RevA.03 25-Dec-2016

 ---------------------------------------------------
 #p UM062X/6-311+G** force int=superfine pop=saveNBO
 ---------------------------------------------------

 -------------------
 Title Card Required
 -------------------
 Symbolic Z-matrix:
 Charge =  0 Multiplicity = 1

                         Standard orientation:
 ---------------------------------------------------------------------
 Center     Atomic      Atomic             Coordinates (Angstroms)
 Number     Number       Type             X           Y           Z
 ---------------------------------------------------------------------
      1          8           0        0.000000    0.000000   -1.660091
      2         16           0        0.000000    0.000000    0.830045
 ---------------------------------------------------------------------

 SCF Done:  E(UM062X) =  -473.056564005     A.U. after   19 cycles

 Unable to determine electronic state:  an orbital has unidentified symmetry.
 Alpha  occ. eigenvalues --  -90.03557 -19.75908  -8.39063  -6.31125  -6.31076
 Alpha  occ. eigenvalues --   -6.30185  -1.04868  -0.81015  -0.43218  -0.41929
 Alpha  occ. eigenvalues --   -0.37179  -0.37129
 Alpha virt. eigenvalues --   -0.23403  -0.17981   0.02650   0.04748   0.05230
 Alpha virt. eigenvalues --    0.05612   0.18001   0.19937   0.20204   0.26420
 Alpha virt. eigenvalues --    0.32698   0.33605   0.34162   0.59010   0.74343

  Beta  occ. eigenvalues --  -90.03557 -19.75908  -8.39063  -6.31125  -6.31076
  Beta  occ. eigenvalues --   -6.30185  -1.04868  -0.81015  -0.43218  -0.41929
  Beta  occ. eigenvalues --   -0.37179  -0.37129
  Beta virt. eigenvalues --   -0.23403  -0.17981   0.02650   0.04748   0.05230
  Beta virt. eigenvalues --    0.05612   0.18001   0.19937   0.20204   0.26420
  Beta virt. eigenvalues --    0.32698   0.33605   0.34162   0.59010   0.74343

 Mulliken charges and spin densities:
               1          2
     1  O   -0.223206  -0.000000
     2  S    0.223206   0.000000
 Sum of Mulliken charges =  -0.00000   0.00000

 Dipole moment (field-independent basis, Debye):
    X=              0.0000    Y=              0.0000    Z=              2.6495  Tot=              2.6495
 Quadrupole moment (field-independent basis, Debye-Ang):
   XX=            -17.3157   YY=            -20.6906   ZZ=            -18.2874
   XY=              0.0000   XZ=              0.0000   YZ=              0.0000

 Summary of Natural Population Analysis:

                                       Natural Population
                Natural  -----------------------------------------------
    Atom  No    Charge         Core      Valence    Rydberg      Total
 -----------------------------------------------------------------------
      O    1   -0.14598      1.00000     3.14484    0.00114     4.14598
      S    2    0.14598      4.99999     2.85251    0.00152     7.85402
 =======================================================================
   * Total *   -0.00000      5.99999     5.99735    0.00266    12.00000

 Normal termination of Gaussian 16 at Mon Apr 21 19:57:40 2025.
