 Gaussian 16, Revision A.03,
 Gaussian 16:  ES64L-G16RevA.03 25-Dec-2016

 --------------------------------------------
 #p opt UM062X/6-311+G** nosymm int=superfine
 --------------------------------------------

 -------------------
 Title Card Required
 -------------------
 Symbolic Z-matrix:
 Charge = -1 Multiplicity = 2

 SCF Done:  E(UM062X) =  -53.1948348720     A.U. after   12 cycles
 SCF Done:  E(UM062X) =  -53.1996892264     A.U. after   11 cycles
 SCF Done:  E(UM062X) =  -53.2007565450     A.U. after   10 cycles
 SCF Done:  E(UM062X) =  -53.2007699498     A.U. after    8 cycles
 Optimization completed.
    -- Stationary point found.

                          Input orientation:
 ---------------------------------------------------------------------
 Center     Atomic      Atomic             Coordinates (Angstroms)
 Number     Number       Type             X           Y           Z
 ---------------------------------------------------------------------
      1          5           0       -2.315672    0.000000    0.000000
      2          5           0        2.315672    0.000000    0.000000
      3          1           0        2.367044   -1.197033   -0.000016
      4          1           0       -2.366758   -0.598518    1.036676
      5          1           0        2.366927    0.598536   -1.036658
      6          1           0        2.366689    0.598504    1.036686
      7          1           0       -2.367052    1.197032   -0.000001
      8          1           0       -2.366849   -0.598523   -1.036668
 ---------------------------------------------------------------------

 Alpha  occ. eigenvalues --   -6.85333  -6.85333  -0.40577  -0.40313  -0.22466
 Alpha  occ. eigenvalues --   -0.22466  -0.22362  -0.22362   0.01432
 Alpha virt. eigenvalues --    0.10075   0.16422   0.17518   0.17518   0.18042
 Alpha virt. eigenvalues --    0.18042   0.18348   0.23343   0.24024   0.32716
 Alpha virt. eigenvalues --    0.32716   0.33552   0.33553   0.34601   0.38480

  Beta  occ. eigenvalues --   -6.85296  -6.85296  -0.38925  -0.38742  -0.22321
  Beta  occ. eigenvalues --   -0.22321  -0.22193  -0.22193
  Beta virt. eigenvalues --    0.06158   0.12816   0.12965   0.14099   0.14099
  Beta virt. eigenvalues --    0.17461   0.17461   0.19686   0.22422   0.24614
  Beta virt. eigenvalues --    0.31673   0.31674   0.32139   0.32590   0.32591

 Mulliken charges and spin densities:
               1          2
     1  B   -0.362883   0.546248
     2  B   -0.362883   0.546248
     3  H   -0.045691  -0.015392
     4  H   -0.045711  -0.015428
     5  H   -0.045718  -0.015428
     6  H   -0.045709  -0.015428
     7  H   -0.045691  -0.015392
     8  H   -0.045715  -0.015429
 Sum of Mulliken charges =  -1.00000   1.00000

 Dipole moment (field-independent basis, Debye):
    X=              0.0000    Y=             -0.0000    Z=              0.0001  Tot=              0.0001
 Quadrupole moment (field-independent basis, Debye-Ang):
   XX=            -49.3486   YY=            -24.3734   ZZ=            -24.3735
   XY=             -0.0001   XZ=              0.0000   YZ=              0.0000

 Normal termination of Gaussian 16 at Mon Apr 21 16:58:10 2025.
