 Gaussian 16, Revision A.03,
 Gaussian 16:  ES64L-G16RevA.03 25-Dec-2016

 ---------------------------------------------------
 #p UM062X/6-311+G** force int=superfine pop=saveNBO
 ---------------------------------------------------

 -------------------
 Title Card Required
 -------------------
 Symbolic Z-matrix:
 Charge =  0 Multiplicity = 1

                         Standard orientation:
 ---------------------------------------------------------------------
 Center     Atomic      Atomic             Coordinates (Angstroms)
 Number     Number       Type             X           Y           Z
 ---------------------------------------------------------------------
      1         15           0        0.000000    0.000000    1.713495
      2         15           0        0.000000    0.000000   -1.713495
 ---------------------------------------------------------------------

 SCF Done:  E(UM062X) =  -682.351365263     A.U. after    9 cycles

 The electronic state is 1-SGG.
 Alpha  occ. eigenvalues --  -78.12192 -78.12192  -6.93751  -6.93751  -5.05048
 Alpha  occ. eigenvalues --   -5.05048  -5.05048  -5.05048  -5.05034  -5.05034
 Alpha  occ. eigenvalues --   -0.65101  -0.62503  -0.28998  -0.26079  -0.26079
 Alpha virt. eigenvalues --   -0.16499  -0.16499  -0.12940   0.02396   0.03260
 Alpha virt. eigenvalues --    0.04556   0.04556   0.06264   0.06438   0.06438
 Alpha virt. eigenvalues --    0.11041   0.29215   0.29627   0.29627   0.33239

  Beta  occ. eigenvalues --  -78.12192 -78.12192  -6.93751  -6.93751  -5.05048
  Beta  occ. eigenvalues --   -5.05048  -5.05048  -5.05048  -5.05034  -5.05034
  Beta  occ. eigenvalues --   -0.65101  -0.62503  -0.28998  -0.26079  -0.26079
  Beta virt. eigenvalues --   -0.16499  -0.16499  -0.12940   0.02396   0.03260
  Beta virt. eigenvalues --    0.04556   0.04556   0.06264   0.06438   0.06438
  Beta virt. eigenvalues --    0.11041   0.29215   0.29627   0.29627   0.33239

 Mulliken charges and spin densities:
               1          2
     1  P   -0.000000  -0.000000
     2  P   -0.000000  -0.000000
 Sum of Mulliken charges =  -0.00000  -0.00000

 Dipole moment (field-independent basis, Debye):
    X=             -0.0000    Y=             -0.0000    Z=              0.0000  Tot=              0.0000
 Quadrupole moment (field-independent basis, Debye-Ang):
   XX=            -29.4094   YY=            -29.4094   ZZ=            -24.3786
   XY=              0.0000   XZ=             -0.0000   YZ=              0.0000

 Summary of Natural Population Analysis:

                                       Natural Population
                Natural  -----------------------------------------------
    Atom  No    Charge         Core      Valence    Rydberg      Total
 -----------------------------------------------------------------------
      P    1   -0.00000      4.99999     2.49935    0.00066     7.50000
      P    2   -0.00000      4.99999     2.49935    0.00066     7.50000
 =======================================================================
   * Total *   -0.00000      9.99999     4.99870    0.00132    15.00000

 Normal termination of Gaussian 16 at Mon Apr 21 21:18:05 2025.
