 Gaussian 16, Revision A.03,
 Gaussian 16:  ES64L-G16RevA.03 25-Dec-2016

 --------------------------------------------
 #p opt UM062X/6-311+G** nosymm int=superfine
 --------------------------------------------

 -------------------
 Title Card Required
 -------------------
 Symbolic Z-matrix:
 Charge =  0 Multiplicity = 1

 SCF Done:  E(UM062X) =  -76.7516681411     A.U. after   10 cycles
 SCF Done:  E(UM062X) =  -76.8898156046     A.U. after    9 cycles
 SCF Done:  E(UM062X) =  -76.9345188005     A.U. after   10 cycles
 SCF Done:  E(UM062X) =  -76.9403261511     A.U. after    9 cycles
 SCF Done:  E(UM062X) =  -76.9403290933     A.U. after    7 cycles
 Optimization completed.
    -- Stationary point found.

                          Input orientation:
 ---------------------------------------------------------------------
 Center     Atomic      Atomic             Coordinates (Angstroms)
 Number     Number       Type             X           Y           Z
 ---------------------------------------------------------------------
      1          6           0       -0.442901    0.000000    0.000000
      2          6           0        0.442901    0.000000    0.000000
      3          1           0       -1.500906    0.000000   -0.000000
      4          1           0        1.500906    0.000000   -0.000000
 ---------------------------------------------------------------------

 Alpha  occ. eigenvalues --  -10.48282 -10.44661  -0.89408  -0.59791  -0.55795
 Alpha  occ. eigenvalues --   -0.43232  -0.43232
 Alpha virt. eigenvalues --    0.02913   0.03591   0.06961   0.06961   0.07968
 Alpha virt. eigenvalues --    0.07968   0.09684   0.17004   0.22842   0.23450
 Alpha virt. eigenvalues --    0.23450   0.25156   0.44069   0.48136   0.52534

  Beta  occ. eigenvalues --  -10.48282 -10.44661  -0.89408  -0.59791  -0.55795
  Beta  occ. eigenvalues --   -0.43232  -0.43232
  Beta virt. eigenvalues --    0.02913   0.03591   0.06961   0.06961   0.07968
  Beta virt. eigenvalues --    0.07968   0.09684   0.17004   0.22842   0.23450
  Beta virt. eigenvalues --    0.23450   0.25156   0.44069   0.48136   0.52534

 Mulliken charges and spin densities:
               1          2
     1  C   -0.109340   0.000000
     2  C   -0.109340  -0.000000
     3  H    0.109340   0.000000
     4  H    0.109340  -0.000000
 Sum of Mulliken charges =  -0.00000  -0.00000

 Dipole moment (field-independent basis, Debye):
    X=             -0.0000    Y=              0.0000    Z=             -0.0000  Tot=              0.0000
 Quadrupole moment (field-independent basis, Debye-Ang):
   XX=             -7.7877   YY=            -12.1021   ZZ=            -12.1021
   XY=             -0.0000   XZ=              0.0000   YZ=             -0.0000

 Normal termination of Gaussian 16 at Tue Dec  3 19:56:19 2024.
