 Gaussian 16, Revision A.03,
 Gaussian 16:  ES64L-G16RevA.03 25-Dec-2016

 --------------------------------------------
 #p opt UM062X/6-311+G** nosymm int=superfine
 --------------------------------------------

 -------------------
 Title Card Required
 -------------------
 Symbolic Z-matrix:
 Charge =  0 Multiplicity = 1

 SCF Done:  E(UM062X) =  -80.4133495236     A.U. after   16 cycles
 SCF Done:  E(UM062X) =  -80.4139229362     A.U. after   14 cycles
 SCF Done:  E(UM062X) =  -80.4150153033     A.U. after   17 cycles
 SCF Done:  E(UM062X) =  -80.4469668190     A.U. after   23 cycles
 SCF Done:  E(UM062X) =  -80.4689951318     A.U. after   17 cycles
 SCF Done:  E(UM062X) =  -80.4872952167     A.U. after   17 cycles
 SCF Done:  E(UM062X) =  -80.4897764751     A.U. after   13 cycles
 SCF Done:  E(UM062X) =  -80.4912859137     A.U. after   26 cycles
 SCF Done:  E(UM062X) =  -80.4927773211     A.U. after   17 cycles
 SCF Done:  E(UM062X) =  -80.4948011439     A.U. after   17 cycles
 SCF Done:  E(UM062X) =  -80.5041997006     A.U. after   18 cycles
 SCF Done:  E(UM062X) =  -80.5090645168     A.U. after   15 cycles
 SCF Done:  E(UM062X) =  -80.5105253516     A.U. after   18 cycles
 SCF Done:  E(UM062X) =  -80.5110453493     A.U. after   14 cycles
 SCF Done:  E(UM062X) =  -80.5111195456     A.U. after   14 cycles
 SCF Done:  E(UM062X) =  -80.5114483854     A.U. after   14 cycles
 SCF Done:  E(UM062X) =  -80.5114701187     A.U. after   12 cycles
 SCF Done:  E(UM062X) =  -80.5114716152     A.U. after   12 cycles
 SCF Done:  E(UM062X) =  -80.5114717715     A.U. after   11 cycles
 Optimization completed.
    -- Stationary point found.

                          Input orientation:
 ---------------------------------------------------------------------
 Center     Atomic      Atomic             Coordinates (Angstroms)
 Number     Number       Type             X           Y           Z
 ---------------------------------------------------------------------
      1          5           0       -1.094174   -0.005590    0.000000
      2          7           0        1.090610    0.003507    0.000000
      3          1           0       -2.265593   -0.169756    0.152717
      4          1           0        1.110508    0.754148   -0.714917
 ---------------------------------------------------------------------

 Alpha  occ. eigenvalues --  -14.77388  -7.20934  -0.84567  -0.60986  -0.41560
 Alpha  occ. eigenvalues --   -0.35149  -0.27336
 Alpha virt. eigenvalues --   -0.08453  -0.07599  -0.03136   0.00650   0.04001
 Alpha virt. eigenvalues --    0.04768   0.05417   0.13207   0.16164   0.18502
 Alpha virt. eigenvalues --    0.20099   0.21761   0.25812   0.35945   0.38351

  Beta  occ. eigenvalues --  -14.77388  -7.20933  -0.84567  -0.60986  -0.41560
  Beta  occ. eigenvalues --   -0.35149  -0.27337
  Beta virt. eigenvalues --   -0.08453  -0.07599  -0.03136   0.00650   0.04001
  Beta virt. eigenvalues --    0.04768   0.05417   0.13207   0.16164   0.18502
  Beta virt. eigenvalues --    0.20099   0.21761   0.25812   0.35945   0.38351

 Mulliken charges and spin densities:
               1          2
     1  B    0.149327   0.000023
     2  N   -0.398777  -0.000025
     3  H    0.071199   0.000001
     4  H    0.178251   0.000001
 Sum of Mulliken charges =  -0.00000  -0.00000

 Dipole moment (field-independent basis, Debye):
    X=             -4.3197    Y=              0.8353    Z=             -0.8117  Tot=              4.4740
 Quadrupole moment (field-independent basis, Debye-Ang):
   XX=            -10.8240   YY=            -13.7634   ZZ=            -13.9386
   XY=              1.4613   XZ=             -1.3687   YZ=             -1.6936

 Normal termination of Gaussian 16 at Mon Apr 21 18:01:21 2025.
