 Gaussian 16, Revision A.03,
 Gaussian 16:  ES64L-G16RevA.03 25-Dec-2016

 --------------------------------------------
 #p opt UM062X/6-311+G** nosymm int=superfine
 --------------------------------------------

 -------------------
 Title Card Required
 -------------------
 Symbolic Z-matrix:
 Charge =  1 Multiplicity = 2

 SCF Done:  E(UM062X) =  -580.876416630     A.U. after   14 cycles
 SCF Done:  E(UM062X) =  -580.883553335     A.U. after   12 cycles
 SCF Done:  E(UM062X) =  -580.885519551     A.U. after   11 cycles
 SCF Done:  E(UM062X) =  -580.885522036     A.U. after   10 cycles
 Optimization completed.
    -- Stationary point found.

                          Input orientation:
 ---------------------------------------------------------------------
 Center     Atomic      Atomic             Coordinates (Angstroms)
 Number     Number       Type             X           Y           Z
 ---------------------------------------------------------------------
      1         14           0       -1.941295    0.000000    0.000000
      2         14           0        1.941295    0.000000    0.000000
      3          1           0       -2.835786   -1.190953   -0.000236
      4          1           0        2.835786    1.190953    0.000794
      5          1           0       -2.835801    1.190942   -0.000381
      6          1           0        2.835801   -1.190941   -0.001412
 ---------------------------------------------------------------------

 Alpha  occ. eigenvalues --  -67.24590 -67.24590  -5.79079  -5.79077  -4.10351
 Alpha  occ. eigenvalues --   -4.10351  -4.10020  -4.10020  -4.09685  -4.09684
 Alpha  occ. eigenvalues --   -0.78781  -0.78387  -0.60451  -0.60346  -0.51426
 Alpha  occ. eigenvalues --   -0.46395
 Alpha virt. eigenvalues --   -0.27967  -0.26635  -0.13724  -0.12122  -0.09300
 Alpha virt. eigenvalues --   -0.08097  -0.07731  -0.07570  -0.06871  -0.06440
 Alpha virt. eigenvalues --   -0.06187  -0.05698  -0.05597  -0.03367   0.12640

  Beta  occ. eigenvalues --  -67.24237 -67.24237  -5.78800  -5.78799  -4.10245
  Beta  occ. eigenvalues --   -4.10244  -4.09568  -4.09568  -4.09236  -4.09235
  Beta  occ. eigenvalues --   -0.76952  -0.76406  -0.59273  -0.59148  -0.45658
  Beta virt. eigenvalues --   -0.31442  -0.26757  -0.25213  -0.12707  -0.11719
  Beta virt. eigenvalues --   -0.09409  -0.07624  -0.07522  -0.06538  -0.06534
  Beta virt. eigenvalues --   -0.06124  -0.05869  -0.05369  -0.04931  -0.02981

 Mulliken charges and spin densities:
               1          2
     1  Si   0.554564   0.384643
     2  Si   0.554564   0.384643
     3  H   -0.027282   0.057678
     4  H   -0.027282   0.057678
     5  H   -0.027282   0.057679
     6  H   -0.027282   0.057679
 Sum of Mulliken charges =   1.00000   1.00000

 Dipole moment (field-independent basis, Debye):
    X=              0.0000    Y=              0.0000    Z=             -0.0002  Tot=              0.0002
 Quadrupole moment (field-independent basis, Debye-Ang):
   XX=             -3.1453   YY=            -25.7687   ZZ=            -20.7879
   XY=             -0.0000   XZ=              0.0000   YZ=             -0.0022

 Normal termination of Gaussian 16 at Mon Apr 21 20:25:15 2025.
