 Gaussian 16, Revision A.03,
 Gaussian 16:  ES64L-G16RevA.03 25-Dec-2016

 --------------------------------------------
 #p opt UM062X/6-311+G** nosymm int=superfine
 --------------------------------------------

 -------------------
 Title Card Required
 -------------------
 Symbolic Z-matrix:
 Charge =  0 Multiplicity = 1

 SCF Done:  E(UM062X) =  -81.7066919886     A.U. after   23 cycles
 SCF Done:  E(UM062X) =  -81.7146505465     A.U. after   17 cycles
 SCF Done:  E(UM062X) =  -81.7208496148     A.U. after   29 cycles
 SCF Done:  E(UM062X) =  -81.7319274474     A.U. after   17 cycles
 SCF Done:  E(UM062X) =  -81.7418182302     A.U. after   17 cycles
 SCF Done:  E(UM062X) =  -81.7468298087     A.U. after   13 cycles
 SCF Done:  E(UM062X) =  -81.7457112476     A.U. after   15 cycles
 SCF Done:  E(UM062X) =  -81.7503570053     A.U. after   14 cycles
 SCF Done:  E(UM062X) =  -81.7510457370     A.U. after   13 cycles
 SCF Done:  E(UM062X) =  -81.7517710532     A.U. after   14 cycles
 SCF Done:  E(UM062X) =  -81.7519624233     A.U. after   11 cycles
 SCF Done:  E(UM062X) =  -81.7520445811     A.U. after   13 cycles
 SCF Done:  E(UM062X) =  -81.7520482546     A.U. after   10 cycles
 SCF Done:  E(UM062X) =  -81.7520490017     A.U. after   12 cycles
 Optimization completed.
    -- Stationary point found.

                          Input orientation:
 ---------------------------------------------------------------------
 Center     Atomic      Atomic             Coordinates (Angstroms)
 Number     Number       Type             X           Y           Z
 ---------------------------------------------------------------------
      1          5           0       -1.695399    0.000000    0.000000
      2          7           0        1.695399    0.000000    0.000000
      3          1           0       -2.040513   -1.119586   -0.024620
      4          1           0        1.702034    0.803149    0.636891
      5          1           0       -2.040514    1.119576   -0.025064
      6          1           0        1.702034   -0.802861    0.637253
 ---------------------------------------------------------------------

 Alpha  occ. eigenvalues --  -14.71816  -7.18138  -0.87437  -0.62758  -0.51306
 Alpha  occ. eigenvalues --   -0.48120  -0.33371  -0.24357
 Alpha virt. eigenvalues --   -0.09779  -0.08511   0.00809   0.02798   0.04153
 Alpha virt. eigenvalues --    0.05071   0.09715   0.11897   0.13644   0.17400
 Alpha virt. eigenvalues --    0.20269   0.20787   0.21606   0.28567   0.32484

  Beta  occ. eigenvalues --  -14.71816  -7.18138  -0.87437  -0.62758  -0.51306
  Beta  occ. eigenvalues --   -0.48120  -0.33371  -0.24357
  Beta virt. eigenvalues --   -0.09779  -0.08511   0.00809   0.02798   0.04153
  Beta virt. eigenvalues --    0.05071   0.09715   0.11897   0.13644   0.17400
  Beta virt. eigenvalues --    0.20269   0.20787   0.21606   0.28567   0.32484

 Mulliken charges and spin densities:
               1          2
     1  B    0.165413   0.000000
     2  N   -0.707897  -0.000000
     3  H    0.064100   0.000000
     4  H    0.207142   0.000000
     5  H    0.064100   0.000000
     6  H    0.207142   0.000000
 Sum of Mulliken charges =  -0.00000  -0.00000

 Dipole moment (field-independent basis, Debye):
    X=             -4.9201    Y=              0.0004    Z=              1.8450  Tot=              5.2547
 Quadrupole moment (field-independent basis, Debye-Ang):
   XX=            -14.0617   YY=            -13.4349   ZZ=            -14.5544
   XY=              0.0008   XZ=              3.4616   YZ=             -0.0003

 Normal termination of Gaussian 16 at Mon Apr 21 17:52:53 2025.
