 Gaussian 16, Revision A.03,
 Gaussian 16:  ES64L-G16RevA.03 25-Dec-2016

 --------------------------------------------
 #p opt UM062X/6-311+G** nosymm int=superfine
 --------------------------------------------

 -------------------
 Title Card Required
 -------------------
 Symbolic Z-matrix:
 Charge =  0 Multiplicity = 1

 SCF Done:  E(UM062X) =  -94.5991536338     A.U. after   11 cycles
 SCF Done:  E(UM062X) =  -94.6100736958     A.U. after   11 cycles
 SCF Done:  E(UM062X) =  -94.6101759788     A.U. after   10 cycles
 SCF Done:  E(UM062X) =  -94.6103886110     A.U. after   10 cycles
 SCF Done:  E(UM062X) =  -94.6103949311     A.U. after    9 cycles
 Optimization completed.
    -- Stationary point found.

                          Input orientation:
 ---------------------------------------------------------------------
 Center     Atomic      Atomic             Coordinates (Angstroms)
 Number     Number       Type             X           Y           Z
 ---------------------------------------------------------------------
      1          6           0       -0.613529    0.082947    0.003329
      2          7           0        0.605275    0.413383   -0.031175
      3          1           0       -0.976964   -0.948232    0.050620
      4          1           0        1.204608   -0.413887   -0.008748
      5          1           0       -1.372050    0.865928   -0.014311
 ---------------------------------------------------------------------

 Alpha  occ. eigenvalues --  -14.74964 -10.58917  -1.01969  -0.71055  -0.58087
 Alpha  occ. eigenvalues --   -0.50333  -0.40355  -0.34225
 Alpha virt. eigenvalues --    0.01165   0.01770   0.03774   0.04998   0.07663
 Alpha virt. eigenvalues --    0.13167   0.16312   0.16677   0.18588   0.21280
 Alpha virt. eigenvalues --    0.25261   0.26109   0.36295   0.48968   0.51130

  Beta  occ. eigenvalues --  -14.74964 -10.58917  -1.01969  -0.71055  -0.58087
  Beta  occ. eigenvalues --   -0.50333  -0.40355  -0.34225
  Beta virt. eigenvalues --    0.01165   0.01770   0.03774   0.04998   0.07663
  Beta virt. eigenvalues --    0.13167   0.16312   0.16677   0.18588   0.21280
  Beta virt. eigenvalues --    0.25261   0.26109   0.36295   0.48968   0.51130

 Mulliken charges and spin densities:
               1          2
     1  C   -0.196390   0.000000
     2  N   -0.283013  -0.000000
     3  H    0.127553  -0.000000
     4  H    0.201594   0.000000
     5  H    0.150256   0.000000
 Sum of Mulliken charges =  -0.00000  -0.00000

 Dipole moment (field-independent basis, Debye):
    X=             -1.1274    Y=             -1.8887    Z=              0.0949  Tot=              2.2017
 Quadrupole moment (field-independent basis, Debye-Ang):
   XX=            -11.6462   YY=            -13.5971   ZZ=            -13.8045
   XY=             -2.2915   XZ=              0.0579   YZ=              0.0399

 Normal termination of Gaussian 16 at Wed Apr 16 02:20:06 2025.
