 Gaussian 16, Revision A.03,
 Gaussian 16:  ES64L-G16RevA.03 25-Dec-2016

 --------------------------------------------
 #p opt UM062X/6-311+G** nosymm int=superfine
 --------------------------------------------

 -------------------
 Title Card Required
 -------------------
 Symbolic Z-matrix:
 Charge =  1 Multiplicity = 2

 SCF Done:  E(UM062X) =  -80.2613599868     A.U. after   15 cycles
 SCF Done:  E(UM062X) =  -80.2614697032     A.U. after   11 cycles
 Optimization completed.
    -- Stationary point found.

                          Input orientation:
 ---------------------------------------------------------------------
 Center     Atomic      Atomic             Coordinates (Angstroms)
 Number     Number       Type             X           Y           Z
 ---------------------------------------------------------------------
      1          5           0       -0.877734    0.000000    0.000000
      2          7           0        0.877734    0.000000    0.000000
      3          1           0       -2.057196    0.000581   -0.000000
      4          1           0        1.903979    0.001195    0.000000
 ---------------------------------------------------------------------

 Alpha  occ. eigenvalues --  -15.09369  -7.52939  -1.20306  -0.88708  -0.81829
 Alpha  occ. eigenvalues --   -0.67548  -0.63537
 Alpha virt. eigenvalues --   -0.31455  -0.30440  -0.27080  -0.14307  -0.11001
 Alpha virt. eigenvalues --   -0.10159  -0.09756  -0.09322  -0.01642  -0.01376
 Alpha virt. eigenvalues --    0.04074   0.04957   0.08608   0.16863   0.17531

  Beta  occ. eigenvalues --  -15.07973  -7.53063  -1.12672  -0.88215  -0.80370
  Beta  occ. eigenvalues --   -0.58274
  Beta virt. eigenvalues --   -0.38392  -0.31158  -0.26579  -0.26493  -0.14291
  Beta virt. eigenvalues --   -0.11102  -0.09888  -0.09738  -0.09116  -0.01505
  Beta virt. eigenvalues --   -0.00976   0.02440   0.04711   0.09232   0.16431

 Mulliken charges and spin densities:
               1          2
     1  B    0.658455  -0.137562
     2  N   -0.293505   1.178105
     3  H    0.219388  -0.008014
     4  H    0.415662  -0.032528
 Sum of Mulliken charges =   1.00000   1.00000

 Dipole moment (field-independent basis, Debye):
    X=             -1.8453    Y=              0.0017    Z=              0.0000  Tot=              1.8453
 Quadrupole moment (field-independent basis, Debye-Ang):
   XX=              1.8932   YY=             -9.8466   ZZ=            -11.8704
   XY=              0.0040   XZ=              0.0000   YZ=             -0.0000

 Normal termination of Gaussian 16 at Mon Apr 21 17:56:04 2025.
