 Gaussian 16, Revision A.03,
 Gaussian 16:  ES64L-G16RevA.03 25-Dec-2016

 ---------------------------------------------------
 #p UM062X/6-311+G** force int=superfine pop=saveNBO
 ---------------------------------------------------

 -------------------
 Title Card Required
 -------------------
 Symbolic Z-matrix:
 Charge =  0 Multiplicity = 1

                         Standard orientation:
 ---------------------------------------------------------------------
 Center     Atomic      Atomic             Coordinates (Angstroms)
 Number     Number       Type             X           Y           Z
 ---------------------------------------------------------------------
      1          6           0        0.706736   -0.000000    0.017992
      2          7           0       -0.747861   -0.000000   -0.119546
      3          1           0       -1.153184    0.814731    0.325030
      4          1           0        1.113069   -0.877952   -0.486516
      5          1           0       -1.153187   -0.814730    0.325030
      6          1           0        1.113068    0.877957   -0.486508
      7          1           0        1.074846   -0.000005    1.051837
 ---------------------------------------------------------------------

 SCF Done:  E(UM062X) =  -95.8347343406     A.U. after   11 cycles

 The electronic state is 1-A.
 Alpha  occ. eigenvalues --  -14.72341 -10.55089  -0.98071  -0.74957  -0.56410
 Alpha  occ. eigenvalues --   -0.50910  -0.47014  -0.43133  -0.30458
 Alpha virt. eigenvalues --    0.01500   0.04004   0.05005   0.05908   0.11209
 Alpha virt. eigenvalues --    0.13839   0.16105   0.18574   0.19637   0.21664
 Alpha virt. eigenvalues --    0.21769   0.23540   0.27285   0.29575   0.43304

  Beta  occ. eigenvalues --  -14.72341 -10.55089  -0.98071  -0.74957  -0.56410
  Beta  occ. eigenvalues --   -0.50910  -0.47014  -0.43133  -0.30458
  Beta virt. eigenvalues --    0.01500   0.04004   0.05005   0.05908   0.11209
  Beta virt. eigenvalues --    0.13839   0.16105   0.18574   0.19637   0.21664
  Beta virt. eigenvalues --    0.21769   0.23540   0.27285   0.29575   0.43304

 Mulliken charges and spin densities:
               1          2
     1  C   -0.403935   0.000000
     2  N   -0.499808  -0.000000
     3  H    0.233639  -0.000000
     4  H    0.151706  -0.000000
     5  H    0.233640   0.000000
     6  H    0.151706  -0.000000
     7  H    0.133052  -0.000000
 Sum of Mulliken charges =  -0.00000  -0.00000

 Dipole moment (field-independent basis, Debye):
    X=              0.3237    Y=              0.0000    Z=              1.4105  Tot=              1.4471
 Quadrupole moment (field-independent basis, Debye-Ang):
   XX=            -14.0275   YY=            -12.6386   ZZ=            -15.7430
   XY=              0.0000   XZ=             -2.1644   YZ=              0.0000

 Summary of Natural Population Analysis:

                                       Natural Population
                Natural  -----------------------------------------------
    Atom  No    Charge         Core      Valence    Rydberg      Total
 -----------------------------------------------------------------------
      C    1   -0.18777      0.99974     2.18093    0.00710     3.18777
      N    2   -0.42766      0.99980     2.91723    0.01063     3.92766
      H    3    0.17430      0.00000     0.32442    0.00128     0.32570
      H    4    0.09350      0.00000     0.40584    0.00066     0.40650
      H    5    0.17430      0.00000     0.32442    0.00128     0.32570
      H    6    0.09350      0.00000     0.40584    0.00066     0.40650
      H    7    0.07984      0.00000     0.41920    0.00097     0.42016
 =======================================================================
   * Total *    0.00000      1.99954     6.97789    0.02257     9.00000

 Optimization completed.
    -- Stationary point found.

 1\1\GINC-NODE01\Force\UM062X\6-311+G(d,p)\C1H5N1\SZHAO\16-Apr-2025\0\\
 #p UM062X/6-311+G** force int=superfine pop=saveNBO\\Title Card Requir
 ed\\0,1\C,-0.73054223,0.,0.\N,0.73054223,0.,0.\H,1.09221604,-0.9459985
 4,0.\H,-1.08757944,1.03081716,-0.01933913\H,1.09221839,0.45735611,0.82
 809214\H,-1.08757998,-0.48144368,-0.911685\H,-1.19433799,-0.50545285,0
 .8565933\\Version=ES64L-G16RevA.03\State=1-A\HF=-95.8347343\S2=0.\S2-1
 =0.\S2A=0.\RMSD=2.299e-09\RMSF=6.313e-05\Dipole=-0.1790253,-0.2746679,
 0.4654746\Quadrupole=-0.231946,0.598255,-0.366309,-0.8640244,1.4642557

 Normal termination of Gaussian 16 at Wed Apr 16 02:13:50 2025.
