 Gaussian 16, Revision A.03,
 Gaussian 16:  ES64L-G16RevA.03 25-Dec-2016

 ---------------------------------------
 #p UM062X/6-311+G** force int=superfine
 ---------------------------------------

 -------------------
 Title Card Required
 -------------------
 Symbolic Z-matrix:
 Charge =  0 Multiplicity = 1

                         Standard orientation:
 ---------------------------------------------------------------------
 Center     Atomic      Atomic             Coordinates (Angstroms)
 Number     Number       Type             X           Y           Z
 ---------------------------------------------------------------------
      1          6           0        0.000000    0.477268    0.000000
      2          6           0       -0.000000   -0.477268    0.000000
      3          1           0       -0.881714    1.131573    0.000000
      4          1           0        0.881920    1.131485    0.000000
      5          1           0        0.881714   -1.131573    0.000000
      6          1           0       -0.881920   -1.131485    0.000000
 ---------------------------------------------------------------------

 SCF Done:  E(UM062X) =  -78.2287046816     A.U. after    9 cycles

 The electronic state is 1-AG.
 Alpha  occ. eigenvalues --  -10.49155 -10.47189  -0.94819  -0.62446  -0.58829
 Alpha  occ. eigenvalues --   -0.53213  -0.43279  -0.33711
 Alpha virt. eigenvalues --    0.03270   0.04199   0.04266   0.06578   0.07266
 Alpha virt. eigenvalues --    0.08902   0.09840   0.16101   0.17545   0.18333
 Alpha virt. eigenvalues --    0.20054   0.25024   0.34785   0.42040   0.42876

  Beta  occ. eigenvalues --  -10.49155 -10.47189  -0.94819  -0.62446  -0.58829
  Beta  occ. eigenvalues --   -0.53213  -0.43279  -0.33711
  Beta virt. eigenvalues --    0.03270   0.04199   0.04266   0.06578   0.07266
  Beta virt. eigenvalues --    0.08902   0.09840   0.16101   0.17545   0.18333
  Beta virt. eigenvalues --    0.20054   0.25024   0.34785   0.42040   0.42876

 Mulliken charges and spin densities:
               1          2
     1  C   -0.253068  -0.000000
     2  C   -0.253068  -0.000000
     3  H    0.126549   0.000000
     4  H    0.126518  -0.000000
     5  H    0.126549   0.000000
     6  H    0.126518  -0.000000
 Sum of Mulliken charges =  -0.00000  -0.00000

 Dipole moment (field-independent basis, Debye):
    X=             -0.0000    Y=              0.0000    Z=              0.0000  Tot=              0.0000
 Quadrupole moment (field-independent basis, Debye-Ang):
   XX=            -12.4031   YY=            -12.5461   ZZ=            -14.1231
   XY=             -0.0005   XZ=              0.0000   YZ=              0.0000

 Normal termination of Gaussian 16 at Tue Nov 19 11:41:08 2024.
