 Gaussian 16, Revision A.03,
 Gaussian 16:  ES64L-G16RevA.03 25-Dec-2016

 --------------------------------------------
 #p opt UM062X/6-311+G** nosymm int=superfine
 --------------------------------------------

 -------------------
 Title Card Required
 -------------------
 Symbolic Z-matrix:
 Charge =  1 Multiplicity = 2

 SCF Done:  E(UM062X) =  -76.5805853439     A.U. after  118 cycles
 SCF Done:  E(UM062X) =  -76.5811178713     A.U. after   29 cycles
 SCF Done:  E(UM062X) =  -76.5811188903     A.U. after   14 cycles
 Optimization completed.
    -- Stationary point found.

                          Input orientation:
 ---------------------------------------------------------------------
 Center     Atomic      Atomic             Coordinates (Angstroms)
 Number     Number       Type             X           Y           Z
 ---------------------------------------------------------------------
      1          6           0       -1.307160    0.000000    0.000000
      2          6           0        1.307160    0.000000    0.000000
      3          1           0       -2.429956   -0.000002   -0.000000
      4          1           0        2.429955    0.000002   -0.000000
 ---------------------------------------------------------------------

 Alpha  occ. eigenvalues --  -10.95456 -10.95454  -0.99728  -0.98521  -0.69335
 Alpha  occ. eigenvalues --   -0.59882  -0.51789
 Alpha virt. eigenvalues --   -0.39377  -0.35798  -0.33314  -0.13247  -0.11712
 Alpha virt. eigenvalues --   -0.08307  -0.07767  -0.06620  -0.05285  -0.04897
 Alpha virt. eigenvalues --   -0.01035   0.01689   0.05901   0.25126   0.31734

  Beta  occ. eigenvalues --  -10.95076 -10.95076  -0.97266  -0.96386  -0.68065
  Beta  occ. eigenvalues --   -0.58371
  Beta virt. eigenvalues --   -0.34189  -0.32609  -0.31441  -0.29782  -0.13892
  Beta virt. eigenvalues --   -0.11665  -0.07846  -0.07364  -0.07085  -0.04600
  Beta virt. eigenvalues --   -0.03702  -0.01791   0.03357   0.07036   0.24355

 Mulliken charges and spin densities:
               1          2
     1  C    0.249469   0.515696
     2  C    0.249469   0.515696
     3  H    0.250531  -0.015696
     4  H    0.250531  -0.015696
 Sum of Mulliken charges =   1.00000   1.00000

 Dipole moment (field-independent basis, Debye):
    X=             -0.0000    Y=             -0.0000    Z=             -0.0000  Tot=              0.0000
 Quadrupole moment (field-independent basis, Debye-Ang):
   XX=              7.9318   YY=            -11.4208   ZZ=             -9.6499
   XY=              0.0000   XZ=              0.0000   YZ=             -0.5499

 Normal termination of Gaussian 16 at Tue Dec  3 11:26:14 2024.
