 Gaussian 16, Revision A.03,
 Gaussian 16:  ES64L-G16RevA.03 25-Dec-2016

 ---------------------------------------------------------
 #p opt UM062X/6-311+G** nosymm int=superfine SCF=NoVarAcc
 ---------------------------------------------------------

 -------------------
 Title Card Required
 -------------------
 Symbolic Z-matrix:
 Charge =  0 Multiplicity = 1

 SCF Done:  E(UM062X) =  -76.9390677700     A.U. after   88 cycles
 SCF Done:  E(UM062X) =  -76.9390842222     A.U. after    8 cycles
 Optimization completed.
    -- Stationary point found.

                          Input orientation:
 ---------------------------------------------------------------------
 Center     Atomic      Atomic             Coordinates (Angstroms)
 Number     Number       Type             X           Y           Z
 ---------------------------------------------------------------------
      1          6           0       -8.932625    0.000000    0.000000
      2          6           0        8.932625    0.000000    0.000000
      3          1           0      -10.051770   -0.000006    0.000006
      4          1           0       10.051770    0.000004   -0.000004
 ---------------------------------------------------------------------

 Alpha  occ. eigenvalues --  -10.63976 -10.63004  -0.73308  -0.68750  -0.38732
 Alpha  occ. eigenvalues --   -0.35891  -0.31184
 Alpha virt. eigenvalues --   -0.09362  -0.07308  -0.04701   0.02853   0.03811
 Alpha virt. eigenvalues --    0.08262   0.08352   0.08516   0.08553   0.09132
 Alpha virt. eigenvalues --    0.10750   0.17671   0.19122   0.45375   0.46215

  Beta  occ. eigenvalues --  -10.63976 -10.63004  -0.73308  -0.68750  -0.38732
  Beta  occ. eigenvalues --   -0.35891  -0.31184
  Beta virt. eigenvalues --   -0.09362  -0.07308  -0.04701   0.02853   0.03811
  Beta virt. eigenvalues --    0.08262   0.08352   0.08516   0.08553   0.09132
  Beta virt. eigenvalues --    0.10750   0.17671   0.19122   0.45375   0.46215

 Mulliken charges and spin densities:
               1          2
     1  C   -0.118623  -1.032496
     2  C   -0.118623   1.032496
     3  H    0.118623   0.032496
     4  H    0.118623  -0.032496
 Sum of Mulliken charges =  -0.00000   0.00000

 Dipole moment (field-independent basis, Debye):
    X=              0.0000    Y=             -0.0000    Z=              0.0000  Tot=              0.0000
 Quadrupole moment (field-independent basis, Debye-Ang):
   XX=             44.2283   YY=            -13.6035   ZZ=            -13.6035
   XY=              0.0001   XZ=             -0.0001   YZ=              0.0000

 Normal termination of Gaussian 16 at Tue Dec  3 20:23:29 2024.
