 Gaussian 16, Revision A.03,
 Gaussian 16:  ES64L-G16RevA.03 25-Dec-2016

 ---------------------------------------------------
 #p UM062X/6-311+G** force int=superfine pop=saveNBO
 ---------------------------------------------------

 -------------------
 Title Card Required
 -------------------
 Symbolic Z-matrix:
 Charge =  0 Multiplicity = 1

                         Standard orientation:
 ---------------------------------------------------------------------
 Center     Atomic      Atomic             Coordinates (Angstroms)
 Number     Number       Type             X           Y           Z
 ---------------------------------------------------------------------
      1         15           0        0.000000    0.000000    1.963495
      2         15           0        0.000000    0.000000   -1.963495
 ---------------------------------------------------------------------

 SCF Done:  E(UM062X) =  -682.294587335     A.U. after    9 cycles

 The electronic state is 1-SGG.
 Alpha  occ. eigenvalues --  -78.12076 -78.12076  -6.93702  -6.93702  -5.04997
 Alpha  occ. eigenvalues --   -5.04997  -5.04987  -5.04987  -5.04987  -5.04987
 Alpha  occ. eigenvalues --   -0.64447  -0.63113  -0.27251  -0.25235  -0.25235
 Alpha virt. eigenvalues --   -0.17442  -0.17442  -0.15241   0.02338   0.03281
 Alpha virt. eigenvalues --    0.04472   0.04472   0.06366   0.06366   0.06389
 Alpha virt. eigenvalues --    0.10537   0.29678   0.29678   0.30984   0.31374

  Beta  occ. eigenvalues --  -78.12076 -78.12076  -6.93702  -6.93702  -5.04997
  Beta  occ. eigenvalues --   -5.04997  -5.04987  -5.04987  -5.04987  -5.04987
  Beta  occ. eigenvalues --   -0.64447  -0.63113  -0.27251  -0.25235  -0.25235
  Beta virt. eigenvalues --   -0.17442  -0.17442  -0.15241   0.02338   0.03281
  Beta virt. eigenvalues --    0.04472   0.04472   0.06366   0.06366   0.06389
  Beta virt. eigenvalues --    0.10537   0.29678   0.29678   0.30984   0.31374

 Mulliken charges and spin densities:
               1          2
     1  P   -0.000000   0.000000
     2  P   -0.000000   0.000000
 Sum of Mulliken charges =  -0.00000   0.00000

 Dipole moment (field-independent basis, Debye):
    X=             -0.0000    Y=              0.0000    Z=              0.0000  Tot=              0.0000
 Quadrupole moment (field-independent basis, Debye-Ang):
   XX=            -29.4471   YY=            -29.4471   ZZ=            -24.2546
   XY=              0.0000   XZ=             -0.0000   YZ=              0.0000

 Summary of Natural Population Analysis:

                                       Natural Population
                Natural  -----------------------------------------------
    Atom  No    Charge         Core      Valence    Rydberg      Total
 -----------------------------------------------------------------------
      P    1   -0.00000      5.00000     2.49939    0.00061     7.50000
      P    2   -0.00000      5.00000     2.49939    0.00061     7.50000
 =======================================================================
   * Total *   -0.00000      9.99999     4.99878    0.00123    15.00000

 Normal termination of Gaussian 16 at Mon Apr 21 21:16:46 2025.
