 Gaussian 16, Revision A.03,
 Gaussian 16:  ES64L-G16RevA.03 25-Dec-2016

 --------------------------------------------
 #p opt UM062X/6-311+G** nosymm int=superfine
 --------------------------------------------

 -------------------
 Title Card Required
 -------------------
 Symbolic Z-matrix:
 Charge =  0 Multiplicity = 1

 SCF Done:  E(UM062X) =  -95.5944977206     A.U. after   14 cycles
 SCF Done:  E(UM062X) =  -95.6105407286     A.U. after   12 cycles
 SCF Done:  E(UM062X) =  -95.6220065220     A.U. after   14 cycles
 SCF Done:  E(UM062X) =  -95.6224562318     A.U. after   11 cycles
 SCF Done:  E(UM062X) =  -95.6227772851     A.U. after   13 cycles
 SCF Done:  E(UM062X) =  -95.6228772268     A.U. after   12 cycles
 SCF Done:  E(UM062X) =  -95.6228961832     A.U. after   12 cycles
 SCF Done:  E(UM062X) =  -95.6229003161     A.U. after   10 cycles
 SCF Done:  E(UM062X) =  -95.6229017176     A.U. after   11 cycles
 SCF Done:  E(UM062X) =  -95.6229034872     A.U. after    9 cycles
 SCF Done:  E(UM062X) =  -95.6229045560     A.U. after   11 cycles
 SCF Done:  E(UM062X) =  -95.6229047677     A.U. after    9 cycles
 Optimization completed.
    -- Stationary point found.

                          Input orientation:
 ---------------------------------------------------------------------
 Center     Atomic      Atomic             Coordinates (Angstroms)
 Number     Number       Type             X           Y           Z
 ---------------------------------------------------------------------
      1          6           0       -1.730542    0.000000    0.000000
      2          7           0        1.730542    0.000000    0.000000
      3          1           0        1.685445   -1.015336    0.139587
      4          1           0       -1.733933    1.080352    0.009397
      5          1           0        1.685675    0.368317    0.956431
      6          1           0       -1.733684   -0.524374   -0.944605
      7          1           0       -1.861480   -0.548206    0.922125
 ---------------------------------------------------------------------

 Alpha  occ. eigenvalues --  -14.74931 -10.61975  -0.90190  -0.80745  -0.52930
 Alpha  occ. eigenvalues --   -0.52729  -0.50672  -0.35948  -0.25592
 Alpha virt. eigenvalues --   -0.13405   0.01746   0.04686   0.05077   0.07045
 Alpha virt. eigenvalues --    0.09953   0.13129   0.15910   0.16753   0.17011
 Alpha virt. eigenvalues --    0.18634   0.20711   0.22206   0.27976   0.41154

  Beta  occ. eigenvalues --  -14.74931 -10.61975  -0.90190  -0.80745  -0.52930
  Beta  occ. eigenvalues --   -0.52729  -0.50672  -0.35948  -0.25592
  Beta virt. eigenvalues --   -0.13405   0.01746   0.04686   0.05077   0.07045
  Beta virt. eigenvalues --    0.09953   0.13129   0.15910   0.16753   0.17011
  Beta virt. eigenvalues --    0.18634   0.20711   0.22206   0.27976   0.41154

 Mulliken charges and spin densities:
               1          2
     1  C   -0.431403   0.000005
     2  N   -0.583452  -0.000005
     3  H    0.212301   0.000000
     4  H    0.200962  -0.000000
     5  H    0.212301   0.000000
     6  H    0.201020  -0.000000
     7  H    0.188270  -0.000000
 Sum of Mulliken charges =  -0.00000  -0.00000

 Dipole moment (field-independent basis, Debye):
    X=             -3.1758    Y=             -0.9919    Z=              1.6802  Tot=              3.7273
 Quadrupole moment (field-independent basis, Debye-Ang):
   XX=            -15.5141   YY=            -13.4252   ZZ=            -14.2268
   XY=             -1.7879   XZ=              3.0296   YZ=              0.7266

 Normal termination of Gaussian 16 at Mon Apr 21 18:12:32 2025.
