 Gaussian 16, Revision A.03,
 Gaussian 16:  ES64L-G16RevA.03 25-Dec-2016

 ---------------------------------------------------
 #p UM062X/6-311+G** force int=superfine pop=saveNBO
 ---------------------------------------------------

 -------------------
 Title Card Required
 -------------------
 Symbolic Z-matrix:
 Charge =  0 Multiplicity = 1

                         Standard orientation:
 ---------------------------------------------------------------------
 Center     Atomic      Atomic             Coordinates (Angstroms)
 Number     Number       Type             X           Y           Z
 ---------------------------------------------------------------------
      1         16           0        0.000000    0.000000    2.300200
      2         16           0        0.000000    0.000000   -2.300200
 ---------------------------------------------------------------------

 SCF Done:  E(UM062X) =  -796.007958833     A.U. after    9 cycles

 Unable to determine electronic state:  partially filled degenerate orbitals.
 Alpha  occ. eigenvalues --  -89.98418 -89.98418  -8.34263  -8.34263  -6.26287
 Alpha  occ. eigenvalues --   -6.26287  -6.26271  -6.26271  -6.25452  -6.25452
 Alpha  occ. eigenvalues --   -0.77805  -0.77450  -0.34658  -0.34487  -0.31177
 Alpha  occ. eigenvalues --   -0.30462
 Alpha virt. eigenvalues --   -0.24229  -0.23472   0.02829   0.03956   0.04604
 Alpha virt. eigenvalues --    0.05006   0.06802   0.06909   0.07355   0.11658
 Alpha virt. eigenvalues --    0.30439   0.33218   0.34041   0.35070   0.35904

  Beta  occ. eigenvalues --  -89.98418 -89.98418  -8.34263  -8.34263  -6.26287
  Beta  occ. eigenvalues --   -6.26287  -6.26271  -6.26271  -6.25452  -6.25452
  Beta  occ. eigenvalues --   -0.77805  -0.77450  -0.34658  -0.34487  -0.31177
  Beta  occ. eigenvalues --   -0.30462
  Beta virt. eigenvalues --   -0.24229  -0.23472   0.02829   0.03956   0.04604
  Beta virt. eigenvalues --    0.05006   0.06802   0.06909   0.07355   0.11658
  Beta virt. eigenvalues --    0.30439   0.33218   0.34041   0.35070   0.35904

 Mulliken charges and spin densities:
               1          2
     1  S   -0.000000  -0.000000
     2  S   -0.000000  -0.000000
 Sum of Mulliken charges =  -0.00000  -0.00000

 Dipole moment (field-independent basis, Debye):
    X=             -0.0000    Y=              0.0000    Z=             -0.0000  Tot=              0.0000
 Quadrupole moment (field-independent basis, Debye-Ang):
   XX=            -30.4091   YY=            -25.3276   ZZ=            -23.0986
   XY=              0.0000   XZ=             -0.0000   YZ=              0.0000

 Summary of Natural Population Analysis:

                                       Natural Population
                Natural  -----------------------------------------------
    Atom  No    Charge         Core      Valence    Rydberg      Total
 -----------------------------------------------------------------------
      S    1   -0.00000      5.00000     2.99944    0.00057     8.00000
      S    2   -0.00000      5.00000     2.99944    0.00057     8.00000
 =======================================================================
   * Total *   -0.00000      9.99999     5.99887    0.00113    16.00000

 Normal termination of Gaussian 16 at Mon Apr 21 20:09:31 2025.
