 Gaussian 16, Revision A.03,
 Gaussian 16:  ES64L-G16RevA.03 25-Dec-2016

 --------------------------------------------
 #p opt UM062X/6-311+G** nosymm int=superfine
 --------------------------------------------

 -------------------
 Title Card Required
 -------------------
 Symbolic Z-matrix:
 Charge =  0 Multiplicity = 1

 SCF Done:  E(UM062X) =  -94.5010941367     A.U. after   11 cycles
 SCF Done:  E(UM062X) =  -94.5063114559     A.U. after   11 cycles
 SCF Done:  E(UM062X) =  -94.5065920414     A.U. after   10 cycles
 SCF Done:  E(UM062X) =  -94.4982138612     A.U. after   12 cycles
 SCF Done:  E(UM062X) =  -94.5065656503     A.U. after   10 cycles
 SCF Done:  E(UM062X) =  -94.5066163906     A.U. after    6 cycles
 SCF Done:  E(UM062X) =  -94.5065724992     A.U. after   10 cycles
 SCF Done:  E(UM062X) =  -94.5066508144     A.U. after    9 cycles
 Optimization completed.
    -- Stationary point found.

                          Input orientation:
 ---------------------------------------------------------------------
 Center     Atomic      Atomic             Coordinates (Angstroms)
 Number     Number       Type             X           Y           Z
 ---------------------------------------------------------------------
      1          6           0       -0.831637    0.000000    0.000000
      2          7           0        0.831637    0.000000    0.000000
      3          1           0       -1.372074   -0.937124   -0.018586
      4          1           0        0.995622   -1.014912   -0.020337
      5          1           0       -1.279734    0.981948    0.019675
 ---------------------------------------------------------------------

 Alpha  occ. eigenvalues --  -14.79752 -10.63834  -0.92253  -0.74747  -0.55124
 Alpha  occ. eigenvalues --   -0.46665  -0.37923  -0.33307
 Alpha virt. eigenvalues --   -0.06293   0.01936   0.03046   0.04919   0.07618
 Alpha virt. eigenvalues --    0.12001   0.15249   0.16074   0.17561   0.17658
 Alpha virt. eigenvalues --    0.21240   0.23885   0.26536   0.43263   0.45728

  Beta  occ. eigenvalues --  -14.79752 -10.63834  -0.92253  -0.74747  -0.55124
  Beta  occ. eigenvalues --   -0.46665  -0.37923  -0.33307
  Beta virt. eigenvalues --   -0.06293   0.01936   0.03046   0.04919   0.07618
  Beta virt. eigenvalues --    0.12001   0.15249   0.16074   0.17561   0.17658
  Beta virt. eigenvalues --    0.21240   0.23885   0.26536   0.43263   0.45728

 Mulliken charges and spin densities:
               1          2
     1  C   -0.290467  -0.000000
     2  N   -0.274840   0.000000
     3  H    0.178856   0.000000
     4  H    0.194945  -0.000000
     5  H    0.191506   0.000000
 Sum of Mulliken charges =   0.00000  -0.00000

 Dipole moment (field-independent basis, Debye):
    X=             -2.2864    Y=             -1.4758    Z=             -0.0294  Tot=              2.7215
 Quadrupole moment (field-independent basis, Debye-Ang):
   XX=            -12.6384   YY=            -11.3812   ZZ=            -15.0494
   XY=             -1.9181   XZ=             -0.0386   YZ=              0.0733

 Normal termination of Gaussian 16 at Mon Apr 21 18:15:58 2025.
