 Gaussian 16, Revision A.03,
 Gaussian 16:  ES64L-G16RevA.03 25-Dec-2016

 --------------------------------------------
 #p opt UM062X/6-311+G** nosymm int=superfine
 --------------------------------------------

 -------------------
 Title Card Required
 -------------------
 Symbolic Z-matrix:
 Charge =  1 Multiplicity = 2

 SCF Done:  E(UM062X) =  -579.705373235     A.U. after   18 cycles
 SCF Done:  E(UM062X) =  -579.706062941     A.U. after   16 cycles
 SCF Done:  E(UM062X) =  -579.707389522     A.U. after   17 cycles
 SCF Done:  E(UM062X) =  -579.708364228     A.U. after   15 cycles
 SCF Done:  E(UM062X) =  -579.709326098     A.U. after   15 cycles
 SCF Done:  E(UM062X) =  -579.710982099     A.U. after   16 cycles
 SCF Done:  E(UM062X) =  -579.712318202     A.U. after   14 cycles
 SCF Done:  E(UM062X) =  -579.712522587     A.U. after   13 cycles
 SCF Done:  E(UM062X) =  -579.712571992     A.U. after   11 cycles
 SCF Done:  E(UM062X) =  -579.712580879     A.U. after   12 cycles
 SCF Done:  E(UM062X) =  -579.712581037     A.U. after    9 cycles
 Optimization completed.
    -- Stationary point found.

                          Input orientation:
 ---------------------------------------------------------------------
 Center     Atomic      Atomic             Coordinates (Angstroms)
 Number     Number       Type             X           Y           Z
 ---------------------------------------------------------------------
      1         14           0       -1.377975    0.000000    0.000000
      2         14           0        1.377975    0.000000    0.000000
      3          1           0       -1.081015   -1.488627    0.000196
      4          1           0        2.863814    0.065166    0.000006
 ---------------------------------------------------------------------

 Alpha  occ. eigenvalues --  -67.28377 -67.28127  -5.82604  -5.82302  -4.14020
 Alpha  occ. eigenvalues --   -4.13812  -4.13318  -4.13131  -4.13105  -4.12686
 Alpha  occ. eigenvalues --   -0.81295  -0.75558  -0.57368  -0.53202  -0.45156
 Alpha virt. eigenvalues --   -0.29685  -0.28522  -0.26100  -0.13212  -0.10282
 Alpha virt. eigenvalues --   -0.09291  -0.08566  -0.08095  -0.07085  -0.05621
 Alpha virt. eigenvalues --   -0.05600  -0.02505   0.00131   0.12439   0.13109

  Beta  occ. eigenvalues --  -67.28052 -67.27896  -5.82428  -5.82293  -4.13680
  Beta  occ. eigenvalues --   -4.13135  -4.13088  -4.12959  -4.12680  -4.12674
  Beta  occ. eigenvalues --   -0.79082  -0.74125  -0.56407  -0.52875
  Beta virt. eigenvalues --   -0.30345  -0.28484  -0.25188  -0.24461  -0.14857
  Beta virt. eigenvalues --   -0.10641  -0.09968  -0.08413  -0.07714  -0.07652
  Beta virt. eigenvalues --   -0.05303  -0.04449  -0.03625   0.00209   0.10851

 Mulliken charges and spin densities:
               1          2
     1  Si   0.695687   0.181458
     2  Si   0.340937   0.842528
     3  H   -0.093453  -0.009017
     4  H    0.056828  -0.014968
 Sum of Mulliken charges =   1.00000   1.00000

 Dipole moment (field-independent basis, Debye):
    X=              0.7497    Y=             -0.3662    Z=              0.0001  Tot=              0.8344
 Quadrupole moment (field-independent basis, Debye-Ang):
   XX=             -9.4088   YY=            -23.3392   ZZ=            -23.5988
   XY=              1.1646   XZ=             -0.0001   YZ=             -0.0000

 Normal termination of Gaussian 16 at Mon Apr 21 20:38:37 2025.
