 Gaussian 16, Revision A.03,
 Gaussian 16:  ES64L-G16RevA.03 25-Dec-2016

 ---------------------------------------
 #p UM062X/6-311+G** force int=superfine
 ---------------------------------------

 -------------------
 Title Card Required
 -------------------
 Symbolic Z-matrix:
 Charge =  1 Multiplicity = 2

                         Standard orientation:
 ---------------------------------------------------------------------
 Center     Atomic      Atomic             Coordinates (Angstroms)
 Number     Number       Type             X           Y           Z
 ---------------------------------------------------------------------
      1          6           0       -0.000000    0.636203    0.000000
      2          6           0       -0.000000   -0.636203    0.000000
      3          1           0        0.921890    1.215976    0.000000
      4          1           0       -0.921764    1.216051   -0.000000
      5          1           0       -0.921890   -1.215976    0.000000
      6          1           0        0.921764   -1.216051   -0.000000
 ---------------------------------------------------------------------

 SCF Done:  E(UM062X) =  -78.1626289918     A.U. after    9 cycles

 The electronic state is 2-AU.
 Alpha  occ. eigenvalues --  -10.88571 -10.88401  -1.23382  -0.97018  -0.86712
 Alpha  occ. eigenvalues --   -0.82262  -0.70856  -0.70700
 Alpha virt. eigenvalues --   -0.26682  -0.14802  -0.13300  -0.12468  -0.10222
 Alpha virt. eigenvalues --   -0.07952  -0.06665  -0.04939  -0.04301  -0.02999
 Alpha virt. eigenvalues --   -0.00182   0.02897   0.11495   0.12719   0.21295

  Beta  occ. eigenvalues --  -10.88324 -10.88169  -1.19034  -0.95149  -0.85391
  Beta  occ. eigenvalues --   -0.81353  -0.70574
  Beta virt. eigenvalues --   -0.44611  -0.20246  -0.16487  -0.13239  -0.12445
  Beta virt. eigenvalues --   -0.10863  -0.08886  -0.06717  -0.04797  -0.03218
  Beta virt. eigenvalues --   -0.02589  -0.00446   0.03023   0.11952   0.13475

 Mulliken charges and spin densities:
               1          2
     1  C   -0.046208   0.536839
     2  C   -0.046208   0.536839
     3  H    0.273102  -0.018421
     4  H    0.273106  -0.018418
     5  H    0.273102  -0.018421
     6  H    0.273106  -0.018418
 Sum of Mulliken charges =   1.00000   1.00000

 Dipole moment (field-independent basis, Debye):
    X=             -0.0000    Y=              0.0000    Z=              0.0000  Tot=              0.0000
 Quadrupole moment (field-independent basis, Debye-Ang):
   XX=             -8.4984   YY=             -6.1023   ZZ=            -11.1785
   XY=             -0.0000   XZ=             -0.0000   YZ=             -0.0000

 Normal termination of Gaussian 16 at Tue Nov 19 11:53:32 2024.
