 Gaussian 16, Revision A.03,
 Gaussian 16:  ES64L-G16RevA.03 25-Dec-2016

 --------------------------------------------
 #p opt UM062X/6-311+G** nosymm int=superfine
 --------------------------------------------

 -------------------
 Title Card Required
 -------------------
 Symbolic Z-matrix:
 Charge =  0 Multiplicity = 1

 SCF Done:  E(UM062X) =  -474.391908180     A.U. after   19 cycles
 SCF Done:  E(UM062X) =  -474.392557989     A.U. after   20 cycles
 SCF Done:  E(UM062X) =  -474.392793444     A.U. after   18 cycles
 SCF Done:  E(UM062X) =  -474.393113111     A.U. after   22 cycles
 SCF Done:  E(UM062X) =  -474.393432759     A.U. after   18 cycles
 SCF Done:  E(UM062X) =  -474.393722063     A.U. after   25 cycles
 SCF Done:  E(UM062X) =  -474.393893218     A.U. after   19 cycles
 SCF Done:  E(UM062X) =  -474.393980918     A.U. after   17 cycles
 SCF Done:  E(UM062X) =  -474.394054157     A.U. after   20 cycles
 SCF Done:  E(UM062X) =  -474.394099447     A.U. after   25 cycles
 SCF Done:  E(UM062X) =  -474.394113764     A.U. after   31 cycles
 SCF Done:  E(UM062X) =  -474.394128794     A.U. after   17 cycles
 SCF Done:  E(UM062X) =  -474.394127658     A.U. after   19 cycles
 SCF Done:  E(UM062X) =  -474.394130070     A.U. after   22 cycles
 SCF Done:  E(UM062X) =  -474.394130169     A.U. after   16 cycles
 SCF Done:  E(UM062X) =  -474.394130179     A.U. after   12 cycles
 Optimization completed.
    -- Stationary point found.

                          Input orientation:
 ---------------------------------------------------------------------
 Center     Atomic      Atomic             Coordinates (Angstroms)
 Number     Number       Type             X           Y           Z
 ---------------------------------------------------------------------
      1          8           0       -1.586030    0.000037   -0.000020
      2         16           0        1.586029   -0.000038    0.000023
      3          1           0       -1.566777   -0.255801    0.935650
      4          1           0        1.389477   -0.545634   -1.215326
 ---------------------------------------------------------------------

 Alpha  occ. eigenvalues --  -89.97856 -19.67417  -8.33976  -6.26193  -6.25820
 Alpha  occ. eigenvalues --   -6.25256  -1.08533  -0.83716  -0.52601  -0.49569
 Alpha  occ. eigenvalues --   -0.39834  -0.35630  -0.35213
 Alpha virt. eigenvalues --   -0.21226   0.01619   0.03937   0.04660   0.05497
 Alpha virt. eigenvalues --    0.07053   0.13884   0.19344   0.19915   0.21247
 Alpha virt. eigenvalues --    0.25723   0.30919   0.33961   0.34800   0.39349

  Beta  occ. eigenvalues --  -89.97856 -19.67417  -8.33976  -6.26193  -6.25820
  Beta  occ. eigenvalues --   -6.25256  -1.08533  -0.83716  -0.52601  -0.49569
  Beta  occ. eigenvalues --   -0.39834  -0.35630  -0.35213
  Beta virt. eigenvalues --   -0.21226   0.01619   0.03937   0.04660   0.05497
  Beta virt. eigenvalues --    0.07053   0.13884   0.19344   0.19915   0.21247
  Beta virt. eigenvalues --    0.25723   0.30919   0.33961   0.34800   0.39349

 Mulliken charges and spin densities:
               1          2
     1  O   -0.405609   0.000000
     2  S    0.046888  -0.000000
     3  H    0.247408  -0.000000
     4  H    0.111313  -0.000000
 Sum of Mulliken charges =  -0.00000   0.00000

 Dipole moment (field-independent basis, Debye):
    X=              2.1828    Y=             -0.9465    Z=              0.5940  Tot=              2.4522
 Quadrupole moment (field-independent basis, Debye-Ang):
   XX=            -18.2559   YY=            -21.8345   ZZ=            -16.9356
   XY=              0.0110   XZ=             -4.5134   YZ=              0.9052

 Normal termination of Gaussian 16 at Mon Apr 21 22:47:25 2025.
