 Gaussian 16, Revision A.03,
 Gaussian 16:  ES64L-G16RevA.03 25-Dec-2016

 --------------------------------------------
 #p opt UM062X/6-311+G** nosymm int=superfine
 --------------------------------------------

 -------------------
 Title Card Required
 -------------------
 Symbolic Z-matrix:
 Charge =  1 Multiplicity = 2

 SCF Done:  E(UM062X) =  -76.8938938812     A.U. after   10 cycles
 SCF Done:  E(UM062X) =  -76.8964586658     A.U. after    9 cycles
 SCF Done:  E(UM062X) =  -76.8964594051     A.U. after    6 cycles
 Optimization completed.
    -- Stationary point found.

                          Input orientation:
 ---------------------------------------------------------------------
 Center     Atomic      Atomic             Coordinates (Angstroms)
 Number     Number       Type             X           Y           Z
 ---------------------------------------------------------------------
      1          6           0       -0.596489    0.000000    0.000000
      2          6           0        0.596489    0.000000    0.000000
      3          1           0       -1.676062   -0.000000    0.000000
      4          1           0        1.676062    0.000000   -0.000000
 ---------------------------------------------------------------------

 Alpha  occ. eigenvalues --  -10.93324 -10.93016  -1.24746  -0.96782  -0.89981
 Alpha  occ. eigenvalues --   -0.74455  -0.71622
 Alpha virt. eigenvalues --   -0.25973  -0.23985  -0.14997  -0.14547  -0.11656
 Alpha virt. eigenvalues --   -0.10531  -0.10260  -0.05378  -0.04613  -0.04139
 Alpha virt. eigenvalues --    0.02314   0.04558   0.16895   0.18275   0.28639

  Beta  occ. eigenvalues --  -10.93065 -10.92784  -1.19790  -0.95211  -0.89400
  Beta  occ. eigenvalues --   -0.69077
  Beta virt. eigenvalues --   -0.47193  -0.22441  -0.19957  -0.15642  -0.14266
  Beta virt. eigenvalues --   -0.11730  -0.10775  -0.10444  -0.04823  -0.03919
  Beta virt. eigenvalues --   -0.03221   0.02178   0.04835   0.17400   0.19076

 Mulliken charges and spin densities:
               1          2
     1  C    0.199356   0.519358
     2  C    0.199355   0.519358
     3  H    0.300644  -0.019358
     4  H    0.300644  -0.019358
 Sum of Mulliken charges =   1.00000   1.00000

 Dipole moment (field-independent basis, Debye):
    X=             -0.0000    Y=              0.0000    Z=             -0.0000  Tot=              0.0000
 Quadrupole moment (field-independent basis, Debye-Ang):
   XX=             -0.8575   YY=            -11.2149   ZZ=             -9.4873
   XY=              0.0000   XZ=             -0.0000   YZ=             -0.1682

 Normal termination of Gaussian 16 at Tue Nov 19 13:00:24 2024.
