 Gaussian 16, Revision A.03,
 Gaussian 16:  ES64L-G16RevA.03 25-Dec-2016

 --------------------------------------------
 #p opt UM062X/6-311+G** nosymm int=superfine
 --------------------------------------------

 -------------------
 Title Card Required
 -------------------
 Symbolic Z-matrix:
 Charge =  0 Multiplicity = 1

 SCF Done:  E(UM062X) =  -51.8160823300     A.U. after   10 cycles
 SCF Done:  E(UM062X) =  -51.8209918564     A.U. after    9 cycles
 SCF Done:  E(UM062X) =  -51.8236663811     A.U. after   11 cycles
 SCF Done:  E(UM062X) =  -51.8236684497     A.U. after    9 cycles
 SCF Done:  E(UM062X) =  -51.8236503163     A.U. after    9 cycles
 SCF Done:  E(UM062X) =  -51.8236683411     A.U. after    8 cycles
 Optimization completed.
    -- Stationary point found.

                          Input orientation:
 ---------------------------------------------------------------------
 Center     Atomic      Atomic             Coordinates (Angstroms)
 Number     Number       Type             X           Y           Z
 ---------------------------------------------------------------------
      1          5           0       -1.820607    0.000000    0.000000
      2          5           0        1.820607    0.000000    0.000000
      3          1           0       -2.293379   -1.080988    0.000119
      4          1           0        2.293379    1.080973   -0.005679
      5          1           0       -2.293380    1.080987    0.000694
      6          1           0        2.293380   -1.080968    0.006474
 ---------------------------------------------------------------------

 Alpha  occ. eigenvalues --   -7.11196  -7.11195  -0.57747  -0.57263  -0.44793
 Alpha  occ. eigenvalues --   -0.44623  -0.21154
 Alpha virt. eigenvalues --   -0.05542  -0.05206  -0.03566   0.02301   0.03390
 Alpha virt. eigenvalues --    0.03852   0.05542   0.06270   0.07356   0.08092
 Alpha virt. eigenvalues --    0.10148   0.15575   0.16390   0.17164   0.24803

  Beta  occ. eigenvalues --   -7.11196  -7.11195  -0.57747  -0.57263  -0.44793
  Beta  occ. eigenvalues --   -0.44623  -0.21154
  Beta virt. eigenvalues --   -0.05542  -0.05206  -0.03566   0.02301   0.03390
  Beta virt. eigenvalues --    0.03852   0.05542   0.06270   0.07356   0.08092
  Beta virt. eigenvalues --    0.10148   0.15575   0.16390   0.17164   0.24803

 Mulliken charges and spin densities:
               1          2
     1  B   -0.054782   0.000000
     2  B   -0.054781  -0.000000
     3  H    0.027391   0.000000
     4  H    0.027391  -0.000000
     5  H    0.027391   0.000000
     6  H    0.027391  -0.000000
 Sum of Mulliken charges =  -0.00000  -0.00000

 Dipole moment (field-independent basis, Debye):
    X=              0.0000    Y=              0.0000    Z=              0.0006  Tot=              0.0006
 Quadrupole moment (field-independent basis, Debye-Ang):
   XX=            -12.1982   YY=            -16.9283   ZZ=            -14.4077
   XY=             -0.0000   XZ=              0.0000   YZ=              0.0067

 Normal termination of Gaussian 16 at Mon Apr 21 17:17:00 2025.
