 Gaussian 16, Revision A.03,
 Gaussian 16:  ES64L-G16RevA.03 25-Dec-2016

 --------------------------------------------
 #p opt UM062X/6-311+G** nosymm int=superfine
 --------------------------------------------

 -------------------
 Title Card Required
 -------------------
 Symbolic Z-matrix:
 Charge =  0 Multiplicity = 1

 SCF Done:  E(UM062X) =  -438.486395071     A.U. after   13 cycles
 SCF Done:  E(UM062X) =  -438.499974532     A.U. after   11 cycles
 SCF Done:  E(UM062X) =  -438.506809549     A.U. after   13 cycles
 SCF Done:  E(UM062X) =  -438.506883565     A.U. after   10 cycles
 SCF Done:  E(UM062X) =  -438.506905613     A.U. after   11 cycles
 SCF Done:  E(UM062X) =  -438.506936420     A.U. after   10 cycles
 SCF Done:  E(UM062X) =  -438.506940396     A.U. after   11 cycles
 SCF Done:  E(UM062X) =  -438.506940976     A.U. after   11 cycles
 SCF Done:  E(UM062X) =  -438.506941216     A.U. after    8 cycles
 SCF Done:  E(UM062X) =  -438.506941638     A.U. after   13 cycles
 SCF Done:  E(UM062X) =  -438.506941962     A.U. after   11 cycles
 Optimization completed.
    -- Stationary point found.

                          Input orientation:
 ---------------------------------------------------------------------
 Center     Atomic      Atomic             Coordinates (Angstroms)
 Number     Number       Type             X           Y           Z
 ---------------------------------------------------------------------
      1          6           0       -1.910220    0.000000    0.000000
      2         16           0        1.910220    0.000000    0.000000
      3          1           0        1.865382   -1.343813   -0.002630
      4          1           0       -1.903455    1.080918    0.002263
      5          1           0       -1.951889   -0.536372   -0.937680
      6          1           0       -1.952085   -0.540298    0.935414
 ---------------------------------------------------------------------

 Alpha  occ. eigenvalues --  -89.87725 -10.65023  -8.24019  -6.16064  -6.15999
 Alpha  occ. eigenvalues --   -6.15450  -0.83315  -0.75529  -0.55355  -0.55287
 Alpha  occ. eigenvalues --   -0.42068  -0.28006  -0.26994
 Alpha virt. eigenvalues --   -0.15931   0.01049   0.03758   0.04188   0.05598
 Alpha virt. eigenvalues --    0.07526   0.08427   0.08455   0.10782   0.13518
 Alpha virt. eigenvalues --    0.15633   0.15879   0.20832   0.34234   0.35288

  Beta  occ. eigenvalues --  -89.87725 -10.65023  -8.24019  -6.16064  -6.15999
  Beta  occ. eigenvalues --   -6.15450  -0.83315  -0.75529  -0.55355  -0.55287
  Beta  occ. eigenvalues --   -0.42068  -0.28006  -0.26994
  Beta virt. eigenvalues --   -0.15931   0.01049   0.03758   0.04188   0.05598
  Beta virt. eigenvalues --    0.07526   0.08427   0.08455   0.10782   0.13518
  Beta virt. eigenvalues --    0.15633   0.15879   0.20832   0.34234   0.35288

 Mulliken charges and spin densities:
               1          2
     1  C   -0.387084   0.000000
     2  S   -0.288252  -0.000000
     3  H    0.050981   0.000000
     4  H    0.210015  -0.000000
     5  H    0.207173  -0.000000
     6  H    0.207167  -0.000000
 Sum of Mulliken charges =  -0.00000  -0.00000

 Dipole moment (field-independent basis, Debye):
    X=             -4.9335    Y=             -0.9528    Z=             -0.0019  Tot=              5.0246
 Quadrupole moment (field-independent basis, Debye-Ang):
   XX=            -20.7995   YY=            -19.6130   ZZ=            -23.6683
   XY=             -1.8804   XZ=             -0.0039   YZ=              0.0079

 Normal termination of Gaussian 16 at Mon Apr 21 19:39:06 2025.
