 Gaussian 16, Revision A.03,
 Gaussian 16:  ES64L-G16RevA.03 25-Dec-2016

 --------------------------------------------
 #p opt UM062X/6-311+G** nosymm int=superfine
 --------------------------------------------

 -------------------
 Title Card Required
 -------------------
 Symbolic Z-matrix:
 Charge =  1 Multiplicity = 2

 SCF Done:  E(UM062X) =  -1615.47504195     A.U. after   28 cycles
 SCF Done:  E(UM062X) =  -1615.54101257     A.U. after   25 cycles
 SCF Done:  E(UM062X) =  -1615.57396884     A.U. after   29 cycles
 SCF Done:  E(UM062X) =  -1615.58100014     A.U. after   21 cycles
 SCF Done:  E(UM062X) =  -1615.58234855     A.U. after   20 cycles
 SCF Done:  E(UM062X) =  -1615.58276602     A.U. after   27 cycles
 SCF Done:  E(UM062X) =  -1615.53446919     A.U. after   27 cycles
 SCF Done:  E(UM062X) =  -1615.57567968     A.U. after   25 cycles
 SCF Done:  E(UM062X) =  -1615.58308438     A.U. after   23 cycles
 SCF Done:  E(UM062X) =  -1615.58326128     A.U. after   24 cycles
 SCF Done:  E(UM062X) =  -1615.58346507     A.U. after   19 cycles
 SCF Done:  E(UM062X) =  -1615.58347443     A.U. after   21 cycles
 SCF Done:  E(UM062X) =  -1615.58348330     A.U. after   18 cycles
 SCF Done:  E(UM062X) =  -1615.58348734     A.U. after   20 cycles
 SCF Done:  E(UM062X) =  -1615.58348823     A.U. after   17 cycles
 SCF Done:  E(UM062X) =  -1615.58348854     A.U. after   18 cycles
 SCF Done:  E(UM062X) =  -1615.58348866     A.U. after   12 cycles
 SCF Done:  E(UM062X) =  -1615.58348872     A.U. after   14 cycles
 SCF Done:  E(UM062X) =  -1615.58348876     A.U. after   15 cycles
 SCF Done:  E(UM062X) =  -1615.58348877     A.U. after   14 cycles
 Optimization completed.
    -- Stationary point found.

                          Input orientation:
 ---------------------------------------------------------------------
 Center     Atomic      Atomic             Coordinates (Angstroms)
 Number     Number       Type             X           Y           Z
 ---------------------------------------------------------------------
      1          6           0       -1.569333    0.000000    0.000000
      2          6           0        1.569333    0.000000    0.000000
      3          6           0        0.000006   -2.074034    0.000085
      4          6           0        0.000015   -3.470951    0.000212
      5          6           0       -1.133175   -4.296964    0.210163
      6          6           0       -1.304036   -1.470928    0.180209
      7          6           0        0.663987   -5.690831   -0.125015
      8          1           0        1.293198   -6.560856   -0.247103
      9          6           0       -1.624399    0.775557    1.213010
     10          6           0       -0.663926   -5.690819    0.125876
     11          1           0       -1.293114   -6.560830    0.248177
     12          6           0        1.133203   -4.296984   -0.209616
     13          6           0        1.304030   -1.470939   -0.180147
     14          6           0        1.762602    2.199289   -1.317891
     15          6           0       -1.691476    0.395044   -1.378637
     16          6           0       -1.854824    2.790530    2.591224
     17          1           0       -1.976663    3.866207    2.644540
     18          6           0       -2.341840   -3.697920    0.441248
     19          1           0       -3.246669   -4.267215    0.619753
     20          6           0       -1.689914    1.736780   -1.886762
     21          6           0        2.399212   -2.280084   -0.411518
     22          1           0        3.364718   -1.800979   -0.539399
     23          6           0        1.691469    0.395136    1.378612
     24          6           0        1.689932    1.736910    1.886636
     25          6           0        2.341873   -3.697961   -0.440754
     26          1           0        3.246722   -4.267282   -0.619072
     27          6           0       -1.762642    2.199379    1.317719
     28          6           0       -1.505270    0.065085    2.443681
     29          1           0       -1.352651   -1.003043    2.421259
     30          6           0        1.773790   -0.646864    2.356458
     31          1           0        1.806381   -1.675862    2.032483
     32          6           0       -1.789875    2.056273    3.757041
     33          1           0       -1.874287    2.547380    4.718849
     34          6           0       -2.399197   -2.280040    0.411767
     35          1           0       -3.364699   -1.800928    0.539656
     36          6           0       -1.725587    1.946378   -3.280283
     37          1           0       -1.705340    2.968677   -3.639701
     38          6           0        1.624433    0.775464   -1.213072
     39          6           0       -1.747376    3.136699    0.226088
     40          1           0       -1.778386    4.175147    0.541362
     41          6           0       -1.806143    0.912426   -4.184418
     42          1           0       -1.851492    1.116643   -5.247289
     43          6           0       -1.683639    2.943510   -1.106340
     44          1           0       -1.660788    3.849986   -1.703780
     45          6           0        1.725723    1.946617    3.280130
     46          1           0        1.705512    2.968940    3.639482
     47          6           0       -1.592310    0.676471    3.674080
     48          1           0       -1.504082    0.079377    4.573592
     49          6           0       -1.773777   -0.647030   -2.356415
     50          1           0       -1.806425   -1.676000   -2.032354
     51          6           0        1.806340    0.912727    4.184343
     52          1           0        1.851793    1.117031    5.247192
     53          6           0        1.854862    2.790340   -2.591424
     54          1           0        1.976663    3.866018   -2.644825
     55          6           0        1.847423   -0.402031    3.705919
     56          1           0        1.932884   -1.233588    4.394750
     57          6           0        1.790024    2.055984   -3.757196
     58          1           0        1.874506    2.547027   -4.719032
     59          6           0        1.747168    3.136692   -0.226318
     60          1           0        1.778020    4.175120   -0.541677
     61          6           0       -1.847314   -0.402301   -3.705894
     62          1           0       -1.932765   -1.233904   -4.394671
     63          6           0        1.683502    2.943589    1.106118
     64          1           0        1.660551    3.850098    1.703502
     65          6           0        1.505403    0.064896   -2.443691
     66          1           0        1.352838   -1.003238   -2.421206
     67          6           0        1.592490    0.676194   -3.674139
     68          1           0        1.504312    0.079021   -4.573604
 ---------------------------------------------------------------------

 Alpha  occ. eigenvalues --  -10.70701 -10.70700 -10.68638 -10.68638 -10.68596
 Alpha  occ. eigenvalues --  -10.68596 -10.68251 -10.68250 -10.68233 -10.68232
 Alpha  occ. eigenvalues --  -10.67348 -10.67342 -10.67129 -10.66694 -10.66693
 Alpha  occ. eigenvalues --  -10.66590 -10.66589 -10.65945 -10.65944 -10.65849
 Alpha  occ. eigenvalues --  -10.65849 -10.65732 -10.65732 -10.65723 -10.65723
 Alpha  occ. eigenvalues --  -10.65612 -10.65611 -10.65605 -10.65604 -10.65489
 Alpha  occ. eigenvalues --  -10.65489 -10.65427 -10.65427 -10.65331 -10.65331
 Alpha  occ. eigenvalues --  -10.65305 -10.65304 -10.64879 -10.64879 -10.63810
 Alpha  occ. eigenvalues --  -10.63710 -10.63684  -1.11908  -1.10322  -1.10041
 Alpha  occ. eigenvalues --   -1.08309  -1.07805  -1.05315  -1.04964  -1.02523
 Alpha  occ. eigenvalues --   -1.02134  -1.01007  -1.00253  -0.97944  -0.97648
 Alpha  occ. eigenvalues --   -0.96738  -0.96299  -0.94900  -0.93542  -0.93476
 Alpha  occ. eigenvalues --   -0.92856  -0.91745  -0.87368  -0.87196  -0.84989
 Alpha  occ. eigenvalues --   -0.84808  -0.83050  -0.81512  -0.80844  -0.79774
 Alpha  occ. eigenvalues --   -0.79680  -0.79536  -0.77369  -0.76328  -0.76173
 Alpha  occ. eigenvalues --   -0.75877  -0.75347  -0.73347  -0.70174  -0.69631
 Alpha  occ. eigenvalues --   -0.68824  -0.68544  -0.67756  -0.67659  -0.66910
 Alpha  occ. eigenvalues --   -0.66887  -0.65734  -0.65359  -0.65225  -0.64704
 Alpha  occ. eigenvalues --   -0.63229  -0.62775  -0.62403  -0.62116  -0.60976
 Alpha  occ. eigenvalues --   -0.60960  -0.60526  -0.60337  -0.60104  -0.60032
 Alpha  occ. eigenvalues --   -0.59547  -0.58818  -0.58800  -0.58112  -0.57685
 Alpha  occ. eigenvalues --   -0.57458  -0.57080  -0.55965  -0.55661  -0.55660
 Alpha  occ. eigenvalues --   -0.54935  -0.53995  -0.53021  -0.52850  -0.52625
 Alpha  occ. eigenvalues --   -0.52407  -0.52361  -0.52137  -0.51030  -0.50948
 Alpha  occ. eigenvalues --   -0.50883  -0.50877  -0.49698  -0.49530  -0.49526
 Alpha  occ. eigenvalues --   -0.48571  -0.48430  -0.47901  -0.45494  -0.44734
 Alpha  occ. eigenvalues --   -0.43962  -0.42782  -0.40541  -0.40421  -0.39276
 Alpha  occ. eigenvalues --   -0.38154  -0.37532  -0.37050  -0.30516
 Alpha virt. eigenvalues --   -0.21135  -0.16044  -0.15515  -0.14343  -0.10701
 Alpha virt. eigenvalues --   -0.09986  -0.08929  -0.08562  -0.08352  -0.07554
 Alpha virt. eigenvalues --   -0.07553  -0.07437  -0.06649  -0.06323  -0.06162

  Beta  occ. eigenvalues --  -10.70546 -10.70545 -10.68685 -10.68684 -10.68638
  Beta  occ. eigenvalues --  -10.68637 -10.68211 -10.68210 -10.68187 -10.68187
  Beta  occ. eigenvalues --  -10.67367 -10.67361 -10.67100 -10.66690 -10.66690
  Beta  occ. eigenvalues --  -10.66582 -10.66582 -10.65905 -10.65904 -10.65815
  Beta  occ. eigenvalues --  -10.65814 -10.65701 -10.65701 -10.65686 -10.65686
  Beta  occ. eigenvalues --  -10.65631 -10.65631 -10.65623 -10.65623 -10.65487
  Beta  occ. eigenvalues --  -10.65487 -10.65442 -10.65442 -10.65349 -10.65349
  Beta  occ. eigenvalues --  -10.65292 -10.65291 -10.64878 -10.64877 -10.63810
  Beta  occ. eigenvalues --  -10.63710 -10.63681  -1.11759  -1.10155  -1.09963
  Beta  occ. eigenvalues --   -1.08202  -1.07714  -1.05150  -1.04823  -1.02410
  Beta  occ. eigenvalues --   -1.02038  -1.00831  -1.00087  -0.97842  -0.97554
  Beta  occ. eigenvalues --   -0.96627  -0.96205  -0.94854  -0.93474  -0.93382
  Beta  occ. eigenvalues --   -0.92789  -0.91661  -0.87070  -0.86841  -0.84923
  Beta  occ. eigenvalues --   -0.84748  -0.82972  -0.81416  -0.80744  -0.79692
  Beta  occ. eigenvalues --   -0.79613  -0.79466  -0.77264  -0.76182  -0.76019
  Beta  occ. eigenvalues --   -0.75716  -0.75309  -0.73229  -0.70059  -0.69488
  Beta  occ. eigenvalues --   -0.68704  -0.68430  -0.67711  -0.67615  -0.66790
  Beta  occ. eigenvalues --   -0.66775  -0.65650  -0.65210  -0.65083  -0.64609
  Beta  occ. eigenvalues --   -0.63049  -0.62725  -0.62323  -0.62045  -0.60831
  Beta  occ. eigenvalues --   -0.60724  -0.60403  -0.60098  -0.60035  -0.59979
  Beta  occ. eigenvalues --   -0.59410  -0.58726  -0.58671  -0.58042  -0.57550
  Beta  occ. eigenvalues --   -0.57172  -0.56789  -0.55702  -0.55617  -0.55610
  Beta  occ. eigenvalues --   -0.54908  -0.53696  -0.52920  -0.52766  -0.52563
  Beta  occ. eigenvalues --   -0.52304  -0.52249  -0.52112  -0.50966  -0.50864
  Beta  occ. eigenvalues --   -0.50799  -0.50431  -0.49476  -0.49383  -0.48877
  Beta  occ. eigenvalues --   -0.48370  -0.48012  -0.47616  -0.44788  -0.44214
  Beta  occ. eigenvalues --   -0.43246  -0.42433  -0.40358  -0.40210  -0.38691
  Beta  occ. eigenvalues --   -0.38046  -0.37226  -0.36986
  Beta virt. eigenvalues --   -0.20878  -0.18172  -0.15890  -0.15492  -0.14403
  Beta virt. eigenvalues --   -0.10364  -0.09576  -0.08551  -0.08525  -0.08065
  Beta virt. eigenvalues --   -0.07609  -0.07568  -0.07235  -0.06635  -0.06258

 Mulliken charges and spin densities:
               1          2
     1  C    0.036651   0.379985
     2  C    0.036611   0.380077
     3  C    0.329165   0.017243
     4  C    0.211544  -0.012984
     5  C    0.133775   0.006428
     6  C   -0.022592  -0.039216
     7  C   -0.310167   0.000667
     8  H    0.176040  -0.000010
     9  C    0.076175  -0.054404
    10  C   -0.310104   0.000668
    11  H    0.176040  -0.000010
    12  C    0.133758   0.006431
    13  C   -0.022563  -0.039225
    14  C    0.537117   0.025710
    15  C    0.384581  -0.087799
    16  C   -0.415159  -0.033724
    17  H    0.165487   0.001155
    18  C   -0.495744   0.002114
    19  H    0.175662   0.000144
    20  C    0.251056   0.108725
    21  C   -0.091477   0.023585
    22  H    0.176154  -0.000368
    23  C    0.384575  -0.087807
    24  C    0.250910   0.108734
    25  C   -0.495645   0.002115
    26  H    0.175661   0.000144
    27  C    0.537339   0.025716
    28  C   -0.012662   0.082609
    29  H    0.210293  -0.004453
    30  C   -0.259414   0.039547
    31  H    0.224888  -0.003251
    32  C   -0.404020   0.059553
    33  H    0.182492  -0.003387
    34  C   -0.091535   0.023572
    35  H    0.176150  -0.000368
    36  C   -0.021285  -0.062678
    37  H    0.159928   0.001512
    38  C    0.076282  -0.054416
    39  C   -0.326221   0.054311
    40  H    0.164401  -0.002799
    41  C   -0.223399   0.072223
    42  H    0.180978  -0.003763
    43  C   -0.356004   0.011269
    44  H    0.160479  -0.000487
    45  C   -0.021331  -0.062691
    46  H    0.159932   0.001512
    47  C   -0.013866  -0.041455
    48  H    0.168041   0.000134
    49  C   -0.259467   0.039530
    50  H    0.224890  -0.003250
    51  C   -0.223473   0.072228
    52  H    0.180978  -0.003763
    53  C   -0.415218  -0.033730
    54  H    0.165488   0.001155
    55  C   -0.558754  -0.035455
    56  H    0.176194   0.001411
    57  C   -0.404105   0.059566
    58  H    0.182491  -0.003388
    59  C   -0.326000   0.054327
    60  H    0.164390  -0.002800
    61  C   -0.558857  -0.035448
    62  H    0.176197   0.001411
    63  C   -0.355858   0.011271
    64  H    0.160467  -0.000487
    65  C   -0.012712   0.082627
    66  H    0.210290  -0.004454
    67  C   -0.013955  -0.041471
    68  H    0.168040   0.000134
 Sum of Mulliken charges =   1.00000   1.00000

 Dipole moment (field-independent basis, Debye):
    X=             -0.0003    Y=              2.5003    Z=              0.0001  Tot=              2.5003
 Quadrupole moment (field-independent basis, Debye-Ang):
   XX=           -222.4316   YY=           -174.8797   ZZ=           -176.2341
   XY=             -0.0017   XZ=             -0.1420   YZ=             -0.0017

 Normal termination of Gaussian 16 at Fri Nov  8 13:55:48 2024.
