 Gaussian 16, Revision A.03,
 Gaussian 16:  ES64L-G16RevA.03 25-Dec-2016

 ---------------------------------------------------
 #p UM062X/6-311+G** force int=superfine pop=saveNBO
 ---------------------------------------------------

 -------------------
 Title Card Required
 -------------------
 Symbolic Z-matrix:
 Charge =  0 Multiplicity = 1

                         Standard orientation:
 ---------------------------------------------------------------------
 Center     Atomic      Atomic             Coordinates (Angstroms)
 Number     Number       Type             X           Y           Z
 ---------------------------------------------------------------------
      1          6           0        0.000000    0.000000   -1.612665
      2          8           0        0.000000    0.000000    1.209499
 ---------------------------------------------------------------------

 SCF Done:  E(UM062X) =  -112.774396941     A.U. after   23 cycles

 The electronic state is 1-SG.
 Alpha  occ. eigenvalues --  -19.69229 -10.78128  -0.99979  -0.69315  -0.38561
 Alpha  occ. eigenvalues --   -0.38561  -0.33260
 Alpha virt. eigenvalues --   -0.15242  -0.15242  -0.13795   0.03383   0.06525
 Alpha virt. eigenvalues --    0.06525   0.07358   0.18582   0.21306   0.21306
 Alpha virt. eigenvalues --    0.29235   0.53334   0.53334   0.55813   0.63202

  Beta  occ. eigenvalues --  -19.69229 -10.78128  -0.99979  -0.69315  -0.38561
  Beta  occ. eigenvalues --   -0.38561  -0.33260
  Beta virt. eigenvalues --   -0.15242  -0.15242  -0.13795   0.03383   0.06525
  Beta virt. eigenvalues --    0.06525   0.07358   0.18582   0.21306   0.21306
  Beta virt. eigenvalues --    0.29235   0.53334   0.53334   0.55813   0.63202

 Mulliken charges and spin densities:
               1          2
     1  C    0.216827  -0.000000
     2  O   -0.216827   0.000000
 Sum of Mulliken charges =  -0.00000   0.00000

 Dipole moment (field-independent basis, Debye):
    X=              0.0000    Y=              0.0000    Z=             -2.9956  Tot=              2.9956
 Quadrupole moment (field-independent basis, Debye-Ang):
   XX=            -11.1861   YY=            -11.1861   ZZ=            -11.2261
   XY=              0.0000   XZ=              0.0000   YZ=              0.0000

 Summary of Natural Population Analysis:

                                       Natural Population
                Natural  -----------------------------------------------
    Atom  No    Charge         Core      Valence    Rydberg      Total
 -----------------------------------------------------------------------
      C    1    0.13915      1.00000     1.86042    0.00043     2.86085
      O    2   -0.13915      1.00000     3.13871    0.00044     4.13915
 =======================================================================
   * Total *    0.00000      2.00000     4.99912    0.00088     7.00000

 Normal termination of Gaussian 16 at Mon Apr 21 19:31:48 2025.
