 Gaussian 16, Revision A.03,
 Gaussian 16:  ES64L-G16RevA.03 25-Dec-2016

 ---------------------------------------
 #p UM062X/6-311+G** force int=superfine
 ---------------------------------------

 -------------------
 Title Card Required
 -------------------
 Symbolic Z-matrix:
 Charge =  1 Multiplicity = 2

                         Standard orientation:
 ---------------------------------------------------------------------
 Center     Atomic      Atomic             Coordinates (Angstroms)
 Number     Number       Type             X           Y           Z
 ---------------------------------------------------------------------
      1          6           0        0.966146    0.966410   -1.738576
      2          6           0       -0.966147   -0.966407    1.738577
      3          1           0       -1.880390   -1.113505    1.176515
      4          1           0        0.835511    0.071037   -2.334077
      5          1           0       -0.835814   -0.071624    2.335036
      6          1           0       -0.209589   -1.741502    1.753472
      7          1           0        1.880341    1.113732   -1.176495
      8          1           0        0.209951    1.741843   -1.754456
 ---------------------------------------------------------------------

 SCF Done:  E(UM062X) =  -79.3138786386     A.U. after   10 cycles

 The electronic state is 2-A.
 Alpha  occ. eigenvalues --  -10.82790 -10.82789  -1.01421  -1.01233  -0.72538
 Alpha  occ. eigenvalues --   -0.72537  -0.72493  -0.72493  -0.45896
 Alpha virt. eigenvalues --   -0.37899  -0.12266  -0.10013  -0.08976  -0.08976
 Alpha virt. eigenvalues --   -0.06188  -0.06188  -0.04458  -0.02493   0.00683
 Alpha virt. eigenvalues --    0.00686   0.01563   0.01565   0.02243   0.09203

  Beta  occ. eigenvalues --  -10.82562 -10.82562  -0.98753  -0.98671  -0.71996
  Beta  occ. eigenvalues --   -0.71995  -0.71945  -0.71944
  Beta virt. eigenvalues --   -0.31124  -0.26683  -0.17074  -0.10249  -0.10117
  Beta virt. eigenvalues --   -0.10113  -0.06116  -0.06116  -0.05801  -0.01520
  Beta virt. eigenvalues --    0.00636   0.00639   0.01809   0.01811   0.02266

 Mulliken charges and spin densities:
               1          2
     1  C   -0.233677   0.559759
     2  C   -0.233675   0.559761
     3  H    0.244580  -0.019914
     4  H    0.244539  -0.019920
     5  H    0.244558  -0.019924
     6  H    0.244538  -0.019923
     7  H    0.244581  -0.019914
     8  H    0.244556  -0.019925
 Sum of Mulliken charges =   1.00000   1.00000

 Dipole moment (field-independent basis, Debye):
    X=              0.0000    Y=             -0.0000    Z=             -0.0000  Tot=              0.0000
 Quadrupole moment (field-independent basis, Debye-Ang):
   XX=             -6.7530   YY=             -6.7520   ZZ=              3.0193
   XY=              4.3702   XZ=             -7.8610   YZ=             -7.8618

 Normal termination of Gaussian 16 at Tue Nov 19 08:46:45 2024.
