 Gaussian 16, Revision A.03,
 Gaussian 16:  ES64L-G16RevA.03 25-Dec-2016

 --------------------------------------------
 #p opt UM062X/6-311+G** nosymm int=superfine
 --------------------------------------------

 -------------------
 Title Card Required
 -------------------
 Symbolic Z-matrix:
 Charge =  0 Multiplicity = 1

 SCF Done:  E(UM062X) =  -81.6901894878     A.U. after   23 cycles
 SCF Done:  E(UM062X) =  -81.6983156248     A.U. after   15 cycles
 SCF Done:  E(UM062X) =  -81.7038083518     A.U. after   31 cycles
 SCF Done:  E(UM062X) =  -81.7164195915     A.U. after   19 cycles
 SCF Done:  E(UM062X) =  -81.7314514433     A.U. after   16 cycles
 SCF Done:  E(UM062X) =  -81.7332041123     A.U. after   15 cycles
 SCF Done:  E(UM062X) =  -81.7358434946     A.U. after   17 cycles
 SCF Done:  E(UM062X) =  -81.7377522750     A.U. after   14 cycles
 SCF Done:  E(UM062X) =  -81.7379341951     A.U. after   14 cycles
 SCF Done:  E(UM062X) =  -81.7380087129     A.U. after   12 cycles
 SCF Done:  E(UM062X) =  -81.7380162684     A.U. after   12 cycles
 SCF Done:  E(UM062X) =  -81.7380165485     A.U. after   10 cycles
 Optimization completed.
    -- Stationary point found.

                          Input orientation:
 ---------------------------------------------------------------------
 Center     Atomic      Atomic             Coordinates (Angstroms)
 Number     Number       Type             X           Y           Z
 ---------------------------------------------------------------------
      1          5           0       -1.820399    0.000000    0.000000
      2          7           0        1.820399    0.000000    0.000000
      3          1           0       -2.152816   -1.123318    0.025673
      4          1           0        1.810109    0.802455   -0.638058
      5          1           0       -2.152819    1.123317    0.025657
      6          1           0        1.810109   -0.802448   -0.638066
 ---------------------------------------------------------------------

 Alpha  occ. eigenvalues --  -14.71705  -7.18419  -0.87371  -0.63079  -0.51731
 Alpha  occ. eigenvalues --   -0.48033  -0.33298  -0.23565
 Alpha virt. eigenvalues --   -0.10842  -0.08893   0.00681   0.02690   0.04162
 Alpha virt. eigenvalues --    0.05014   0.09383   0.11615   0.13592   0.17408
 Alpha virt. eigenvalues --    0.20092   0.20552   0.21671   0.27704   0.32379

  Beta  occ. eigenvalues --  -14.71705  -7.18419  -0.87371  -0.63079  -0.51731
  Beta  occ. eigenvalues --   -0.48033  -0.33298  -0.23565
  Beta virt. eigenvalues --   -0.10842  -0.08893   0.00681   0.02690   0.04162
  Beta virt. eigenvalues --    0.05014   0.09383   0.11615   0.13592   0.17408
  Beta virt. eigenvalues --    0.20092   0.20552   0.21671   0.27704   0.32379

 Mulliken charges and spin densities:
               1          2
     1  B    0.154318   0.000000
     2  N   -0.697364  -0.000000
     3  H    0.067560   0.000000
     4  H    0.203963   0.000000
     5  H    0.067560   0.000000
     6  H    0.203963   0.000000
 Sum of Mulliken charges =  -0.00000  -0.00000

 Dipole moment (field-independent basis, Debye):
    X=             -5.2998    Y=              0.0000    Z=             -1.8702  Tot=              5.6201
 Quadrupole moment (field-independent basis, Debye-Ang):
   XX=            -13.9355   YY=            -13.4502   ZZ=            -14.5928
   XY=              0.0000   XZ=             -3.6807   YZ=              0.0000

 Normal termination of Gaussian 16 at Mon Apr 21 17:53:04 2025.
