 Gaussian 16, Revision A.03,
 Gaussian 16:  ES64L-G16RevA.03 25-Dec-2016

 --------------------------------------------
 #p opt UM062X/6-311+G** nosymm int=superfine
 --------------------------------------------

 -------------------
 Title Card Required
 -------------------
 Symbolic Z-matrix:
 Charge =  0 Multiplicity = 1

 SCF Done:  E(UM062X) =  -94.3278754401     A.U. after   14 cycles
 SCF Done:  E(UM062X) =  -94.3373214870     A.U. after   12 cycles
 SCF Done:  E(UM062X) =  -94.3384632542     A.U. after   14 cycles
 SCF Done:  E(UM062X) =  -94.3385139246     A.U. after   18 cycles
 SCF Done:  E(UM062X) =  -94.3375745848     A.U. after   14 cycles
 SCF Done:  E(UM062X) =  -94.3385697286     A.U. after   15 cycles
 SCF Done:  E(UM062X) =  -94.3385470542     A.U. after   14 cycles
 SCF Done:  E(UM062X) =  -94.3385765901     A.U. after   15 cycles
 SCF Done:  E(UM062X) =  -94.3385767786     A.U. after   12 cycles
 SCF Done:  E(UM062X) =  -94.3385768882     A.U. after   11 cycles
 Optimization completed.
    -- Stationary point found.

                          Input orientation:
 ---------------------------------------------------------------------
 Center     Atomic      Atomic             Coordinates (Angstroms)
 Number     Number       Type             X           Y           Z
 ---------------------------------------------------------------------
      1          6           0       -1.106637    0.000000    0.000000
      2          7           0        1.106637    0.000000    0.000000
      3          1           0       -1.656310   -0.935611    0.004751
      4          1           0        1.083340   -1.033947    0.005200
      5          1           0       -1.543932    0.990835   -0.004716
 ---------------------------------------------------------------------

 Alpha  occ. eigenvalues --  -14.81732 -10.67061  -0.87721  -0.78170  -0.55363
 Alpha  occ. eigenvalues --   -0.43417  -0.35861  -0.29036
 Alpha virt. eigenvalues --   -0.12059  -0.04911   0.02057   0.04689   0.06361
 Alpha virt. eigenvalues --    0.07856   0.12498   0.15014   0.15847   0.17295
 Alpha virt. eigenvalues --    0.20377   0.21752   0.26944   0.41288   0.42793

  Beta  occ. eigenvalues --  -14.81732 -10.67061  -0.87721  -0.78170  -0.55363
  Beta  occ. eigenvalues --   -0.43417  -0.35861  -0.29036
  Beta virt. eigenvalues --   -0.12059  -0.04911   0.02057   0.04689   0.06361
  Beta virt. eigenvalues --    0.07856   0.12498   0.15014   0.15847   0.17295
  Beta virt. eigenvalues --    0.20377   0.21752   0.26944   0.41288   0.42793

 Mulliken charges and spin densities:
               1          2
     1  C   -0.310882  -0.000000
     2  N   -0.278288   0.000000
     3  H    0.193878   0.000000
     4  H    0.194190  -0.000000
     5  H    0.201101   0.000000
 Sum of Mulliken charges =  -0.00000   0.00000

 Dipole moment (field-independent basis, Debye):
    X=             -3.0199    Y=             -1.4516    Z=              0.0077  Tot=              3.3506
 Quadrupole moment (field-independent basis, Debye-Ang):
   XX=            -11.4378   YY=            -11.6392   ZZ=            -15.8013
   XY=             -2.0052   XZ=              0.0100   YZ=             -0.0207

 Normal termination of Gaussian 16 at Mon Apr 21 18:23:08 2025.
