 Gaussian 16, Revision A.03,
 Gaussian 16:  ES64L-G16RevA.03 25-Dec-2016

 --------------------------------------------
 #p opt UM062X/6-311+G** nosymm int=superfine
 --------------------------------------------

 -------------------
 Title Card Required
 -------------------
 Symbolic Z-matrix:
 Charge =  0 Multiplicity = 3

 SCF Done:  E(UM062X) =  -50.4976584699     A.U. after   13 cycles
 SCF Done:  E(UM062X) =  -50.4985720044     A.U. after   10 cycles
 SCF Done:  E(UM062X) =  -50.4985787262     A.U. after    9 cycles
 Optimization completed.
    -- Stationary point found.

                          Input orientation:
 ---------------------------------------------------------------------
 Center     Atomic      Atomic             Coordinates (Angstroms)
 Number     Number       Type             X           Y           Z
 ---------------------------------------------------------------------
      1          5           0       -1.678410    0.000000    0.000000
      2          5           0        1.678410    0.000000    0.000000
      3          1           0       -2.883788   -0.000082   -0.000000
      4          1           0        2.883788    0.000082    0.000000
 ---------------------------------------------------------------------

 Alpha  occ. eigenvalues --   -7.14103  -7.14102  -0.56765  -0.56370  -0.34482
 Alpha  occ. eigenvalues --   -0.28752  -0.18408
 Alpha virt. eigenvalues --   -0.08962  -0.06606  -0.04817   0.02643   0.02786
 Alpha virt. eigenvalues --    0.05958   0.07169   0.07210   0.08140   0.08257
 Alpha virt. eigenvalues --    0.11905   0.18292   0.22600   0.34733   0.39112

  Beta  occ. eigenvalues --   -7.13179  -7.13178  -0.53411  -0.53155  -0.25525
  Beta virt. eigenvalues --   -0.08835  -0.04761  -0.04262  -0.02476  -0.02019
  Beta virt. eigenvalues --    0.01737   0.02559   0.06978   0.07305   0.07355
  Beta virt. eigenvalues --    0.08282   0.09288   0.09652   0.19344   0.23901

 Mulliken charges and spin densities:
               1          2
     1  B   -0.066895   0.919450
     2  B   -0.066896   0.919458
     3  H    0.066895   0.080546
     4  H    0.066896   0.080546
 Sum of Mulliken charges =  -0.00000   2.00000

 Dipole moment (field-independent basis, Debye):
    X=             -0.0000    Y=              0.0000    Z=              0.0000  Tot=              0.0000
 Quadrupole moment (field-independent basis, Debye-Ang):
   XX=             -9.2952   YY=            -13.6006   ZZ=            -17.6493
   XY=              0.0000   XZ=              0.0000   YZ=              0.0018

 1\1\GINC-NODE01\FOpt\UM062X\6-311+G(d,p)\B2H2(3)\SZHAO\21-Apr-2025\0\\
 #p opt UM062X/6-311+G** nosymm int=superfine\\Title Card Required\\0,3
 \B,-1.67841047,0.,0.\B,1.67841047,0.,0.\H,-2.8837884017,-0.0000822141,
 -0.0000000337\H,2.8837883994,0.0000822145,0.0000000412\\Version=ES64L-
 G16RevA.03\HF=-50.4985787\S2=2.015286\S2-1=0.\S2A=2.000014\RMSD=4.308e
 -09\RMSF=5.242e-07\Dipole=-0.0000049,0.,0.\Quadrupole=3.1373426,-0.063
 6259,-3.0737167,0.0000121,0.,0.0013743\PG=C*V [C*(H1B1B1H1)]\\@

 Normal termination of Gaussian 16 at Mon Apr 21 17:26:51 2025.
