 Gaussian 16, Revision A.03,
 Gaussian 16:  ES64L-G16RevA.03 25-Dec-2016

 --------------------------------------------
 #p opt UM062X/6-311+G** nosymm int=superfine
 --------------------------------------------

 -------------------
 Title Card Required
 -------------------
 Symbolic Z-matrix:
 Charge =  0 Multiplicity = 1

 SCF Done:  E(UM062X) =  -437.159145058     A.U. after   16 cycles
 SCF Done:  E(UM062X) =  -437.161653713     A.U. after   16 cycles
 SCF Done:  E(UM062X) =  -437.162507264     A.U. after   17 cycles
 SCF Done:  E(UM062X) =  -437.162508264     A.U. after   11 cycles
 Optimization completed.
    -- Stationary point found.

                          Input orientation:
 ---------------------------------------------------------------------
 Center     Atomic      Atomic             Coordinates (Angstroms)
 Number     Number       Type             X           Y           Z
 ---------------------------------------------------------------------
      1          6           0       -2.027140    0.000000    0.000000
      2         16           0        2.027140    0.000000    0.000000
      3          1           0       -2.711869   -0.868933   -0.000079
      4          1           0       -2.712837    0.868168   -0.000205
 ---------------------------------------------------------------------

 Alpha  occ. eigenvalues --  -89.94199 -10.62787  -8.30241  -6.23026  -6.21449
 Alpha  occ. eigenvalues --   -6.21448  -0.77280  -0.74347  -0.49512  -0.33159
 Alpha  occ. eigenvalues --   -0.31686  -0.31678
 Alpha virt. eigenvalues --   -0.16666  -0.09768   0.01424   0.04682   0.05426
 Alpha virt. eigenvalues --    0.06480   0.08022   0.08871   0.08878   0.13952
 Alpha virt. eigenvalues --    0.17303   0.18521   0.35086   0.36659   0.36736

  Beta  occ. eigenvalues --  -89.94199 -10.62787  -8.30241  -6.23026  -6.21449
  Beta  occ. eigenvalues --   -6.21448  -0.77280  -0.74347  -0.49512  -0.33159
  Beta  occ. eigenvalues --   -0.31686  -0.31678
  Beta virt. eigenvalues --   -0.16666  -0.09768   0.01424   0.04682   0.05426
  Beta virt. eigenvalues --    0.06480   0.08022   0.08871   0.08878   0.13952
  Beta virt. eigenvalues --    0.17303   0.18521   0.35086   0.36659   0.36736

 Mulliken charges and spin densities:
               1          2
     1  C   -0.278716   0.000000
     2  S   -0.006522  -0.000000
     3  H    0.142614  -0.000000
     4  H    0.142623   0.000000
 Sum of Mulliken charges =  -0.00000   0.00000

 Dipole moment (field-independent basis, Debye):
    X=             -2.6792    Y=             -0.0011    Z=             -0.0004  Tot=              2.6792
 Quadrupole moment (field-independent basis, Debye-Ang):
   XX=            -10.2800   YY=            -22.3678   ZZ=            -21.7423
   XY=              0.0003   XZ=              0.0007   YZ=              0.0000

 Normal termination of Gaussian 16 at Mon Apr 21 19:40:23 2025.
