 Gaussian 16, Revision A.03,
 Gaussian 16:  ES64L-G16RevA.03 25-Dec-2016

 --------------------------------------------
 #p opt UM062X/6-311+G** nosymm int=superfine
 --------------------------------------------

 -------------------
 Title Card Required
 -------------------
 Symbolic Z-matrix:
 Charge =  0 Multiplicity = 4

 SCF Done:  E(UM062X) =  -341.240817125     A.U. after    9 cycles

 Alpha  occ. eigenvalues --  -78.05754  -6.87403  -4.99624  -4.99624  -4.99624
 Alpha  occ. eigenvalues --   -0.67001  -0.30707  -0.30707  -0.30707
 Alpha virt. eigenvalues --    0.04920   0.04920   0.04920   0.04969   0.32776
 Alpha virt. eigenvalues --    0.32776   0.32776   0.49971   0.66392   0.66392
 Alpha virt. eigenvalues --    0.66392   0.66392   0.66392   1.52293   1.52293

  Beta  occ. eigenvalues --  -78.03643  -6.86674  -4.97089  -4.97089  -4.97089
  Beta  occ. eigenvalues --   -0.52820
  Beta virt. eigenvalues --   -0.08799  -0.08799  -0.08799   0.03536   0.10917
  Beta virt. eigenvalues --    0.10917   0.10917   0.29413   0.29413   0.29413
  Beta virt. eigenvalues --    0.55675   0.79086   0.79086   0.79086   0.79086

 Mulliken charges and spin densities:
               1          2
     1  P    0.000000   3.000000
 Sum of Mulliken charges =   0.00000   3.00000

 Dipole moment (field-independent basis, Debye):
    X=             -0.0000    Y=             -0.0000    Z=              0.0000  Tot=              0.0000
 Quadrupole moment (field-independent basis, Debye-Ang):
   XX=            -13.5836   YY=            -13.5836   ZZ=            -13.5836
   XY=              0.0000   XZ=             -0.0000   YZ=             -0.0000

 Optimization completed.
    -- Stationary point found.

                          Input orientation:
 ---------------------------------------------------------------------
 Center     Atomic      Atomic             Coordinates (Angstroms)
 Number     Number       Type             X           Y           Z
 ---------------------------------------------------------------------
      1         15           0        0.794427    0.000000    0.000000
 ---------------------------------------------------------------------

 Normal termination of Gaussian 16 at Wed Apr 16 08:38:40 2025.
