 Gaussian 16, Revision A.03,
 Gaussian 16:  ES64L-G16RevA.03 25-Dec-2016

 ---------------------------------------------------------
 #p opt UM062X/6-311+G** nosymm int=superfine SCF=NoVarAcc
 ---------------------------------------------------------

 -------------------
 Title Card Required
 -------------------
 Symbolic Z-matrix:
 Charge =  1 Multiplicity = 2

 SCF Done:  E(UM062X) =  -76.5840393238     A.U. after   18 cycles
 SCF Done:  E(UM062X) =  -76.5843920340     A.U. after   10 cycles
 Optimization completed.
    -- Stationary point found.

                          Input orientation:
 ---------------------------------------------------------------------
 Center     Atomic      Atomic             Coordinates (Angstroms)
 Number     Number       Type             X           Y           Z
 ---------------------------------------------------------------------
      1          6           0       -5.882160    0.000000    0.000000
      2          6           0        5.882160    0.000000    0.000000
      3          1           0       -7.000142   -0.000000   -0.000000
      4          1           0        7.000141    0.000000   -0.000000
 ---------------------------------------------------------------------

 Alpha  occ. eigenvalues --  -10.91238 -10.91238  -0.95030  -0.95027  -0.60061
 Alpha  occ. eigenvalues --   -0.60060  -0.42383
 Alpha virt. eigenvalues --   -0.39972  -0.29974  -0.29974  -0.08963  -0.08962
 Alpha virt. eigenvalues --   -0.03678  -0.03676  -0.03535  -0.03511  -0.03508
 Alpha virt. eigenvalues --   -0.03488   0.02439   0.02449   0.30671   0.30700

  Beta  occ. eigenvalues --  -10.90824 -10.90824  -0.92667  -0.92667  -0.58669
  Beta  occ. eigenvalues --   -0.58669
  Beta virt. eigenvalues --   -0.28091  -0.28091  -0.26458  -0.26458  -0.09167
  Beta virt. eigenvalues --   -0.09167  -0.03544  -0.03498  -0.02883  -0.02881
  Beta virt. eigenvalues --   -0.01958  -0.01956   0.04244   0.04255   0.30006

 Mulliken charges and spin densities:
               1          2
     1  C    0.298333   0.515482
     2  C    0.298333   0.515482
     3  H    0.201667  -0.015482
     4  H    0.201667  -0.015482
 Sum of Mulliken charges =   1.00000   1.00000

 Dipole moment (field-independent basis, Debye):
    X=             -0.0000    Y=              0.0000    Z=              0.0000  Tot=              0.0000
 Quadrupole moment (field-independent basis, Debye-Ang):
   XX=            201.2225   YY=            -10.1900   ZZ=            -10.7242
   XY=             -0.0000   XZ=              0.0000   YZ=              0.9540

 Normal termination of Gaussian 16 at Tue Dec  3 17:44:14 2024.
