 Gaussian 16, Revision A.03,
 Gaussian 16:  ES64L-G16RevA.03 25-Dec-2016

 --------------------------------------------
 #p opt UM062X/6-311+G** nosymm int=superfine
 --------------------------------------------

 -------------------
 Title Card Required
 -------------------
 Symbolic Z-matrix:
 Charge =  0 Multiplicity = 1

 SCF Done:  E(UM062X) =  -78.1984686106     A.U. after    9 cycles
 SCF Done:  E(UM062X) =  -78.2155698600     A.U. after    9 cycles
 SCF Done:  E(UM062X) =  -78.2313513443     A.U. after    8 cycles
 SCF Done:  E(UM062X) =  -78.2317226464     A.U. after    8 cycles
 SCF Done:  E(UM062X) =  -78.2317241966     A.U. after    7 cycles
 Optimization completed.
    -- Stationary point found.

                          Input orientation:
 ---------------------------------------------------------------------
 Center     Atomic      Atomic             Coordinates (Angstroms)
 Number     Number       Type             X           Y           Z
 ---------------------------------------------------------------------
      1          6           0       -1.835595    0.000000    0.000000
      2          6           0        1.835595    0.000000    0.000000
      3          1           0       -2.543781   -0.857499   -0.000000
      4          1           0       -2.543747    0.857528   -0.000000
      5          1           0        2.543781    0.857499    0.000000
      6          1           0        2.543747   -0.857528    0.000000
 ---------------------------------------------------------------------

 Alpha  occ. eigenvalues --  -10.59231 -10.59231  -0.74279  -0.74197  -0.45937
 Alpha  occ. eigenvalues --   -0.45864  -0.30980  -0.28382
 Alpha virt. eigenvalues --   -0.07193  -0.06508   0.02542   0.03356   0.06668
 Alpha virt. eigenvalues --    0.08614   0.08801   0.10446   0.12524   0.15447
 Alpha virt. eigenvalues --    0.17580   0.19966   0.20966   0.22563   0.45404

  Beta  occ. eigenvalues --  -10.59231 -10.59231  -0.74279  -0.74197  -0.45937
  Beta  occ. eigenvalues --   -0.45864  -0.30980  -0.28382
  Beta virt. eigenvalues --   -0.07193  -0.06508   0.02542   0.03356   0.06668
  Beta virt. eigenvalues --    0.08614   0.08801   0.10446   0.12524   0.15447
  Beta virt. eigenvalues --    0.17580   0.19966   0.20966   0.22563   0.45404

 Mulliken charges and spin densities:
               1          2
     1  C   -0.237147  -0.000000
     2  C   -0.237147   0.000000
     3  H    0.118574   0.000000
     4  H    0.118573   0.000000
     5  H    0.118574  -0.000000
     6  H    0.118573   0.000000
 Sum of Mulliken charges =  -0.00000   0.00000

 Dipole moment (field-independent basis, Debye):
    X=             -0.0000    Y=              0.0000    Z=              0.0000  Tot=              0.0000
 Quadrupole moment (field-independent basis, Debye-Ang):
   XX=             -4.9401   YY=            -14.7170   ZZ=            -12.9627
   XY=             -0.0001   XZ=              0.0000   YZ=              0.0000

 Normal termination of Gaussian 16 at Tue Dec  3 11:15:36 2024.
