 Gaussian 16, Revision A.03,
 Gaussian 16:  ES64L-G16RevA.03 25-Dec-2016

 --------------------------------------------
 #p opt UM062X/6-311+G** nosymm int=superfine
 --------------------------------------------

 -------------------
 Title Card Required
 -------------------
 Symbolic Z-matrix:
 Charge =  0 Multiplicity = 1

 SCF Done:  E(UM062X) =  -381.118977501     A.U. after   13 cycles
 SCF Done:  E(UM062X) =  -381.156249895     A.U. after   12 cycles
 SCF Done:  E(UM062X) =  -381.188321590     A.U. after   12 cycles
 SCF Done:  E(UM062X) =  -381.191321923     A.U. after   11 cycles
 SCF Done:  E(UM062X) =  -381.191663884     A.U. after   10 cycles
 SCF Done:  E(UM062X) =  -381.191732546     A.U. after   10 cycles
 SCF Done:  E(UM062X) =  -381.191736681     A.U. after    8 cycles
 Optimization completed.
    -- Stationary point found.

                          Input orientation:
 ---------------------------------------------------------------------
 Center     Atomic      Atomic             Coordinates (Angstroms)
 Number     Number       Type             X           Y           Z
 ---------------------------------------------------------------------
      1          6           0       -0.767195    0.077174    0.000565
      2         15           0        0.775032    0.693729    0.001614
      3          1           0       -1.013731   -0.978626   -0.001957
      4          1           0        1.466300   -0.549356   -0.002914
      5          1           0       -1.613065    0.757217    0.002407
 ---------------------------------------------------------------------

 Alpha  occ. eigenvalues --  -78.02052 -10.56200  -6.84803  -4.96344  -4.96307
 Alpha  occ. eigenvalues --   -4.96075  -0.82313  -0.63878  -0.51835  -0.43781
 Alpha  occ. eigenvalues --   -0.33634  -0.32670
 Alpha virt. eigenvalues --   -0.03625   0.01018   0.03121   0.04062   0.04799
 Alpha virt. eigenvalues --    0.06244   0.08027   0.09994   0.11152   0.15513
 Alpha virt. eigenvalues --    0.16847   0.19414   0.21528   0.31164   0.32687

  Beta  occ. eigenvalues --  -78.02052 -10.56200  -6.84803  -4.96344  -4.96307
  Beta  occ. eigenvalues --   -4.96075  -0.82313  -0.63878  -0.51835  -0.43781
  Beta  occ. eigenvalues --   -0.33634  -0.32670
  Beta virt. eigenvalues --   -0.03625   0.01018   0.03121   0.04062   0.04799
  Beta virt. eigenvalues --    0.06244   0.08027   0.09994   0.11152   0.15513
  Beta virt. eigenvalues --    0.16847   0.19414   0.21528   0.31164   0.32687

 Mulliken charges and spin densities:
               1          2
     1  C   -0.425057   0.000000
     2  P    0.113155  -0.000000
     3  H    0.178667  -0.000000
     4  H   -0.046311   0.000000
     5  H    0.179546   0.000000
 Sum of Mulliken charges =  -0.00000  -0.00000

 Dipole moment (field-independent basis, Debye):
    X=             -0.4251    Y=             -0.7942    Z=             -0.0020  Tot=              0.9008
 Quadrupole moment (field-independent basis, Debye-Ang):
   XX=            -19.2663   YY=            -21.3383   ZZ=            -22.0117
   XY=             -1.0966   XZ=             -0.0039   YZ=              0.0021

 Normal termination of Gaussian 16 at Wed Apr 16 03:19:31 2025.
