 Gaussian 16, Revision A.03,
 Gaussian 16:  ES64L-G16RevA.03 25-Dec-2016

 ---------------------------------------
 #p UM062X/6-311+G** force int=superfine
 ---------------------------------------

 -------------------
 Title Card Required
 -------------------
 Symbolic Z-matrix:
 Charge =  1 Multiplicity = 2

                         Standard orientation:
 ---------------------------------------------------------------------
 Center     Atomic      Atomic             Coordinates (Angstroms)
 Number     Number       Type             X           Y           Z
 ---------------------------------------------------------------------
      1          6           0        0.000000    0.586720    0.000000
      2          6           0       -0.000000   -0.586720    0.000000
      3          1           0       -0.910774    1.186888    0.000000
      4          1           0        0.910797    1.186881    0.000000
      5          1           0        0.910774   -1.186888    0.000000
      6          1           0       -0.910797   -1.186881    0.000000
 ---------------------------------------------------------------------

 SCF Done:  E(UM062X) =  -78.0787896301     A.U. after    9 cycles

 The electronic state is 2-AG.
 Alpha  occ. eigenvalues --  -10.83665 -10.83336  -1.22058  -0.98232  -0.89141
 Alpha  occ. eigenvalues --   -0.83364  -0.72785  -0.66928
 Alpha virt. eigenvalues --   -0.20876  -0.15180  -0.14297  -0.12861  -0.10102
 Alpha virt. eigenvalues --   -0.08422  -0.07118  -0.05086  -0.04459  -0.03447
 Alpha virt. eigenvalues --   -0.00662   0.02965   0.11985   0.14680   0.20695

  Beta  occ. eigenvalues --  -10.83623 -10.83281  -1.20257  -0.93108  -0.82721
  Beta  occ. eigenvalues --   -0.80564  -0.66426
  Beta virt. eigenvalues --   -0.51246  -0.20376  -0.15140  -0.13910  -0.12652
  Beta virt. eigenvalues --   -0.09977  -0.08206  -0.06000  -0.04808  -0.03024
  Beta virt. eigenvalues --   -0.02843  -0.00283   0.03554   0.12301   0.14958

 Mulliken charges and spin densities:
               1          2
     1  C   -0.144201   0.134890
     2  C   -0.144201   0.134890
     3  H    0.322097   0.182547
     4  H    0.322104   0.182563
     5  H    0.322097   0.182547
     6  H    0.322104   0.182563
 Sum of Mulliken charges =   1.00000   1.00000

 Dipole moment (field-independent basis, Debye):
    X=             -0.0000    Y=              0.0000    Z=              0.0000  Tot=              0.0000
 Quadrupole moment (field-independent basis, Debye-Ang):
   XX=             -6.4596   YY=             -4.1814   ZZ=            -13.0183
   XY=              0.0002   XZ=              0.0000   YZ=              0.0000

 Normal termination of Gaussian 16 at Tue Nov 19 11:53:09 2024.
