 Gaussian 16, Revision A.03,
 Gaussian 16:  ES64L-G16RevA.03 25-Dec-2016

 ----------------------------------------------------------------------
 #p opt UM062X/6-311+G** nosymm int=superfine SCF=(MaxCycle=200,NoVarAc
 c,noincfock) guess=read
 ----------------------------------------------------------------------

 -------------------
 Title Card Required
 -------------------
 Symbolic Z-matrix:
 Charge =  1 Multiplicity = 2

 SCF Done:  E(UM062X) =  -92.6445552057     A.U. after   50 cycles
 SCF Done:  E(UM062X) =  -92.6449862774     A.U. after   41 cycles
 SCF Done:  E(UM062X) =  -92.6449912805     A.U. after   10 cycles
 Optimization completed.
    -- Stationary point found.

                          Input orientation:
 ---------------------------------------------------------------------
 Center     Atomic      Atomic             Coordinates (Angstroms)
 Number     Number       Type             X           Y           Z
 ---------------------------------------------------------------------
      1          6           0       -1.476540    0.000000    0.000000
      2          7           0        1.476540    0.000000    0.000000
      3          1           0       -2.599443    0.000000    0.000000
 ---------------------------------------------------------------------

 Alpha  occ. eigenvalues --  -15.11846 -11.02595  -1.15145  -0.99787  -0.67041
 Alpha  occ. eigenvalues --   -0.67022  -0.63899
 Alpha virt. eigenvalues --   -0.46784  -0.37520  -0.33768  -0.15830  -0.10018
 Alpha virt. eigenvalues --   -0.09430  -0.08496  -0.04313  -0.01327  -0.01163
 Alpha virt. eigenvalues --    0.00080   0.08043   0.22915   0.30127   0.30269

  Beta  occ. eigenvalues --  -15.08016 -11.05123  -1.09146  -0.93580  -0.78913
  Beta  occ. eigenvalues --   -0.67693
  Beta virt. eigenvalues --   -0.43281  -0.28826  -0.28031  -0.27989  -0.15778
  Beta virt. eigenvalues --   -0.11407  -0.09393  -0.09287  -0.06655  -0.00038
  Beta virt. eigenvalues --    0.00469   0.00564   0.05490   0.22872   0.29753

 Mulliken charges and spin densities:
               1          2
     1  C    0.389144  -1.641855
     2  N    0.246814   2.749448
     3  H    0.364042  -0.107593
 Sum of Mulliken charges =   1.00000   1.00000

 Dipole moment (field-independent basis, Debye):
    X=             -5.3438    Y=             -0.0000    Z=              0.0000  Tot=              5.3438
 Quadrupole moment (field-independent basis, Debye-Ang):
   XX=              8.3762   YY=             -9.3560   ZZ=            -10.6985
   XY=              0.0000   XZ=             -0.0000   YZ=              0.4489

 Normal termination of Gaussian 16 at Mon Apr 21 23:40:27 2025.
