 Gaussian 16, Revision A.03,
 Gaussian 16:  ES64L-G16RevA.03 25-Dec-2016

 --------------------------------------------
 #p opt UM062X/6-311+G** nosymm int=superfine
 --------------------------------------------

 -------------------
 Title Card Required
 -------------------
 Symbolic Z-matrix:
 Charge =  0 Multiplicity = 3

 SCF Done:  E(UM062X) =  -50.7343012673     A.U. after   10 cycles

 Alpha  occ. eigenvalues --   -7.08946  -7.08892  -0.60432  -0.53335  -0.43737
 Alpha  occ. eigenvalues --   -0.26117  -0.26117
 Alpha virt. eigenvalues --    0.00142   0.00142   0.02442   0.02476   0.05639
 Alpha virt. eigenvalues --    0.05639   0.07130   0.08353   0.08353   0.09894
 Alpha virt. eigenvalues --    0.14427   0.22654   0.30241   0.35611   0.39278

  Beta  occ. eigenvalues --   -7.08713  -7.08639  -0.55048  -0.51506  -0.42619
  Beta virt. eigenvalues --   -0.07186  -0.07186   0.00970   0.02742   0.02742
  Beta virt. eigenvalues --    0.03032   0.05272   0.09021   0.09021   0.09283
  Beta virt. eigenvalues --    0.13218   0.13218   0.16897   0.23908   0.32882

 Mulliken charges and spin densities:
               1          2
     1  B   -0.068955   1.034050
     2  B   -0.068955   1.034050
     3  H    0.068955  -0.034050
     4  H    0.068955  -0.034050
 Sum of Mulliken charges =  -0.00000   2.00000

 Dipole moment (field-independent basis, Debye):
    X=             -0.0000    Y=              0.0000    Z=              0.0000  Tot=              0.0000
 Quadrupole moment (field-independent basis, Debye-Ang):
   XX=            -12.0184   YY=            -14.8242   ZZ=            -14.8242
   XY=              0.0001   XZ=              0.0000   YZ=             -0.0000

 Optimization completed.
    -- Stationary point found.

                          Input orientation:
 ---------------------------------------------------------------------
 Center     Atomic      Atomic             Coordinates (Angstroms)
 Number     Number       Type             X           Y           Z
 ---------------------------------------------------------------------
      1          5           0       -0.853410    0.000000    0.000000
      2          5           0        0.853410    0.000000    0.000000
      3          1           0       -2.025953   -0.000080    0.000000
      4          1           0        2.025953    0.000080    0.000000
 ---------------------------------------------------------------------

 1\1\GINC-NODE06\FOpt\UM062X\6-311+G(d,p)\B2H2(3)\SZHAO\21-Apr-2025\0\\
 #p opt UM062X/6-311+G** nosymm int=superfine\\Title Card Required\\0,3
 \B,-0.85341047,0.,0.\B,0.85341047,0.,0.\H,-2.02595276,-0.00008027,0.\H
 ,2.02595276,0.00008027,0.\\Version=ES64L-G16RevA.03\HF=-50.7343013\S2=
 2.006195\S2-1=0.\S2A=2.000014\RMSD=2.196e-09\RMSF=1.660e-04\Dipole=0.,
 0.,0.\Quadrupole=1.390671,-0.6953355,-0.6953355,0.0000382,0.,0.\PG=C*V
  [C*(H1B1B1H1)]\\@

 Normal termination of Gaussian 16 at Mon Apr 21 17:27:20 2025.
