 Gaussian 16, Revision A.03,
 Gaussian 16:  ES64L-G16RevA.03 25-Dec-2016

 ---------------------------------------
 #p UM062X/6-311+G** force int=superfine
 ---------------------------------------

 -------------------
 Title Card Required
 -------------------
 Symbolic Z-matrix:
 Charge =  1 Multiplicity = 2

                         Standard orientation:
 ---------------------------------------------------------------------
 Center     Atomic      Atomic             Coordinates (Angstroms)
 Number     Number       Type             X           Y           Z
 ---------------------------------------------------------------------
      1          6           0        0.000000    0.918960    0.000000
      2          6           0       -0.000000   -0.918960    0.000000
      3          1           0        0.969221    1.405975    0.000000
      4          1           0       -0.969151    1.406007    0.000000
      5          1           0       -0.969221   -1.405975    0.000000
      6          1           0        0.969151   -1.406007    0.000000
 ---------------------------------------------------------------------

 SCF Done:  E(UM062X) =  -78.1083462753     A.U. after    9 cycles

 The electronic state is 2-AU.
 Alpha  occ. eigenvalues --  -10.91779 -10.91758  -1.09110  -0.99503  -0.81455
 Alpha  occ. eigenvalues --   -0.76558  -0.70860  -0.58688
 Alpha virt. eigenvalues --   -0.34968  -0.18791  -0.14332  -0.11227  -0.09172
 Alpha virt. eigenvalues --   -0.08695  -0.07349  -0.07343  -0.04719  -0.04391
 Alpha virt. eigenvalues --   -0.02012  -0.01194   0.02470   0.09608   0.18346

  Beta  occ. eigenvalues --  -10.91550 -10.91535  -1.05833  -0.97357  -0.80791
  Beta  occ. eigenvalues --   -0.76206  -0.69529
  Beta virt. eigenvalues --   -0.36980  -0.26670  -0.16617  -0.15831  -0.11599
  Beta virt. eigenvalues --   -0.08704  -0.08453  -0.07920  -0.07330  -0.04425
  Beta virt. eigenvalues --   -0.04006  -0.01603  -0.00578   0.01794   0.10210

 Mulliken charges and spin densities:
               1          2
     1  C   -0.064620   0.540386
     2  C   -0.064620   0.540386
     3  H    0.282312  -0.020194
     4  H    0.282308  -0.020193
     5  H    0.282312  -0.020194
     6  H    0.282308  -0.020193
 Sum of Mulliken charges =   1.00000   1.00000

 Dipole moment (field-independent basis, Debye):
    X=             -0.0000    Y=              0.0000    Z=              0.0000  Tot=              0.0000
 Quadrupole moment (field-independent basis, Debye-Ang):
   XX=             -8.2571   YY=             -3.2813   ZZ=            -12.2635
   XY=              0.0001   XZ=             -0.0000   YZ=             -0.0000

 Normal termination of Gaussian 16 at Tue Nov 19 11:55:45 2024.
