 Gaussian 16, Revision A.03,
 Gaussian 16:  ES64L-G16RevA.03 25-Dec-2016

 --------------------------------------------
 #p opt UM062X/6-311+G** nosymm int=superfine
 --------------------------------------------

 -------------------
 Title Card Required
 -------------------
 Symbolic Z-matrix:
 Charge =  0 Multiplicity = 1

 SCF Done:  E(UM062X) =  -380.935295968     A.U. after   19 cycles
 SCF Done:  E(UM062X) =  -380.937721238     A.U. after   15 cycles
 SCF Done:  E(UM062X) =  -380.938699783     A.U. after   15 cycles
 SCF Done:  E(UM062X) =  -380.938798877     A.U. after   16 cycles
 SCF Done:  E(UM062X) =  -380.938919719     A.U. after   16 cycles
 SCF Done:  E(UM062X) =  -380.939029783     A.U. after   23 cycles
 SCF Done:  E(UM062X) =  -380.939091735     A.U. after   20 cycles
 SCF Done:  E(UM062X) =  -380.939095225     A.U. after   13 cycles
 SCF Done:  E(UM062X) =  -380.939096577     A.U. after   13 cycles
 SCF Done:  E(UM062X) =  -380.939099043     A.U. after   15 cycles
 SCF Done:  E(UM062X) =  -380.939101345     A.U. after   16 cycles
 SCF Done:  E(UM062X) =  -380.939103441     A.U. after   20 cycles
 SCF Done:  E(UM062X) =  -380.939104171     A.U. after   15 cycles
 SCF Done:  E(UM062X) =  -380.939104835     A.U. after   15 cycles
 SCF Done:  E(UM062X) =  -380.939104974     A.U. after   15 cycles
 SCF Done:  E(UM062X) =  -380.939104983     A.U. after   18 cycles
 Optimization completed.
    -- Stationary point found.

                          Input orientation:
 ---------------------------------------------------------------------
 Center     Atomic      Atomic             Coordinates (Angstroms)
 Number     Number       Type             X           Y           Z
 ---------------------------------------------------------------------
      1          6           0       -1.830452    0.000000    0.000000
      2         15           0        1.830452    0.000000    0.000000
      3          1           0       -2.535974   -0.850370   -0.000362
      4          1           0        1.578966   -1.398919   -0.005083
      5          1           0       -2.481471    0.892611    0.000686
 ---------------------------------------------------------------------

 Alpha  occ. eigenvalues --  -78.04082 -10.63335  -6.86309  -4.98306  -4.97552
 Alpha  occ. eigenvalues --   -4.97104  -0.77639  -0.65070  -0.50053  -0.37795
 Alpha  occ. eigenvalues --   -0.33684  -0.23935
 Alpha virt. eigenvalues --   -0.10534  -0.10117   0.01245   0.04010   0.04724
 Alpha virt. eigenvalues --    0.06218   0.06928   0.07484   0.08766   0.11088
 Alpha virt. eigenvalues --    0.13545   0.17095   0.18499   0.31248   0.34237

  Beta  occ. eigenvalues --  -78.04082 -10.63335  -6.86309  -4.98306  -4.97552
  Beta  occ. eigenvalues --   -4.97104  -0.77639  -0.65070  -0.50053  -0.37795
  Beta  occ. eigenvalues --   -0.33684  -0.23935
  Beta virt. eigenvalues --   -0.10534  -0.10117   0.01245   0.04010   0.04724
  Beta virt. eigenvalues --    0.06218   0.06928   0.07484   0.08766   0.11088
  Beta virt. eigenvalues --    0.13545   0.17095   0.18499   0.31248   0.34237

 Mulliken charges and spin densities:
               1          2
     1  C   -0.299654  -0.000000
     2  P    0.034825   0.000000
     3  H    0.148762  -0.000000
     4  H   -0.032713  -0.000000
     5  H    0.148780  -0.000000
 Sum of Mulliken charges =  -0.00000  -0.00000

 Dipole moment (field-independent basis, Debye):
    X=             -2.8327    Y=             -0.5923    Z=             -0.0019  Tot=              2.8940
 Quadrupole moment (field-independent basis, Debye-Ang):
   XX=            -13.3135   YY=            -21.3466   ZZ=            -25.4418
   XY=             -1.8384   XZ=             -0.0055   YZ=              0.0161

 Normal termination of Gaussian 16 at Mon Apr 21 19:16:24 2025.
