 Gaussian 16, Revision A.03,
 Gaussian 16:  ES64L-G16RevA.03 25-Dec-2016

 --------------------------------------------
 #p opt UM062X/6-311+G** nosymm int=superfine
 --------------------------------------------

 -------------------
 Title Card Required
 -------------------
 Symbolic Z-matrix:
 Charge =  0 Multiplicity = 1

 SCF Done:  E(UM062X) =  -77.0893394770     A.U. after   11 cycles
 SCF Done:  E(UM062X) =  -77.1687984562     A.U. after    8 cycles
 SCF Done:  E(UM062X) =  -77.2587552935     A.U. after    9 cycles
 SCF Done:  E(UM062X) =  -77.2790020168     A.U. after    9 cycles
 SCF Done:  E(UM062X) =  -77.2802974977     A.U. after    8 cycles
 SCF Done:  E(UM062X) =  -77.2804575852     A.U. after    7 cycles
 Optimization completed.
    -- Stationary point found.

                          Input orientation:
 ---------------------------------------------------------------------
 Center     Atomic      Atomic             Coordinates (Angstroms)
 Number     Number       Type             X           Y           Z
 ---------------------------------------------------------------------
      1          6           0       -0.377837    0.000000    0.000000
      2          6           0        0.377837    0.000000    0.000000
      3          1           0       -1.114754   -0.839683    0.000000
      4          1           0       -1.114805    0.839502    0.000000
      5          1           0        1.114754    0.839683    0.000000
      6          1           0        1.114805   -0.839502   -0.000000
 ---------------------------------------------------------------------

 Alpha  occ. eigenvalues --  -10.57516 -10.46184  -0.93047  -0.63936  -0.60447
 Alpha  occ. eigenvalues --   -0.52719  -0.52677  -0.28194
 Alpha virt. eigenvalues --    0.02912   0.02948   0.04184   0.05749   0.08090
 Alpha virt. eigenvalues --    0.09378   0.09842   0.14802   0.15954   0.18749
 Alpha virt. eigenvalues --    0.25317   0.25393   0.36875   0.41753   0.43843

  Beta  occ. eigenvalues --  -10.57516 -10.46184  -0.93047  -0.63936  -0.60447
  Beta  occ. eigenvalues --   -0.52719  -0.52677  -0.28194
  Beta virt. eigenvalues --    0.02912   0.02948   0.04184   0.05749   0.08090
  Beta virt. eigenvalues --    0.09378   0.09842   0.14802   0.15954   0.18749
  Beta virt. eigenvalues --    0.25317   0.25393   0.36875   0.41753   0.43843

 Mulliken charges and spin densities:
               1          2
     1  C   -0.242706  -0.000000
     2  C   -0.242706   0.000000
     3  H    0.121334   0.000000
     4  H    0.121372   0.000000
     5  H    0.121334  -0.000000
     6  H    0.121372  -0.000000
 Sum of Mulliken charges =  -0.00000  -0.00000

 Dipole moment (field-independent basis, Debye):
    X=              0.0000    Y=              0.0000    Z=              0.0000  Tot=              0.0000
 Quadrupole moment (field-independent basis, Debye-Ang):
   XX=            -12.7219   YY=            -12.6254   ZZ=            -13.1275
   XY=             -0.0006   XZ=             -0.0000   YZ=             -0.0000

 Normal termination of Gaussian 16 at Tue Nov 19 10:14:21 2024.
