 Gaussian 16, Revision A.03,
 Gaussian 16:  ES64L-G16RevA.03 25-Dec-2016

 ---------------------------------------------------------------------
 #p opt UM062X/6-311+G** nosymm int=superfine SCF=(Tight,MaxCycle=200)
 ---------------------------------------------------------------------

 -------------------
 Title Card Required
 -------------------
 Symbolic Z-matrix:
 Charge =  1 Multiplicity = 2

 SCF Done:  E(UM062X) =  -1613.84056035     A.U. after   45 cycles
 SCF Done:  E(UM062X) =  -1614.08467591     A.U. after   29 cycles
 SCF Done:  E(UM062X) =  -1614.53776956     A.U. after   29 cycles
 SCF Done:  E(UM062X) =  -1615.19523901     A.U. after   28 cycles
 SCF Done:  E(UM062X) =  -1615.25377498     A.U. after   51 cycles
 SCF Done:  E(UM062X) =  -1615.46467425     A.U. after   30 cycles
 SCF Done:  E(UM062X) =  -1615.51969932     A.U. after   24 cycles
 SCF Done:  E(UM062X) =  -1615.54054366     A.U. after   25 cycles
 SCF Done:  E(UM062X) =  -1615.54791930     A.U. after   25 cycles
 SCF Done:  E(UM062X) =  -1615.55022037     A.U. after   22 cycles
 SCF Done:  E(UM062X) =  -1615.55188333     A.U. after   22 cycles
 SCF Done:  E(UM062X) =  -1615.55255042     A.U. after   22 cycles
 SCF Done:  E(UM062X) =  -1615.55282018     A.U. after   20 cycles
 SCF Done:  E(UM062X) =  -1615.55287030     A.U. after   20 cycles
 SCF Done:  E(UM062X) =  -1615.55291609     A.U. after   19 cycles
 SCF Done:  E(UM062X) =  -1615.55293056     A.U. after   18 cycles
 SCF Done:  E(UM062X) =  -1615.55293916     A.U. after   19 cycles
 SCF Done:  E(UM062X) =  -1615.55294215     A.U. after   17 cycles
 SCF Done:  E(UM062X) =  -1615.55294332     A.U. after   17 cycles
 SCF Done:  E(UM062X) =  -1615.55294380     A.U. after   16 cycles
 Optimization completed.
    -- Stationary point found.

                          Input orientation:
 ---------------------------------------------------------------------
 Center     Atomic      Atomic             Coordinates (Angstroms)
 Number     Number       Type             X           Y           Z
 ---------------------------------------------------------------------
      1          6           0       -0.884493   -0.000000   -0.000000
      2          6           0        0.884493    0.000000    0.000000
      3          6           0        0.000011   -2.196544   -0.010423
      4          6           0        0.000076   -3.556692   -0.016696
      5          6           0       -1.109564   -4.328255    0.361523
      6          6           0       -1.132871   -1.470514    0.363298
      7          6           0        0.643305   -5.723183   -0.248579
      8          1           0        1.231585   -6.605156   -0.458527
      9          6           0       -1.387994    0.952534    1.069035
     10          6           0       -0.642693   -5.725296    0.195979
     11          1           0       -1.230785   -6.609220    0.398115
     12          6           0        1.109879   -4.324644   -0.401682
     13          6           0        1.132876   -1.467009   -0.377252
     14          6           0        1.597876    2.363190   -0.899011
     15          6           0       -1.374731    0.165079   -1.457634
     16          6           0       -1.878170    3.140366    2.073590
     17          1           0       -2.033072    4.204175    1.933944
     18          6           0       -2.235319   -3.628247    0.757287
     19          1           0       -3.139726   -4.139516    1.067972
     20          6           0       -1.487486    1.400868   -2.153595
     21          6           0        2.247348   -2.182232   -0.766468
     22          1           0        3.167714   -1.674482   -1.035685
     23          6           0        1.374685    0.151186    1.459153
     24          6           0        1.487915    1.380315    2.166765
     25          6           0        2.235612   -3.620917   -0.790847
     26          1           0        3.140168   -4.129218   -1.105934
     27          6           0       -1.597652    2.354563    0.921375
     28          6           0       -1.489853    0.437069    2.366331
     29          1           0       -1.309669   -0.614693    2.533736
     30          6           0        1.619710   -1.006953    2.217829
     31          1           0        1.594362   -1.982708    1.761131
     32          6           0       -1.964711    2.599085    3.333332
     33          1           0       -2.180897    3.223779    4.190783
     34          6           0       -2.247237   -2.189397    0.746026
     35          1           0       -3.167608   -1.684231    1.020036
     36          6           0       -1.732474    1.414728   -3.545398
     37          1           0       -1.783771    2.376836   -4.042045
     38          6           0        1.388088    0.962618   -1.059936
     39          6           0       -1.517751    3.114941   -0.288536
     40          1           0       -1.554532    4.190064   -0.140000
     41          6           0       -1.936445    0.261022   -4.269477
     42          1           0       -2.134719    0.300919   -5.333095
     43          6           0       -1.418446    2.715228   -1.580159
     44          1           0       -1.391703    3.519034   -2.309659
     45          6           0        1.733037    1.380936    3.558619
     46          1           0        1.784680    2.338300    4.064311
     47          6           0       -1.767603    1.225316    3.476004
     48          1           0       -1.819508    0.761896    4.454111
     49          6           0       -1.620119   -0.985782   -2.227208
     50          1           0       -1.595130   -1.965798   -1.779696
     51          6           0        1.936703    0.220381    4.271758
     52          1           0        2.135166    0.250166    5.335672
     53          6           0        1.878282    3.159864   -2.043780
     54          1           0        2.033337    4.222282   -1.894092
     55          6           0        1.901307   -0.982337    3.578178
     56          1           0        2.083570   -1.918924    4.091230
     57          6           0        1.964556    2.630551   -3.308607
     58          1           0        2.180578    3.263336   -4.160147
     59          6           0        1.518307    3.112027    0.318059
     60          1           0        1.555313    4.188513    0.179804
     61          6           0       -1.901598   -0.948215   -3.587282
     62          1           0       -2.084156   -1.879839   -4.109188
     63          6           0        1.419079    2.700054    1.605862
     64          1           0        1.392595    3.496927    2.342933
     65          6           0        1.489806    0.459462   -2.362069
     66          1           0        1.309609   -0.590672   -2.539386
     67          6           0        1.767397    1.258187   -3.464259
     68          1           0        1.819077    0.804074   -4.446735
 ---------------------------------------------------------------------

 Alpha  occ. eigenvalues --  -10.71331 -10.71315 -10.68788 -10.68787 -10.68708
 Alpha  occ. eigenvalues --  -10.68707 -10.68282 -10.68282 -10.67716 -10.67716
 Alpha  occ. eigenvalues --  -10.67500 -10.67500 -10.67412 -10.67412 -10.66919
 Alpha  occ. eigenvalues --  -10.66918 -10.66879 -10.66878 -10.66030 -10.66029
 Alpha  occ. eigenvalues --  -10.65985 -10.65985 -10.65760 -10.65759 -10.65681
 Alpha  occ. eigenvalues --  -10.65680 -10.65629 -10.65629 -10.65328 -10.65328
 Alpha  occ. eigenvalues --  -10.65239 -10.65239 -10.64979 -10.64979 -10.64949
 Alpha  occ. eigenvalues --  -10.64949 -10.64512 -10.64512 -10.63778 -10.63682
 Alpha  occ. eigenvalues --  -10.63488 -10.62137  -1.13085  -1.10362  -1.09726
 Alpha  occ. eigenvalues --   -1.08564  -1.07944  -1.06290  -1.03548  -1.03047
 Alpha  occ. eigenvalues --   -1.02561  -1.00596  -0.99288  -0.98006  -0.97955
 Alpha  occ. eigenvalues --   -0.96900  -0.96220  -0.94602  -0.93438  -0.93412
 Alpha  occ. eigenvalues --   -0.92296  -0.91684  -0.88261  -0.86298  -0.84978
 Alpha  occ. eigenvalues --   -0.84834  -0.82327  -0.81694  -0.80930  -0.80065
 Alpha  occ. eigenvalues --   -0.79702  -0.79484  -0.77947  -0.76237  -0.75970
 Alpha  occ. eigenvalues --   -0.75239  -0.74908  -0.73819  -0.70276  -0.70075
 Alpha  occ. eigenvalues --   -0.68734  -0.68014  -0.67662  -0.67621  -0.67265
 Alpha  occ. eigenvalues --   -0.66908  -0.65412  -0.64961  -0.64907  -0.64517
 Alpha  occ. eigenvalues --   -0.63775  -0.63021  -0.62299  -0.61823  -0.61502
 Alpha  occ. eigenvalues --   -0.61441  -0.60569  -0.60333  -0.59990  -0.59592
 Alpha  occ. eigenvalues --   -0.59537  -0.58758  -0.58116  -0.57750  -0.57657
 Alpha  occ. eigenvalues --   -0.56963  -0.56056  -0.55993  -0.55650  -0.55539
 Alpha  occ. eigenvalues --   -0.55473  -0.54490  -0.54457  -0.52976  -0.52887
 Alpha  occ. eigenvalues --   -0.52486  -0.52084  -0.51950  -0.51580  -0.51186
 Alpha  occ. eigenvalues --   -0.50739  -0.50504  -0.50371  -0.48843  -0.48685
 Alpha  occ. eigenvalues --   -0.48368  -0.48047  -0.47734  -0.44055  -0.43739
 Alpha  occ. eigenvalues --   -0.43501  -0.42685  -0.41301  -0.40668  -0.39569
 Alpha  occ. eigenvalues --   -0.38239  -0.37467  -0.36850  -0.36236
 Alpha virt. eigenvalues --   -0.15992  -0.15202  -0.14928  -0.12242  -0.10443
 Alpha virt. eigenvalues --   -0.09839  -0.08928  -0.08922  -0.08500  -0.07767
 Alpha virt. eigenvalues --   -0.07646  -0.07592  -0.07208  -0.06578  -0.06279

  Beta  occ. eigenvalues --  -10.71309 -10.71295 -10.68762 -10.68761 -10.68673
  Beta  occ. eigenvalues --  -10.68672 -10.68263 -10.68263 -10.67676 -10.67675
  Beta  occ. eigenvalues --  -10.67490 -10.67490 -10.67362 -10.67362 -10.66875
  Beta  occ. eigenvalues --  -10.66874 -10.66807 -10.66806 -10.66053 -10.66052
  Beta  occ. eigenvalues --  -10.65980 -10.65980 -10.65744 -10.65744 -10.65707
  Beta  occ. eigenvalues --  -10.65707 -10.65629 -10.65629 -10.65308 -10.65308
  Beta  occ. eigenvalues --  -10.65237 -10.65236 -10.64987 -10.64987 -10.64959
  Beta  occ. eigenvalues --  -10.64959 -10.64511 -10.64511 -10.63778 -10.63682
  Beta  occ. eigenvalues --  -10.63489 -10.62137  -1.12980  -1.10244  -1.09514
  Beta  occ. eigenvalues --   -1.08429  -1.07800  -1.06187  -1.03484  -1.02776
  Beta  occ. eigenvalues --   -1.02329  -1.00508  -0.99200  -0.97806  -0.97784
  Beta  occ. eigenvalues --   -0.96829  -0.96154  -0.94574  -0.93182  -0.93170
  Beta  occ. eigenvalues --   -0.92188  -0.91557  -0.88106  -0.86195  -0.84806
  Beta  occ. eigenvalues --   -0.84668  -0.82266  -0.81575  -0.80861  -0.79930
  Beta  occ. eigenvalues --   -0.79615  -0.79404  -0.77787  -0.76073  -0.75833
  Beta  occ. eigenvalues --   -0.75116  -0.74894  -0.73726  -0.70131  -0.69962
  Beta  occ. eigenvalues --   -0.68665  -0.67853  -0.67599  -0.67475  -0.67125
  Beta  occ. eigenvalues --   -0.66781  -0.65311  -0.64835  -0.64830  -0.64403
  Beta  occ. eigenvalues --   -0.63472  -0.62964  -0.62212  -0.61729  -0.61349
  Beta  occ. eigenvalues --   -0.61277  -0.60469  -0.60226  -0.59874  -0.59441
  Beta  occ. eigenvalues --   -0.59412  -0.58521  -0.58081  -0.57590  -0.57185
  Beta  occ. eigenvalues --   -0.56909  -0.55892  -0.55852  -0.55437  -0.55093
  Beta  occ. eigenvalues --   -0.54957  -0.54445  -0.54105  -0.52849  -0.52780
  Beta  occ. eigenvalues --   -0.52414  -0.51884  -0.51884  -0.51452  -0.51088
  Beta  occ. eigenvalues --   -0.50384  -0.50276  -0.49442  -0.48793  -0.48306
  Beta  occ. eigenvalues --   -0.48108  -0.47886  -0.47517  -0.43475  -0.43044
  Beta  occ. eigenvalues --   -0.42636  -0.42141  -0.41023  -0.40363  -0.39522
  Beta  occ. eigenvalues --   -0.37337  -0.36866  -0.36119
  Beta virt. eigenvalues --   -0.26739  -0.15650  -0.14830  -0.14482  -0.12007
  Beta virt. eigenvalues --   -0.09998  -0.09714  -0.08849  -0.08442  -0.08254
  Beta virt. eigenvalues --   -0.07616  -0.07528  -0.07432  -0.06862  -0.06575

 Mulliken charges and spin densities:
               1          2
     1  C    0.072341  -0.034783
     2  C    0.072103  -0.034748
     3  C    0.206952   0.001349
     4  C    0.096684   0.000502
     5  C    0.127559   0.002717
     6  C    0.105836   0.005077
     7  C   -0.298121   0.000186
     8  H    0.174614  -0.000016
     9  C    0.126198   0.078071
    10  C   -0.297897   0.000184
    11  H    0.174614  -0.000016
    12  C    0.127356   0.002715
    13  C    0.105452   0.005090
    14  C    0.025758  -0.007374
    15  C    0.097977   0.055142
    16  C   -0.148940   0.099567
    17  H    0.170829  -0.003722
    18  C   -0.509066   0.004954
    19  H    0.172804   0.000151
    20  C    0.316943  -0.004336
    21  C   -0.154515   0.009716
    22  H    0.173584  -0.000070
    23  C    0.098309   0.055175
    24  C    0.316163  -0.004391
    25  C   -0.509067   0.004957
    26  H    0.172796   0.000151
    27  C    0.026817  -0.007394
    28  C   -0.143037  -0.063827
    29  H    0.198221   0.001641
    30  C   -0.392611  -0.014153
    31  H    0.207779   0.000460
    32  C   -0.176956  -0.012875
    33  H    0.178875   0.000793
    34  C   -0.154580   0.009708
    35  H    0.173604  -0.000070
    36  C   -0.223224   0.027398
    37  H    0.164294  -0.001182
    38  C    0.125970   0.078085
    39  C   -0.167801   0.122504
    40  H    0.170428  -0.008196
    41  C   -0.303895  -0.001389
    42  H    0.176649   0.000408
    43  C   -0.172771   0.074681
    44  H    0.165119  -0.003486
    45  C   -0.222887   0.027433
    46  H    0.164291  -0.001184
    47  C   -0.202249   0.151503
    48  H    0.179481  -0.007526
    49  C   -0.392786  -0.014155
    50  H    0.207842   0.000460
    51  C   -0.303656  -0.001386
    52  H    0.176650   0.000408
    53  C   -0.148219   0.099575
    54  H    0.170836  -0.003723
    55  C    0.058765   0.028829
    56  H    0.176315  -0.001816
    57  C   -0.177202  -0.012915
    58  H    0.178881   0.000793
    59  C   -0.167619   0.122417
    60  H    0.170429  -0.008191
    61  C    0.059139   0.028839
    62  H    0.176317  -0.001815
    63  C   -0.172506   0.074770
    64  H    0.165123  -0.003489
    65  C   -0.142571  -0.063816
    66  H    0.198227   0.001642
    67  C   -0.202242   0.151522
    68  H    0.179489  -0.007529
 Sum of Mulliken charges =   1.00000   1.00000

 Dipole moment (field-independent basis, Debye):
    X=              0.0010    Y=              3.9986    Z=              0.0195  Tot=              3.9987
 Quadrupole moment (field-independent basis, Debye-Ang):
   XX=           -222.1763   YY=           -173.7442   ZZ=           -177.0585
   XY=              0.0171   XZ=             -2.9545   YZ=              0.0084

 Normal termination of Gaussian 16 at Fri Mar 21 13:12:51 2025.
