 Gaussian 16, Revision A.03,
 Gaussian 16:  ES64L-G16RevA.03 25-Dec-2016

 --------------------------------
 #p UM062X/6-311+G** Pop=NBO Read
 --------------------------------

 ------------
 NBO Analysis
 ------------
 Symbolic Z-matrix:
 Charge =  1 Multiplicity = 2

                         Standard orientation:
 ---------------------------------------------------------------------
 Center     Atomic      Atomic             Coordinates (Angstroms)
 Number     Number       Type             X           Y           Z
 ---------------------------------------------------------------------
      1          5           0       -0.000000   -0.000000    0.735308
      2          7           0        0.000000    0.000000   -0.570161
      3          1           0        0.000000    0.000000    1.903263
      4          1           0        0.000000    0.000000   -1.588677
 ---------------------------------------------------------------------

 SCF Done:  E(UM062X) =  -80.3615414094     A.U. after   12 cycles

 Unable to determine electronic state:  an orbital has unidentified symmetry.
 Alpha  occ. eigenvalues --  -15.14050  -7.44363  -1.30627  -0.97276  -0.80620
 Alpha  occ. eigenvalues --   -0.75793  -0.71595
 Alpha virt. eigenvalues --   -0.25352  -0.23860  -0.17672  -0.12750  -0.10671
 Alpha virt. eigenvalues --   -0.10558  -0.10159  -0.06052  -0.01433  -0.01038
 Alpha virt. eigenvalues --    0.03470   0.08918   0.28318   0.29441   0.29825

  Beta  occ. eigenvalues --  -15.13104  -7.44378  -1.24148  -0.95041  -0.80380
  Beta  occ. eigenvalues --   -0.68839
  Beta virt. eigenvalues --   -0.45125  -0.23088  -0.20536  -0.17664  -0.12426
  Beta virt. eigenvalues --   -0.10496  -0.10146  -0.09942  -0.05267  -0.01181
  Beta virt. eigenvalues --   -0.00986   0.02031   0.09509   0.28101   0.28858

 Mulliken charges and spin densities:
               1          2
     1  B    0.491555   0.118224
     2  N   -0.028320   0.916866
     3  H    0.163103  -0.008744
     4  H    0.373662  -0.026347
 Sum of Mulliken charges =   1.00000   1.00000

 Dipole moment (field-independent basis, Debye):
    X=             -0.0000    Y=             -0.0000    Z=              0.3181  Tot=              0.3181
 Quadrupole moment (field-independent basis, Debye-Ang):
   XX=             -9.1981   YY=            -10.8617   ZZ=             -1.1928
   XY=             -0.0000   XZ=             -0.0000   YZ=              0.0000

 Summary of Natural Population Analysis:

                                       Natural Population
                Natural  -----------------------------------------------
    Atom  No    Charge         Core      Valence    Rydberg      Total
 -----------------------------------------------------------------------
      B    1    0.57195      0.99966     0.92447    0.00393     1.92805
      N    2    0.18201      0.99975     2.31551    0.00272     3.31799
      H    3    0.00450      0.00000     0.49463    0.00087     0.49550
      H    4    0.24154      0.00000     0.25744    0.00102     0.25846
 =======================================================================
   * Total *    1.00000      1.99941     3.99205    0.00853     6.00000

 Normal termination of Gaussian 16 at Wed Apr 16 01:27:24 2025.
