 Gaussian 16, Revision A.03,
 Gaussian 16:  ES64L-G16RevA.03 25-Dec-2016

 --------------------------------------------
 #p opt UM062X/6-311+G** nosymm int=superfine
 --------------------------------------------

 -------------------
 Title Card Required
 -------------------
 Symbolic Z-matrix:
 Charge =  0 Multiplicity = 1

 SCF Done:  E(UM062X) =  -110.459923555     A.U. after   11 cycles
 SCF Done:  E(UM062X) =  -110.470809472     A.U. after   11 cycles
 SCF Done:  E(UM062X) =  -110.470935192     A.U. after    9 cycles
 Optimization completed.
    -- Stationary point found.

                          Input orientation:
 ---------------------------------------------------------------------
 Center     Atomic      Atomic             Coordinates (Angstroms)
 Number     Number       Type             X           Y           Z
 ---------------------------------------------------------------------
      1          7           0       -0.890428    0.000000    0.000000
      2          7           0        0.890428    0.000000    0.000000
      3          1           0       -0.950915   -1.029227    0.000000
      4          1           0        0.950915    1.029227    0.000000
 ---------------------------------------------------------------------

 Alpha  occ. eigenvalues --  -14.86713 -14.86696  -0.99197  -0.85941  -0.50823
 Alpha  occ. eigenvalues --   -0.48233  -0.39219  -0.36773
 Alpha virt. eigenvalues --   -0.12807   0.00216   0.05920   0.08390   0.12005
 Alpha virt. eigenvalues --    0.12141   0.13020   0.15173   0.16484   0.18641
 Alpha virt. eigenvalues --    0.21767   0.26288   0.54198   0.57358   0.75228

  Beta  occ. eigenvalues --  -14.86713 -14.86696  -0.99197  -0.85941  -0.50823
  Beta  occ. eigenvalues --   -0.48233  -0.39219  -0.36773
  Beta virt. eigenvalues --   -0.12807   0.00216   0.05920   0.08390   0.12005
  Beta virt. eigenvalues --    0.12141   0.13020   0.15173   0.16484   0.18641
  Beta virt. eigenvalues --    0.21767   0.26288   0.54198   0.57358   0.75228

 Mulliken charges and spin densities:
               1          2
     1  N   -0.250230   0.000000
     2  N   -0.250230  -0.000000
     3  H    0.250230  -0.000000
     4  H    0.250230   0.000000
 Sum of Mulliken charges =  -0.00000   0.00000

 Dipole moment (field-independent basis, Debye):
    X=              0.0000    Y=             -0.0000    Z=             -0.0000  Tot=              0.0000
 Quadrupole moment (field-independent basis, Debye-Ang):
   XX=            -13.6877   YY=            -10.6202   ZZ=            -13.5810
   XY=              3.8815   XZ=             -0.0000   YZ=              0.0000

 Normal termination of Gaussian 16 at Thu May 15 15:33:39 2025.
