 Gaussian 16, Revision A.03,
 Gaussian 16:  ES64L-G16RevA.03 25-Dec-2016

 --------------------------------------------
 #p opt UM062X/6-311+G** nosymm int=superfine
 --------------------------------------------

 -------------------
 Title Card Required
 -------------------
 Symbolic Z-matrix:
 Charge =  0 Multiplicity = 1

 SCF Done:  E(UM062X) =  -78.1554278374     A.U. after    8 cycles
 SCF Done:  E(UM062X) =  -78.1567816512     A.U. after    9 cycles
 SCF Done:  E(UM062X) =  -78.1575913375     A.U. after    9 cycles
 SCF Done:  E(UM062X) =  -78.1575937645     A.U. after    8 cycles
 Optimization completed.
    -- Stationary point found.

                          Input orientation:
 ---------------------------------------------------------------------
 Center     Atomic      Atomic             Coordinates (Angstroms)
 Number     Number       Type             X           Y           Z
 ---------------------------------------------------------------------
      1          6           0       -1.535595    0.000000    0.000000
      2          6           0        1.535595    0.000000    0.000000
      3          1           0       -1.908651   -1.010941    0.000000
      4          1           0       -1.908641    1.010945    0.000000
      5          1           0        1.908651    1.010941   -0.000000
      6          1           0        1.908640   -1.010945   -0.000000
 ---------------------------------------------------------------------

 Alpha  occ. eigenvalues --  -10.63312 -10.63309  -0.75686  -0.74616  -0.54111
 Alpha  occ. eigenvalues --   -0.53752  -0.28529  -0.22635
 Alpha virt. eigenvalues --   -0.12364  -0.10718   0.03395   0.05021   0.05228
 Alpha virt. eigenvalues --    0.06855   0.09271   0.10537   0.11023   0.13426
 Alpha virt. eigenvalues --    0.16154   0.18156   0.21429   0.26749   0.41498

  Beta  occ. eigenvalues --  -10.63312 -10.63309  -0.75686  -0.74616  -0.54111
  Beta  occ. eigenvalues --   -0.53752  -0.28529  -0.22635
  Beta virt. eigenvalues --   -0.12364  -0.10718   0.03395   0.05021   0.05228
  Beta virt. eigenvalues --    0.06855   0.09271   0.10537   0.11023   0.13426
  Beta virt. eigenvalues --    0.16154   0.18156   0.21429   0.26749   0.41498

 Mulliken charges and spin densities:
               1          2
     1  C   -0.390326   0.000002
     2  C   -0.390326  -0.000002
     3  H    0.195163  -0.000000
     4  H    0.195163  -0.000000
     5  H    0.195163   0.000000
     6  H    0.195163   0.000000
 Sum of Mulliken charges =  -0.00000   0.00000

 Dipole moment (field-independent basis, Debye):
    X=             -0.0000    Y=             -0.0000    Z=              0.0000  Tot=              0.0000
 Quadrupole moment (field-independent basis, Debye-Ang):
   XX=             -9.1866   YY=            -11.7543   ZZ=            -19.1957
   XY=              0.0000   XZ=             -0.0000   YZ=             -0.0000

 Normal termination of Gaussian 16 at Tue Dec  3 11:10:14 2024.
