 Gaussian 16, Revision A.03,
 Gaussian 16:  ES64L-G16RevA.03 25-Dec-2016

 ---------------------------------------
 #p UM062X/6-311+G** force int=superfine
 ---------------------------------------

 -------------------
 Title Card Required
 -------------------
 Symbolic Z-matrix:
 Charge =  1 Multiplicity = 2

                         Standard orientation:
 ---------------------------------------------------------------------
 Center     Atomic      Atomic             Coordinates (Angstroms)
 Number     Number       Type             X           Y           Z
 ---------------------------------------------------------------------
      1          6           0        0.000000    0.000000    0.708330
      2          6           0        0.000000    0.000000   -0.708330
      3          1           0        0.000000    0.000000    1.794789
      4          1           0        0.000000    0.000000   -1.794789
 ---------------------------------------------------------------------

 SCF Done:  E(UM062X) =  -76.8624948482     A.U. after    9 cycles

 Unable to determine electronic state:  an orbital has unidentified symmetry.
 Alpha  occ. eigenvalues --  -10.96957 -10.96872  -1.16952  -0.98120  -0.87952
 Alpha  occ. eigenvalues --   -0.68575  -0.66176
 Alpha virt. eigenvalues --   -0.31533  -0.29513  -0.18528  -0.14378  -0.11199
 Alpha virt. eigenvalues --   -0.09774  -0.09523  -0.09044  -0.05095  -0.04721
 Alpha virt. eigenvalues --    0.02100   0.04381   0.12012   0.20229   0.30737

  Beta  occ. eigenvalues --  -10.96719 -10.96652  -1.12516  -0.96473  -0.87380
  Beta  occ. eigenvalues --   -0.63870
  Beta virt. eigenvalues --   -0.43751  -0.27829  -0.24311  -0.16903  -0.15520
  Beta virt. eigenvalues --   -0.11444  -0.10083  -0.09842  -0.08939  -0.04763
  Beta virt. eigenvalues --   -0.04302   0.01588   0.04548   0.12587   0.21139

 Mulliken charges and spin densities:
               1          2
     1  C    0.165951   0.520004
     2  C    0.165951   0.520004
     3  H    0.334049  -0.020004
     4  H    0.334049  -0.020004
 Sum of Mulliken charges =   1.00000   1.00000

 Dipole moment (field-independent basis, Debye):
    X=              0.0000    Y=             -0.0000    Z=             -0.0000  Tot=              0.0000
 Quadrupole moment (field-independent basis, Debye-Ang):
   XX=            -12.0068   YY=            -10.0725   ZZ=              0.7863
   XY=              0.0000   XZ=             -0.0000   YZ=             -0.0000

 Normal termination of Gaussian 16 at Tue Nov 19 13:33:10 2024.
