 Gaussian 16, Revision A.03,
 Gaussian 16:  ES64L-G16RevA.03 25-Dec-2016

 ---------------------------------------------------------
 #p opt UM062X/6-311+G** nosymm int=superfine SCF=NoVarAcc
 ---------------------------------------------------------

 -------------------
 Title Card Required
 -------------------
 Symbolic Z-matrix:
 Charge =  0 Multiplicity = 1

 SCF Done:  E(UM062X) =  -76.8416136339     A.U. after   10 cycles

 Alpha  occ. eigenvalues --  -10.66125 -10.66124  -0.71874  -0.71738  -0.38459
 Alpha  occ. eigenvalues --   -0.36970  -0.21096
 Alpha virt. eigenvalues --   -0.13621  -0.09242  -0.08726   0.02883   0.03050
 Alpha virt. eigenvalues --    0.08014   0.09124   0.09882   0.10889   0.11314
 Alpha virt. eigenvalues --    0.14918   0.17575   0.22037   0.43820   0.48416

  Beta  occ. eigenvalues --  -10.66125 -10.66124  -0.71874  -0.71738  -0.38459
  Beta  occ. eigenvalues --   -0.36970  -0.21096
  Beta virt. eigenvalues --   -0.13621  -0.09242  -0.08726   0.02883   0.03050
  Beta virt. eigenvalues --    0.08014   0.09124   0.09882   0.10889   0.11314
  Beta virt. eigenvalues --    0.14918   0.17575   0.22037   0.43820   0.48416

 Mulliken charges and spin densities:
               1          2
     1  C   -0.137399  -0.000000
     2  C   -0.137400   0.000000
     3  H    0.137400  -0.000000
     4  H    0.137400  -0.000000
 Sum of Mulliken charges =  -0.00000   0.00000

 Dipole moment (field-independent basis, Debye):
    X=             -0.0000    Y=             -0.0000    Z=              0.0000  Tot=              0.0000
 Quadrupole moment (field-independent basis, Debye-Ang):
   XX=             -2.1704   YY=            -14.7456   ZZ=            -14.7456
   XY=              0.0000   XZ=             -0.0000   YZ=             -2.7798

 Optimization completed.
    -- Stationary point found.

                          Input orientation:
 ---------------------------------------------------------------------
 Center     Atomic      Atomic             Coordinates (Angstroms)
 Number     Number       Type             X           Y           Z
 ---------------------------------------------------------------------
      1          6           0       -1.932625    0.000000    0.000000
      2          6           0        1.932625    0.000000    0.000000
      3          1           0       -3.055487   -0.000006    0.000006
      4          1           0        3.055486    0.000004   -0.000004
 ---------------------------------------------------------------------

 Normal termination of Gaussian 16 at Tue Dec  3 20:20:09 2024.
