 Gaussian 16, Revision A.03,
 Gaussian 16:  ES64L-G16RevA.03 25-Dec-2016

 --------------------------------------------
 #p opt UM062X/6-311+G** nosymm int=superfine
 --------------------------------------------

 -------------------
 Title Card Required
 -------------------
 Symbolic Z-matrix:
 Charge =  0 Multiplicity = 1

 SCF Done:  E(UM062X) =  -81.9786797207     A.U. after   10 cycles
 SCF Done:  E(UM062X) =  -81.9794694701     A.U. after    8 cycles
 SCF Done:  E(UM062X) =  -81.9792569284     A.U. after   10 cycles
 SCF Done:  E(UM062X) =  -81.9789742080     A.U. after   10 cycles
 SCF Done:  E(UM062X) =  -81.9786592331     A.U. after   10 cycles
 SCF Done:  E(UM062X) =  -81.9795579948     A.U. after    7 cycles
 SCF Done:  E(UM062X) =  -81.9796754266     A.U. after    9 cycles
 SCF Done:  E(UM062X) =  -81.9796760622     A.U. after    7 cycles
 SCF Done:  E(UM062X) =  -81.9796736663     A.U. after    8 cycles
 SCF Done:  E(UM062X) =  -81.9796764653     A.U. after    8 cycles
 Optimization completed.
    -- Stationary point found.

                          Input orientation:
 ---------------------------------------------------------------------
 Center     Atomic      Atomic             Coordinates (Angstroms)
 Number     Number       Type             X           Y           Z
 ---------------------------------------------------------------------
      1          5           0       -0.845399    0.000000    0.000000
      2          7           0        0.845399    0.000000    0.000000
      3          1           0       -1.357448   -1.064792   -0.000134
      4          1           0        1.375849    0.854234    0.001548
      5          1           0       -1.357449    1.064792   -0.000349
      6          1           0        1.375849   -0.854234    0.001788
 ---------------------------------------------------------------------

 Alpha  occ. eigenvalues --  -14.73858  -7.08136  -0.92707  -0.58216  -0.55901
 Alpha  occ. eigenvalues --   -0.43687  -0.41991  -0.32240
 Alpha virt. eigenvalues --   -0.00429   0.01284   0.03248   0.03682   0.06512
 Alpha virt. eigenvalues --    0.10779   0.12343   0.16058   0.17266   0.18520
 Alpha virt. eigenvalues --    0.20412   0.22041   0.23032   0.28084   0.38658

  Beta  occ. eigenvalues --  -14.73858  -7.08136  -0.92707  -0.58216  -0.55901
  Beta  occ. eigenvalues --   -0.43687  -0.41991  -0.32240
  Beta virt. eigenvalues --   -0.00429   0.01284   0.03248   0.03682   0.06512
  Beta virt. eigenvalues --    0.10779   0.12343   0.16058   0.17266   0.18520
  Beta virt. eigenvalues --    0.20412   0.22041   0.23032   0.28084   0.38658

 Mulliken charges and spin densities:
               1          2
     1  B    0.173016  -0.000000
     2  N   -0.706695   0.000000
     3  H    0.002623  -0.000000
     4  H    0.264217  -0.000000
     5  H    0.002623   0.000000
     6  H    0.264217  -0.000000
 Sum of Mulliken charges =  -0.00000  -0.00000

 Dipole moment (field-independent basis, Debye):
    X=              0.5111    Y=              0.0000    Z=              0.0052  Tot=              0.5111
 Quadrupole moment (field-independent basis, Debye-Ang):
   XX=            -12.5281   YY=            -12.9866   ZZ=            -15.7676
   XY=              0.0000   XZ=              0.0083   YZ=             -0.0004

 Normal termination of Gaussian 16 at Mon Apr 21 17:38:57 2025.
