 Gaussian 16, Revision A.03,
 Gaussian 16:  ES64L-G16RevA.03 25-Dec-2016

 --------------------------------------------
 #p opt UM062X/6-311+G** nosymm int=superfine
 --------------------------------------------

 -------------------
 Title Card Required
 -------------------
 Symbolic Z-matrix:
 Charge =  0 Multiplicity = 1

 SCF Done:  E(UM062X) =  -111.632945873     A.U. after   16 cycles
 SCF Done:  E(UM062X) =  -111.642823413     A.U. after   16 cycles
 SCF Done:  E(UM062X) =  -111.649726881     A.U. after   16 cycles
 SCF Done:  E(UM062X) =  -111.651888394     A.U. after   14 cycles
 SCF Done:  E(UM062X) =  -111.653319341     A.U. after   15 cycles
 SCF Done:  E(UM062X) =  -111.653808344     A.U. after   14 cycles
 SCF Done:  E(UM062X) =  -111.654430085     A.U. after   14 cycles
 SCF Done:  E(UM062X) =  -111.654544225     A.U. after   13 cycles
 SCF Done:  E(UM062X) =  -111.654597713     A.U. after   13 cycles
 SCF Done:  E(UM062X) =  -111.654640080     A.U. after   12 cycles
 SCF Done:  E(UM062X) =  -111.654677361     A.U. after   13 cycles
 SCF Done:  E(UM062X) =  -111.654682897     A.U. after   11 cycles
 SCF Done:  E(UM062X) =  -111.654682954     A.U. after   10 cycles
 SCF Done:  E(UM062X) =  -111.654683009     A.U. after   11 cycles
 Optimization completed.
    -- Stationary point found.

                          Input orientation:
 ---------------------------------------------------------------------
 Center     Atomic      Atomic             Coordinates (Angstroms)
 Number     Number       Type             X           Y           Z
 ---------------------------------------------------------------------
      1          7           0       -1.611540    0.000000    0.000000
      2          7           0        1.611540    0.000000    0.000000
      3          1           0       -1.513160   -0.814980   -0.618122
      4          1           0        1.512959    0.409553   -0.937283
      5          1           0       -1.513095   -0.409978    0.937113
      6          1           0        1.513046    0.815230    0.617772
 ---------------------------------------------------------------------

 Alpha  occ. eigenvalues --  -14.80558 -14.80557  -0.95244  -0.94567  -0.55249
 Alpha  occ. eigenvalues --   -0.54810  -0.40906  -0.40326  -0.29825
 Alpha virt. eigenvalues --   -0.16856   0.04494   0.06421   0.08692   0.11484
 Alpha virt. eigenvalues --    0.12739   0.13820   0.15875   0.16000   0.18696
 Alpha virt. eigenvalues --    0.19638   0.26521   0.27003   0.51302   0.51527

  Beta  occ. eigenvalues --  -14.80558 -14.80557  -0.95244  -0.94567  -0.55249
  Beta  occ. eigenvalues --   -0.54810  -0.40906  -0.40326  -0.29825
  Beta virt. eigenvalues --   -0.16856   0.04494   0.06421   0.08692   0.11484
  Beta virt. eigenvalues --    0.12739   0.13820   0.15875   0.16000   0.18696
  Beta virt. eigenvalues --    0.19638   0.26521   0.27003   0.51302   0.51527

 Mulliken charges and spin densities:
               1          2
     1  N   -0.494648   0.000000
     2  N   -0.494586  -0.000000
     3  H    0.247304  -0.000000
     4  H    0.247303   0.000000
     5  H    0.247316  -0.000000
     6  H    0.247312   0.000000
 Sum of Mulliken charges =  -0.00000   0.00000

 Dipole moment (field-independent basis, Debye):
    X=             -0.0002    Y=             -0.0002    Z=             -0.0009  Tot=              0.0009
 Quadrupole moment (field-independent basis, Debye-Ang):
   XX=            -16.1409   YY=            -14.2938   ZZ=            -11.4935
   XY=              6.7520   XZ=             -1.7596   YZ=              0.7831

 Normal termination of Gaussian 16 at Thu May 15 14:52:29 2025.
