 Gaussian 16, Revision A.03,
 Gaussian 16:  ES64L-G16RevA.03 25-Dec-2016

 ---------------------------------------------------
 #p UM062X/6-311+G** force int=superfine pop=saveNBO
 ---------------------------------------------------

 -------------------
 Title Card Required
 -------------------
 Symbolic Z-matrix:
 Charge =  0 Multiplicity = 1

                         Standard orientation:
 ---------------------------------------------------------------------
 Center     Atomic      Atomic             Coordinates (Angstroms)
 Number     Number       Type             X           Y           Z
 ---------------------------------------------------------------------
      1         16           0        0.000000    0.000000    1.425200
      2         16           0        0.000000    0.000000   -1.425200
 ---------------------------------------------------------------------

 SCF Done:  E(UM062X) =  -796.152584570     A.U. after    9 cycles

 Unable to determine electronic state:  partially filled degenerate orbitals.
 Alpha  occ. eigenvalues --  -89.99158 -89.99158  -8.34823  -8.34821  -6.26859
 Alpha  occ. eigenvalues --   -6.26859  -6.26847  -6.26846  -6.26010  -6.26010
 Alpha  occ. eigenvalues --   -0.80316  -0.75899  -0.37988  -0.36142  -0.33738
 Alpha  occ. eigenvalues --   -0.33161
 Alpha virt. eigenvalues --   -0.21406  -0.15931   0.03131   0.03820   0.04954
 Alpha virt. eigenvalues --    0.05512   0.07339   0.07481   0.07803   0.13826
 Alpha virt. eigenvalues --    0.31372   0.31916   0.32891   0.36197   0.37076

  Beta  occ. eigenvalues --  -89.99158 -89.99158  -8.34823  -8.34821  -6.26859
  Beta  occ. eigenvalues --   -6.26859  -6.26847  -6.26846  -6.26010  -6.26010
  Beta  occ. eigenvalues --   -0.80316  -0.75899  -0.37988  -0.36142  -0.33738
  Beta  occ. eigenvalues --   -0.33161
  Beta virt. eigenvalues --   -0.21406  -0.15931   0.03131   0.03820   0.04954
  Beta virt. eigenvalues --    0.05512   0.07339   0.07481   0.07803   0.13826
  Beta virt. eigenvalues --    0.31372   0.31916   0.32891   0.36197   0.37076

 Mulliken charges and spin densities:
               1          2
     1  S    0.000000   0.000000
     2  S    0.000000   0.000000
 Sum of Mulliken charges =   0.00000   0.00000

 Dipole moment (field-independent basis, Debye):
    X=             -0.0000    Y=             -0.0000    Z=              0.0000  Tot=              0.0000
 Quadrupole moment (field-independent basis, Debye-Ang):
   XX=            -30.1419   YY=            -25.2553   ZZ=            -23.0245
   XY=              0.0000   XZ=             -0.0000   YZ=              0.0000

 Summary of Natural Population Analysis:

                                       Natural Population
                Natural  -----------------------------------------------
    Atom  No    Charge         Core      Valence    Rydberg      Total
 -----------------------------------------------------------------------
      S    1   -0.00000      4.99999     2.99843    0.00158     8.00000
      S    2   -0.00000      4.99999     2.99843    0.00158     8.00000
 =======================================================================
   * Total *   -0.00000      9.99998     5.99685    0.00317    16.00000

 Normal termination of Gaussian 16 at Mon Apr 21 20:07:59 2025.
