 Gaussian 16, Revision A.03,
 Gaussian 16:  ES64L-G16RevA.03 25-Dec-2016

 -------------------------------------------------------------------
 #p opt UM062X/6-311+G** nosymm int=superfine SCF=NoVarAcc SCF=tight
 -------------------------------------------------------------------

 -------------------
 Title Card Required
 -------------------
 Symbolic Z-matrix:
 Charge =  1 Multiplicity = 2

 SCF Done:  E(UM062X) =  -79.3156215953     A.U. after   23 cycles
 SCF Done:  E(UM062X) =  -79.3157022450     A.U. after    9 cycles
 SCF Done:  E(UM062X) =  -79.3157262231     A.U. after    9 cycles
 SCF Done:  E(UM062X) =  -79.3157389214     A.U. after    9 cycles
 SCF Done:  E(UM062X) =  -79.3157397025     A.U. after    8 cycles
 Optimization completed.
    -- Stationary point found.

                          Input orientation:
 ---------------------------------------------------------------------
 Center     Atomic      Atomic             Coordinates (Angstroms)
 Number     Number       Type             X           Y           Z
 ---------------------------------------------------------------------
      1          6           0       -7.782675    0.000000    0.000000
      2          6           0        7.782675    0.000000    0.000000
      3          1           0        7.782821   -0.936691    0.542416
      4          1           0       -7.783681   -0.937671   -0.540724
      5          1           0        7.785838    0.938099    0.539968
      6          1           0        7.784592   -0.001409   -1.082405
      7          1           0       -7.785358    0.937142   -0.541617
      8          1           0       -7.784168    0.000383    1.082407
 ---------------------------------------------------------------------

 Alpha  occ. eigenvalues --  -10.78483 -10.78483  -0.97249  -0.97246  -0.68497
 Alpha  occ. eigenvalues --   -0.68496  -0.68495  -0.68494  -0.38680
 Alpha virt. eigenvalues --   -0.36836  -0.08177  -0.08175  -0.04684  -0.04684
 Alpha virt. eigenvalues --   -0.04684  -0.04683  -0.02609  -0.02609   0.04792
 Alpha virt. eigenvalues --    0.04793   0.04793   0.04794   0.04880   0.04882

  Beta  occ. eigenvalues --  -10.78240 -10.78240  -0.94579  -0.94579  -0.67923
  Beta  occ. eigenvalues --   -0.67921  -0.67921  -0.67920
  Beta virt. eigenvalues --   -0.23528  -0.23528  -0.08722  -0.08722  -0.04317
  Beta virt. eigenvalues --   -0.04316  -0.04316  -0.04316  -0.00655  -0.00655
  Beta virt. eigenvalues --    0.05088   0.05089   0.05089   0.05091   0.06335

 Mulliken charges and spin densities:
               1          2
     1  C   -0.190912   0.566901
     2  C   -0.190912   0.566901
     3  H    0.230301  -0.022300
     4  H    0.230300  -0.022301
     5  H    0.230307  -0.022300
     6  H    0.230304  -0.022301
     7  H    0.230310  -0.022300
     8  H    0.230301  -0.022301
 Sum of Mulliken charges =   1.00000   1.00000

 Dipole moment (field-independent basis, Debye):
    X=              0.0000    Y=             -0.0001    Z=              0.0000  Tot=              0.0001
 Quadrupole moment (field-independent basis, Debye-Ang):
   XX=            277.4037   YY=            -11.1277   ZZ=            -11.1280
   XY=              0.0017   XZ=             -0.0003   YZ=             -0.0003

 Normal termination of Gaussian 16 at Tue Dec  3 16:15:50 2024.
