 Gaussian 16, Revision A.03,
 Gaussian 16:  ES64L-G16RevA.03 25-Dec-2016

 --------------------------------------------
 #p opt UM062X/6-311+G** nosymm int=superfine
 --------------------------------------------

 -------------------
 Title Card Required
 -------------------
 Symbolic Z-matrix:
 Charge =  1 Multiplicity = 2

 SCF Done:  E(UM062X) =  -580.904804465     A.U. after   11 cycles
 SCF Done:  E(UM062X) =  -580.905195362     A.U. after    9 cycles
 SCF Done:  E(UM062X) =  -580.905332098     A.U. after   10 cycles
 SCF Done:  E(UM062X) =  -580.905305258     A.U. after   15 cycles
 SCF Done:  E(UM062X) =  -580.905333784     A.U. after   15 cycles
 SCF Done:  E(UM062X) =  -580.905332671     A.U. after   10 cycles
 SCF Done:  E(UM062X) =  -580.907691289     A.U. after   18 cycles
 SCF Done:  E(UM062X) =  -580.912966531     A.U. after   17 cycles
 SCF Done:  E(UM062X) =  -580.917801123     A.U. after   15 cycles
 SCF Done:  E(UM062X) =  -580.922867938     A.U. after   14 cycles
 SCF Done:  E(UM062X) =  -580.923660672     A.U. after   13 cycles
 SCF Done:  E(UM062X) =  -580.923665374     A.U. after   13 cycles
 SCF Done:  E(UM062X) =  -580.924905780     A.U. after   15 cycles
 SCF Done:  E(UM062X) =  -580.926720032     A.U. after   15 cycles
 SCF Done:  E(UM062X) =  -580.926944857     A.U. after   14 cycles
 SCF Done:  E(UM062X) =  -580.927231003     A.U. after   15 cycles
 SCF Done:  E(UM062X) =  -580.926990559     A.U. after   15 cycles
 SCF Done:  E(UM062X) =  -580.927575563     A.U. after   14 cycles
 SCF Done:  E(UM062X) =  -580.927614140     A.U. after   12 cycles
 SCF Done:  E(UM062X) =  -580.927614256     A.U. after   10 cycles
 Optimization completed.
    -- Stationary point found.

                          Input orientation:
 ---------------------------------------------------------------------
 Center     Atomic      Atomic             Coordinates (Angstroms)
 Number     Number       Type             X           Y           Z
 ---------------------------------------------------------------------
      1         14           0       -1.541295    0.000000    0.000000
      2         14           0        1.541295    0.000000    0.000000
      3          1           0       -2.402170   -1.202772   -0.060830
      4          1           0        1.818407    1.253107    0.730137
      5          1           0       -2.402496    1.202684   -0.057801
      6          1           0        1.818017   -1.256473    0.724472
 ---------------------------------------------------------------------

 Alpha  occ. eigenvalues --  -67.26118 -67.25628  -5.80632  -5.80008  -4.12069
 Alpha  occ. eigenvalues --   -4.11472  -4.11359  -4.11336  -4.11123  -4.10686
 Alpha  occ. eigenvalues --   -0.81318  -0.78781  -0.62820  -0.61706  -0.53295
 Alpha  occ. eigenvalues --   -0.48183
 Alpha virt. eigenvalues --   -0.28410  -0.25136  -0.13850  -0.12538  -0.10215
 Alpha virt. eigenvalues --   -0.08887  -0.08679  -0.08175  -0.07932  -0.07470
 Alpha virt. eigenvalues --   -0.06289  -0.05968  -0.05761  -0.02032   0.12243

  Beta  occ. eigenvalues --  -67.26089 -67.25036  -5.80612  -5.79590  -4.12046
  Beta  occ. eigenvalues --   -4.11349  -4.11291  -4.10925  -4.10482  -4.10091
  Beta  occ. eigenvalues --   -0.79952  -0.76647  -0.62004  -0.61159  -0.51526
  Beta virt. eigenvalues --   -0.30449  -0.27273  -0.23612  -0.13751  -0.13412
  Beta virt. eigenvalues --   -0.10280  -0.08952  -0.08602  -0.08011  -0.07290
  Beta virt. eigenvalues --   -0.06892  -0.06045  -0.05994  -0.03926  -0.02411

 Mulliken charges and spin densities:
               1          2
     1  Si   0.512897   0.035512
     2  Si   0.500962   0.873195
     3  H   -0.007749   0.003438
     4  H    0.000825   0.042215
     5  H   -0.007740   0.003423
     6  H    0.000805   0.042217
 Sum of Mulliken charges =   1.00000   1.00000

 Dipole moment (field-independent basis, Debye):
    X=             -0.4934    Y=             -0.0001    Z=              0.0637  Tot=              0.4975
 Quadrupole moment (field-independent basis, Debye-Ang):
   XX=             -8.7961   YY=            -24.7954   ZZ=            -23.1539
   XY=              0.0000   XZ=             -0.1067   YZ=             -0.0015

 Normal termination of Gaussian 16 at Mon Apr 21 20:28:18 2025.
