 Gaussian 16, Revision A.03,
 Gaussian 16:  ES64L-G16RevA.03 25-Dec-2016

 --------------------------------------------
 #p opt UM062X/6-311+G** nosymm int=superfine
 --------------------------------------------

 -------------------
 Title Card Required
 -------------------
 Symbolic Z-matrix:
 Charge =  0 Multiplicity = 1

 SCF Done:  E(UM062X) =  -83.1398334365     A.U. after   10 cycles
 SCF Done:  E(UM062X) =  -83.1520417561     A.U. after    9 cycles
 SCF Done:  E(UM062X) =  -83.1535354515     A.U. after    8 cycles
 SCF Done:  E(UM062X) =  -83.1535388355     A.U. after    7 cycles
 Optimization completed.
    -- Stationary point found.

                          Input orientation:
 ---------------------------------------------------------------------
 Center     Atomic      Atomic             Coordinates (Angstroms)
 Number     Number       Type             X           Y           Z
 ---------------------------------------------------------------------
      1          5           0       -1.352429    0.000000    0.000000
      2          7           0        1.352429    0.000000    0.000000
      3          1           0        1.708746   -0.948242    0.000001
      4          1           0       -1.407933   -0.594123    1.029018
      5          1           0        1.708621    0.474181   -0.821225
      6          1           0        1.708609    0.474179    0.821231
      7          1           0       -1.407943    1.188215    0.000014
      8          1           0       -1.407943   -0.594102   -1.029030
 ---------------------------------------------------------------------

 Alpha  occ. eigenvalues --  -14.74944  -7.02573  -0.97826  -0.55974  -0.55724
 Alpha  occ. eigenvalues --   -0.55724  -0.38288  -0.38288  -0.36289
 Alpha virt. eigenvalues --   -0.00200   0.02225   0.04819   0.04819   0.06954
 Alpha virt. eigenvalues --    0.08726   0.11047   0.11047   0.17023   0.17024
 Alpha virt. eigenvalues --    0.18099   0.20290   0.20290   0.23184   0.29705

  Beta  occ. eigenvalues --  -14.74944  -7.02573  -0.97826  -0.55974  -0.55724
  Beta  occ. eigenvalues --   -0.55724  -0.38288  -0.38288  -0.36289
  Beta virt. eigenvalues --   -0.00200   0.02225   0.04819   0.04819   0.06954
  Beta virt. eigenvalues --    0.08726   0.11047   0.11047   0.17023   0.17024
  Beta virt. eigenvalues --    0.18099   0.20290   0.20290   0.23184   0.29705

 Mulliken charges and spin densities:
               1          2
     1  B    0.016940   0.000000
     2  N   -0.751296  -0.000000
     3  H    0.261773   0.000000
     4  H   -0.016988  -0.000000
     5  H    0.261775   0.000000
     6  H    0.261775   0.000000
     7  H   -0.016993   0.000000
     8  H   -0.016987   0.000000
 Sum of Mulliken charges =  -0.00000  -0.00000

 Dipole moment (field-independent basis, Debye):
    X=              2.7134    Y=              0.0002    Z=              0.0000  Tot=              2.7134
 Quadrupole moment (field-independent basis, Debye-Ang):
   XX=            -12.6286   YY=            -15.8016   ZZ=            -15.8016
   XY=              0.0000   XZ=             -0.0000   YZ=              0.0000

 Normal termination of Gaussian 16 at Mon Apr 21 17:37:40 2025.
