 Gaussian 16, Revision A.03,
 Gaussian 16:  ES64L-G16RevA.03 25-Dec-2016

 --------------------------------------------
 #p opt UM062X/6-311+G** nosymm int=superfine
 --------------------------------------------

 -------------------
 Title Card Required
 -------------------
 Symbolic Z-matrix:
 Charge =  0 Multiplicity = 1

 SCF Done:  E(UM062X) =  -379.767905304     A.U. after   12 cycles
 SCF Done:  E(UM062X) =  -379.768221931     A.U. after    9 cycles
 Optimization completed.
    -- Stationary point found.

                          Input orientation:
 ---------------------------------------------------------------------
 Center     Atomic      Atomic             Coordinates (Angstroms)
 Number     Number       Type             X           Y           Z
 ---------------------------------------------------------------------
      1          6           0       -1.115377    0.000000    0.000000
      2         15           0        1.115377    0.000000    0.000000
      3          1           0       -2.211035    0.000000   -0.000000
 ---------------------------------------------------------------------

 Alpha  occ. eigenvalues --  -78.10338 -10.67630  -6.91788  -5.03274  -5.03022
 Alpha  occ. eigenvalues --   -5.03022  -0.74693  -0.63296  -0.42162  -0.28310
 Alpha  occ. eigenvalues --   -0.28310
 Alpha virt. eigenvalues --   -0.10141  -0.10141  -0.04262   0.01630   0.04575
 Alpha virt. eigenvalues --    0.05360   0.05360   0.07180   0.10129   0.10129
 Alpha virt. eigenvalues --    0.15907   0.21253   0.30142   0.32779   0.32779

  Beta  occ. eigenvalues --  -78.10338 -10.67630  -6.91788  -5.03274  -5.03022
  Beta  occ. eigenvalues --   -5.03022  -0.74693  -0.63296  -0.42162  -0.28310
  Beta  occ. eigenvalues --   -0.28310
  Beta virt. eigenvalues --   -0.10141  -0.10141  -0.04262   0.01630   0.04575
  Beta virt. eigenvalues --    0.05360   0.05360   0.07180   0.10129   0.10129
  Beta virt. eigenvalues --    0.15907   0.21253   0.30142   0.32779   0.32779

 Mulliken charges and spin densities:
               1          2
     1  C   -0.345673   0.000000
     2  P    0.122145  -0.000000
     3  H    0.223528  -0.000000
 Sum of Mulliken charges =  -0.00000   0.00000

 Dipole moment (field-independent basis, Debye):
    X=             -0.4980    Y=              0.0000    Z=             -0.0000  Tot=              0.4980
 Quadrupole moment (field-independent basis, Debye-Ang):
   XX=            -13.1822   YY=            -22.6063   ZZ=            -22.6063
   XY=              0.0000   XZ=              0.0000   YZ=              0.0000

 Normal termination of Gaussian 16 at Mon Apr 21 19:28:50 2025.
