 Gaussian 16, Revision A.03,
 Gaussian 16:  ES64L-G16RevA.03 25-Dec-2016

 ---------------------------------------
 #p UM062X/6-311+G** force int=superfine
 ---------------------------------------

 -------------------
 Title Card Required
 -------------------
 Symbolic Z-matrix:
 Charge =  0 Multiplicity = 1

                         Standard orientation:
 ---------------------------------------------------------------------
 Center     Atomic      Atomic             Coordinates (Angstroms)
 Number     Number       Type             X           Y           Z
 ---------------------------------------------------------------------
      1          6           0        0.000000    0.603214    0.000000
      2          6           0       -0.000000   -0.603214   -0.000000
      3          1           0        0.913251    1.194132   -0.000000
      4          1           0       -0.913119    1.194248    0.000000
      5          1           0       -0.913251   -1.194132   -0.000000
      6          1           0        0.913119   -1.194248    0.000000
 ---------------------------------------------------------------------

 SCF Done:  E(UM062X) =  -78.5431335524     A.U. after    8 cycles

 The electronic state is 1-AG.
 Alpha  occ. eigenvalues --  -10.51917 -10.51662  -0.89111  -0.65082  -0.55320
 Alpha  occ. eigenvalues --   -0.50388  -0.39521  -0.36002
 Alpha virt. eigenvalues --    0.03397   0.04177   0.04620   0.04920   0.07374
 Alpha virt. eigenvalues --    0.08414   0.09754   0.14847   0.16097   0.17622
 Alpha virt. eigenvalues --    0.19458   0.23836   0.32357   0.38704   0.44161

  Beta  occ. eigenvalues --  -10.51917 -10.51662  -0.89111  -0.65082  -0.55320
  Beta  occ. eigenvalues --   -0.50388  -0.39521  -0.36002
  Beta virt. eigenvalues --    0.03397   0.04177   0.04620   0.04920   0.07374
  Beta virt. eigenvalues --    0.08414   0.09754   0.14847   0.16097   0.17622
  Beta virt. eigenvalues --    0.19458   0.23836   0.32357   0.38704   0.44161

 Mulliken charges and spin densities:
               1          2
     1  C   -0.281600   0.000000
     2  C   -0.281600   0.000000
     3  H    0.140792  -0.000000
     4  H    0.140809  -0.000000
     5  H    0.140792  -0.000000
     6  H    0.140809  -0.000000
 Sum of Mulliken charges =  -0.00000   0.00000

 Dipole moment (field-independent basis, Debye):
    X=             -0.0000    Y=             -0.0000    Z=              0.0000  Tot=              0.0000
 Quadrupole moment (field-independent basis, Debye-Ang):
   XX=            -12.3282   YY=            -12.3759   ZZ=            -15.3569
   XY=             -0.0003   XZ=              0.0000   YZ=             -0.0000

 Normal termination of Gaussian 16 at Tue Nov 19 11:43:14 2024.
