 Gaussian 16, Revision A.03,
 Gaussian 16:  ES64L-G16RevA.03 25-Dec-2016

 ---------------------------------------------------
 #p UM062X/6-311+G** force int=superfine pop=saveNBO
 ---------------------------------------------------

 -------------------
 Title Card Required
 -------------------
 Symbolic Z-matrix:
 Charge =  0 Multiplicity = 1

                         Standard orientation:
 ---------------------------------------------------------------------
 Center     Atomic      Atomic             Coordinates (Angstroms)
 Number     Number       Type             X           Y           Z
 ---------------------------------------------------------------------
      1          6           0        0.000000    0.000000   -0.984094
      2          8           0        0.000000    0.000000    0.738070
 ---------------------------------------------------------------------

 SCF Done:  E(UM062X) =  -113.033668746     A.U. after   12 cycles

 The electronic state is 1-SG.
 Alpha  occ. eigenvalues --  -19.72563 -10.81552  -1.06108  -0.69440  -0.44119
 Alpha  occ. eigenvalues --   -0.41206  -0.41206
 Alpha virt. eigenvalues --   -0.13510  -0.13510   0.00448   0.03596   0.06595
 Alpha virt. eigenvalues --    0.06595   0.08824   0.19907   0.22542   0.22542
 Alpha virt. eigenvalues --    0.31697   0.53092   0.53092   0.53329   0.71039

  Beta  occ. eigenvalues --  -19.72563 -10.81552  -1.06108  -0.69440  -0.44119
  Beta  occ. eigenvalues --   -0.41206  -0.41206
  Beta virt. eigenvalues --   -0.13510  -0.13510   0.00448   0.03596   0.06595
  Beta virt. eigenvalues --    0.06595   0.08824   0.19907   0.22542   0.22542
  Beta virt. eigenvalues --    0.31697   0.53092   0.53092   0.53329   0.71039

 Mulliken charges and spin densities:
               1          2
     1  C    0.296078  -0.000000
     2  O   -0.296078   0.000000
 Sum of Mulliken charges =   0.00000   0.00000

 Dipole moment (field-independent basis, Debye):
    X=              0.0000    Y=              0.0000    Z=             -2.4535  Tot=              2.4535
 Quadrupole moment (field-independent basis, Debye-Ang):
   XX=            -11.3353   YY=            -11.3353   ZZ=            -11.5597
   XY=              0.0000   XZ=              0.0000   YZ=              0.0000

 Summary of Natural Population Analysis:

                                       Natural Population
                Natural  -----------------------------------------------
    Atom  No    Charge         Core      Valence    Rydberg      Total
 -----------------------------------------------------------------------
      C    1    0.31486      0.99999     1.67699    0.00816     2.68514
      O    2   -0.31486      0.99999     3.31309    0.00178     4.31486
 =======================================================================
   * Total *    0.00000      1.99997     4.99009    0.00994     7.00000

 Normal termination of Gaussian 16 at Mon Apr 21 19:31:23 2025.
