 Gaussian 16, Revision A.03,
 Gaussian 16:  ES64L-G16RevA.03 25-Dec-2016

 --------------------------------------------
 #p opt UM062X/6-311+G** nosymm int=superfine
 --------------------------------------------

 -------------------
 Title Card Required
 -------------------
 Symbolic Z-matrix:
 Charge =  0 Multiplicity = 1

 SCF Done:  E(UM062X) =  -438.488803598     A.U. after   13 cycles
 SCF Done:  E(UM062X) =  -438.502335666     A.U. after   11 cycles
 SCF Done:  E(UM062X) =  -438.509061055     A.U. after   13 cycles
 SCF Done:  E(UM062X) =  -438.509134023     A.U. after   12 cycles
 SCF Done:  E(UM062X) =  -438.509156277     A.U. after   10 cycles
 SCF Done:  E(UM062X) =  -438.509184531     A.U. after   11 cycles
 SCF Done:  E(UM062X) =  -438.509188271     A.U. after    9 cycles
 SCF Done:  E(UM062X) =  -438.509188849     A.U. after   10 cycles
 SCF Done:  E(UM062X) =  -438.509189200     A.U. after    8 cycles
 SCF Done:  E(UM062X) =  -438.509189662     A.U. after   13 cycles
 SCF Done:  E(UM062X) =  -438.509189876     A.U. after   11 cycles
 Optimization completed.
    -- Stationary point found.

                          Input orientation:
 ---------------------------------------------------------------------
 Center     Atomic      Atomic             Coordinates (Angstroms)
 Number     Number       Type             X           Y           Z
 ---------------------------------------------------------------------
      1          6           0       -1.885220    0.000000    0.000000
      2         16           0        1.885220    0.000000    0.000000
      3          1           0        1.841222   -1.343841   -0.002659
      4          1           0       -1.882155    1.080968    0.002256
      5          1           0       -1.928330   -0.536212   -0.937732
      6          1           0       -1.928517   -0.540126    0.935474
 ---------------------------------------------------------------------

 Alpha  occ. eigenvalues --  -89.87773 -10.64983  -8.24063  -6.16109  -6.16043
 Alpha  occ. eigenvalues --   -6.15494  -0.83258  -0.75561  -0.55296  -0.55223
 Alpha  occ. eigenvalues --   -0.42100  -0.28037  -0.27138
 Alpha virt. eigenvalues --   -0.15762   0.01077   0.03779   0.04223   0.05605
 Alpha virt. eigenvalues --    0.07533   0.08428   0.08459   0.10800   0.13534
 Alpha virt. eigenvalues --    0.15678   0.15942   0.20925   0.34149   0.35332

  Beta  occ. eigenvalues --  -89.87773 -10.64983  -8.24063  -6.16109  -6.16043
  Beta  occ. eigenvalues --   -6.15494  -0.83258  -0.75561  -0.55296  -0.55223
  Beta  occ. eigenvalues --   -0.42100  -0.28037  -0.27138
  Beta virt. eigenvalues --   -0.15762   0.01077   0.03779   0.04223   0.05605
  Beta virt. eigenvalues --    0.07533   0.08428   0.08459   0.10800   0.13534
  Beta virt. eigenvalues --    0.15678   0.15942   0.20925   0.34149   0.35332

 Mulliken charges and spin densities:
               1          2
     1  C   -0.389801  -0.000000
     2  S   -0.286697   0.000000
     3  H    0.051171  -0.000000
     4  H    0.210295   0.000000
     5  H    0.207519   0.000000
     6  H    0.207513   0.000000
 Sum of Mulliken charges =  -0.00000   0.00000

 Dipole moment (field-independent basis, Debye):
    X=             -4.8640    Y=             -0.9523    Z=             -0.0019  Tot=              4.9563
 Quadrupole moment (field-independent basis, Debye-Ang):
   XX=            -20.7775   YY=            -19.6086   ZZ=            -23.6633
   XY=             -1.8636   XZ=             -0.0039   YZ=              0.0080

 Normal termination of Gaussian 16 at Mon Apr 21 19:38:50 2025.
