 Gaussian 16, Revision A.03,
 Gaussian 16:  ES64L-G16RevA.03 25-Dec-2016

 --------------------------------------------
 #p opt UM062X/6-311+G** nosymm int=superfine
 --------------------------------------------

 -------------------
 Title Card Required
 -------------------
 Symbolic Z-matrix:
 Charge =  1 Multiplicity = 2

 SCF Done:  E(UM062X) =  -79.3113362633     A.U. after   10 cycles
 SCF Done:  E(UM062X) =  -79.3133716495     A.U. after    9 cycles
 SCF Done:  E(UM062X) =  -79.3134043521     A.U. after    9 cycles
 Optimization completed.
    -- Stationary point found.

                          Input orientation:
 ---------------------------------------------------------------------
 Center     Atomic      Atomic             Coordinates (Angstroms)
 Number     Number       Type             X           Y           Z
 ---------------------------------------------------------------------
      1          6           0       -2.254142    0.000000    0.000000
      2          6           0        2.254142    0.000000    0.000000
      3          1           0        2.275214   -0.937294    0.542493
      4          1           0       -2.273156   -0.938386   -0.540669
      5          1           0        2.274317    0.938482    0.540465
      6          1           0        2.273131   -0.001173   -1.083001
      7          1           0       -2.275277    0.937404   -0.542300
      8          1           0       -2.274228    0.000954    1.082983
 ---------------------------------------------------------------------

 Alpha  occ. eigenvalues --  -10.82668 -10.82667  -1.01310  -1.01139  -0.72435
 Alpha  occ. eigenvalues --   -0.72435  -0.72398  -0.72397  -0.45659
 Alpha virt. eigenvalues --   -0.37927  -0.12184  -0.09982  -0.08900  -0.08900
 Alpha virt. eigenvalues --   -0.06185  -0.06185  -0.04479  -0.02410   0.00805
 Alpha virt. eigenvalues --    0.00808   0.01603   0.01605   0.02195   0.09247

  Beta  occ. eigenvalues --  -10.82439 -10.82439  -0.98640  -0.98573  -0.71891
  Beta  occ. eigenvalues --   -0.71891  -0.71849  -0.71849
  Beta virt. eigenvalues --   -0.30773  -0.26677  -0.17022  -0.10251  -0.09929
  Beta virt. eigenvalues --   -0.09929  -0.06100  -0.06099  -0.05858  -0.01434
  Beta virt. eigenvalues --    0.00790   0.00793   0.01849   0.01852   0.02279

 Mulliken charges and spin densities:
               1          2
     1  C   -0.230852   0.560441
     2  C   -0.230853   0.560440
     3  H    0.243632  -0.020149
     4  H    0.243597  -0.020149
     5  H    0.243618  -0.020150
     6  H    0.243604  -0.020141
     7  H    0.243632  -0.020150
     8  H    0.243623  -0.020142
 Sum of Mulliken charges =   1.00000   1.00000

 Dipole moment (field-independent basis, Debye):
    X=             -0.0000    Y=             -0.0000    Z=             -0.0000  Tot=              0.0000
 Quadrupole moment (field-independent basis, Debye-Ang):
   XX=             12.6171   YY=            -11.1233   ZZ=            -11.1233
   XY=             -0.0023   XZ=              0.0014   YZ=              0.0001

 Normal termination of Gaussian 16 at Sat Nov 16 16:13:17 2024.
