 Gaussian 16, Revision A.03,
 Gaussian 16:  ES64L-G16RevA.03 25-Dec-2016

 ---------------------------------------
 #p UM062X/6-311+G** force int=superfine
 ---------------------------------------

 -------------------
 Title Card Required
 -------------------
 Symbolic Z-matrix:
 Charge =  1 Multiplicity = 2

                         Standard orientation:
 ---------------------------------------------------------------------
 Center     Atomic      Atomic             Coordinates (Angstroms)
 Number     Number       Type             X           Y           Z
 ---------------------------------------------------------------------
      1          6           0        0.000000    0.000000   -0.894732
      2          6           0        0.000000    0.000000    0.894734
      3          1           0        0.000000    0.000000   -1.994697
      4          1           0        0.000000    0.000000    1.994680
 ---------------------------------------------------------------------

 SCF Done:  E(UM062X) =  -76.6855117475     A.U. after   10 cycles

 Unable to determine electronic state:  an orbital has unidentified symmetry.
 Alpha  occ. eigenvalues --  -11.00588 -11.00558  -1.08529  -0.99460  -0.82677
 Alpha  occ. eigenvalues --   -0.62193  -0.60133
 Alpha virt. eigenvalues --   -0.37509  -0.35528  -0.31487  -0.14142  -0.11602
 Alpha virt. eigenvalues --   -0.10327  -0.08898  -0.08668  -0.05349  -0.05052
 Alpha virt. eigenvalues --    0.00969   0.03466   0.06693   0.23294   0.31231

  Beta  occ. eigenvalues --  -11.00329 -11.00309  -1.04916  -0.97641  -0.81687
  Beta  occ. eigenvalues --   -0.58235
  Beta virt. eigenvalues --   -0.39930  -0.33794  -0.29426  -0.29075  -0.15122
  Beta virt. eigenvalues --   -0.11927  -0.10849  -0.09269  -0.09112  -0.05341
  Beta virt. eigenvalues --   -0.05086   0.00019   0.03559   0.06899   0.23805

 Mulliken charges and spin densities:
               1          2
     1  C    0.130786   0.522341
     2  C    0.130784   0.522358
     3  H    0.369219  -0.022350
     4  H    0.369211  -0.022349
 Sum of Mulliken charges =   1.00000   1.00000

 Dipole moment (field-independent basis, Debye):
    X=              0.0000    Y=              0.0000    Z=             -0.0001  Tot=              0.0001
 Quadrupole moment (field-independent basis, Debye-Ang):
   XX=            -12.9803   YY=            -10.8579   ZZ=              4.0499
   XY=              0.0000   XZ=              0.0000   YZ=              0.0000

 Normal termination of Gaussian 16 at Tue Nov 19 13:38:54 2024.
