 Gaussian 16, Revision A.03,
 Gaussian 16:  ES64L-G16RevA.03 25-Dec-2016

 ---------------------------------------------------
 #p UM062X/6-311+G** force int=superfine pop=saveNBO
 ---------------------------------------------------

 -------------------
 Title Card Required
 -------------------
 Symbolic Z-matrix:
 Charge =  0 Multiplicity = 1

                         Standard orientation:
 ---------------------------------------------------------------------
 Center     Atomic      Atomic             Coordinates (Angstroms)
 Number     Number       Type             X           Y           Z
 ---------------------------------------------------------------------
      1          8           0        0.000000    0.000000    1.218562
      2          8           0        0.000000    0.000000   -1.218562
 ---------------------------------------------------------------------

 SCF Done:  E(UM062X) =  -149.883211647     A.U. after   10 cycles

 Unable to determine electronic state:  partially filled degenerate orbitals.
 Alpha  occ. eigenvalues --  -19.83704 -19.83698  -1.11880  -1.09290  -0.49629
 Alpha  occ. eigenvalues --   -0.48111  -0.45266  -0.42201
 Alpha virt. eigenvalues --   -0.29242  -0.25771   0.10170   0.12761   0.14883
 Alpha virt. eigenvalues --    0.14959   0.20233   0.20529   0.21431   0.31044
 Alpha virt. eigenvalues --    0.90728   0.97388   0.98471   1.04197   1.05532

  Beta  occ. eigenvalues --  -19.83704 -19.83698  -1.11880  -1.09290  -0.49629
  Beta  occ. eigenvalues --   -0.48111  -0.45266  -0.42201
  Beta virt. eigenvalues --   -0.29242  -0.25771   0.10170   0.12761   0.14883
  Beta virt. eigenvalues --    0.14959   0.20233   0.20529   0.21431   0.31044
  Beta virt. eigenvalues --    0.90728   0.97388   0.98471   1.04197   1.05532

 Mulliken charges and spin densities:
               1          2
     1  O   -0.000000   0.000000
     2  O   -0.000000   0.000000
 Sum of Mulliken charges =  -0.00000   0.00000

 Dipole moment (field-independent basis, Debye):
    X=              0.0000    Y=             -0.0000    Z=             -0.0000  Tot=              0.0000
 Quadrupole moment (field-independent basis, Debye-Ang):
   XX=            -10.1834   YY=            -11.9568   ZZ=             -9.1350
   XY=              0.0000   XZ=             -0.0000   YZ=              0.0000

 Summary of Natural Population Analysis:

                                       Natural Population
                Natural  -----------------------------------------------
    Atom  No    Charge         Core      Valence    Rydberg      Total
 -----------------------------------------------------------------------
      O    1   -0.00000      1.00000     2.99915    0.00085     4.00000
      O    2    0.00000      1.00000     2.99915    0.00085     4.00000
 =======================================================================
   * Total *    0.00000      2.00000     5.99831    0.00170     8.00000

 Normal termination of Gaussian 16 at Mon Apr 21 19:53:21 2025.
