 Gaussian 16, Revision A.03,
 Gaussian 16:  ES64L-G16RevA.03 25-Dec-2016

 --------------------------------------------
 #p opt UM062X/6-311+G** nosymm int=superfine
 --------------------------------------------

 -------------------
 Title Card Required
 -------------------
 Symbolic Z-matrix:
 Charge = -1 Multiplicity = 2

 SCF Done:  E(UM062X) =  -50.7444261351     A.U. after   11 cycles
 SCF Done:  E(UM062X) =  -50.7444302362     A.U. after    7 cycles
 Optimization completed.
    -- Stationary point found.

                          Input orientation:
 ---------------------------------------------------------------------
 Center     Atomic      Atomic             Coordinates (Angstroms)
 Number     Number       Type             X           Y           Z
 ---------------------------------------------------------------------
      1          5           0       -0.891404    0.000000    0.000000
      2          5           0        0.891404    0.000000    0.000000
      3          1           0       -2.073067   -0.000903   -0.000000
      4          1           0        2.073067    0.000903    0.000000
 ---------------------------------------------------------------------

 Alpha  occ. eigenvalues --   -6.85905  -6.85871  -0.36187  -0.31532  -0.19442
 Alpha  occ. eigenvalues --   -0.02445  -0.00988
 Alpha virt. eigenvalues --    0.14127   0.15479   0.17572   0.17910   0.20222
 Alpha virt. eigenvalues --    0.21475   0.21546   0.25564   0.25597   0.26093
 Alpha virt. eigenvalues --    0.30256   0.39048   0.47111   0.56011   0.59467

  Beta  occ. eigenvalues --   -6.85865  -6.85837  -0.33905  -0.30630  -0.18700
  Beta  occ. eigenvalues --    0.00976
  Beta virt. eigenvalues --    0.11148   0.14323   0.14732   0.16635   0.18268
  Beta virt. eigenvalues --    0.19237   0.20942   0.21410   0.23282   0.27960
  Beta virt. eigenvalues --    0.29037   0.31745   0.39394   0.47939   0.56444

 Mulliken charges and spin densities:
               1          2
     1  B   -0.481436   0.525187
     2  B   -0.481436   0.525187
     3  H   -0.018564  -0.025187
     4  H   -0.018564  -0.025187
 Sum of Mulliken charges =  -1.00000   1.00000

 Dipole moment (field-independent basis, Debye):
    X=             -0.0000    Y=              0.0000    Z=              0.0000  Tot=              0.0000
 Quadrupole moment (field-independent basis, Debye-Ang):
   XX=            -22.7228   YY=            -28.4331   ZZ=            -21.7480
   XY=              0.0050   XZ=              0.0000   YZ=             -0.0000

 Normal termination of Gaussian 16 at Mon Apr 21 17:25:35 2025.
