 Gaussian 16, Revision A.03,
 Gaussian 16:  ES64L-G16RevA.03 25-Dec-2016

 --------------------------------------------
 #p opt UM062X/6-311+G** nosymm int=superfine
 --------------------------------------------

 -------------------
 Title Card Required
 -------------------
 Symbolic Z-matrix:
 Charge =  0 Multiplicity = 1

 SCF Done:  E(UM062X) =  -472.448920376     A.U. after   10 cycles
 SCF Done:  E(UM062X) =  -473.274954615     A.U. after   10 cycles
 SCF Done:  E(UM062X) =  -474.004261646     A.U. after   11 cycles
 SCF Done:  E(UM062X) =  -474.253956336     A.U. after   12 cycles
 SCF Done:  E(UM062X) =  -474.264310925     A.U. after   12 cycles
 SCF Done:  E(UM062X) =  -474.276525849     A.U. after   45 cycles
 SCF Done:  E(UM062X) =  -474.281982715     A.U. after   13 cycles
 SCF Done:  E(UM062X) =  -474.323011583     A.U. after   15 cycles
 SCF Done:  E(UM062X) =  -474.329840934     A.U. after   14 cycles
 SCF Done:  E(UM062X) =  -474.376344673     A.U. after   18 cycles
 SCF Done:  E(UM062X) =  -474.381003574     A.U. after   13 cycles
 SCF Done:  E(UM062X) =  -474.383093907     A.U. after   16 cycles
 SCF Done:  E(UM062X) =  -474.383410813     A.U. after   10 cycles
 SCF Done:  E(UM062X) =  -474.383454254     A.U. after    9 cycles
 SCF Done:  E(UM062X) =  -474.383561151     A.U. after   12 cycles
 SCF Done:  E(UM062X) =  -474.383835959     A.U. after   12 cycles
 SCF Done:  E(UM062X) =  -474.384401342     A.U. after   14 cycles
 SCF Done:  E(UM062X) =  -474.384643138     A.U. after   10 cycles
 SCF Done:  E(UM062X) =  -474.384665875     A.U. after   11 cycles
 SCF Done:  E(UM062X) =  -474.384666550     A.U. after   13 cycles
 Optimization completed.
    -- Stationary point found.

                          Input orientation:
 ---------------------------------------------------------------------
 Center     Atomic      Atomic             Coordinates (Angstroms)
 Number     Number       Type             X           Y           Z
 ---------------------------------------------------------------------
      1          8           0       -1.186715   -0.000287   -0.000289
      2         16           0        0.985298   -0.000366   -0.000364
      3          1           0       -2.158269    0.000347    0.000348
      4          1           0        2.359686    0.000306    0.000305
 ---------------------------------------------------------------------

 Alpha  occ. eigenvalues --  -89.97170 -19.64561  -8.33171  -6.25328  -6.24992
 Alpha  occ. eigenvalues --   -6.24280  -1.07568  -0.82365  -0.57486  -0.40905
 Alpha  occ. eigenvalues --   -0.39758  -0.36014  -0.33131
 Alpha virt. eigenvalues --   -0.19173   0.01797   0.05349   0.05484   0.06025
 Alpha virt. eigenvalues --    0.08481   0.16550   0.20537   0.20899   0.23856
 Alpha virt. eigenvalues --    0.34216   0.35257   0.35501   0.36123   0.39003

  Beta  occ. eigenvalues --  -89.97170 -19.64561  -8.33171  -6.25328  -6.24992
  Beta  occ. eigenvalues --   -6.24280  -1.07568  -0.82365  -0.57486  -0.40905
  Beta  occ. eigenvalues --   -0.39758  -0.36014  -0.33131
  Beta virt. eigenvalues --   -0.19173   0.01797   0.05349   0.05484   0.06025
  Beta virt. eigenvalues --    0.08481   0.16550   0.20537   0.20899   0.23856
  Beta virt. eigenvalues --    0.34216   0.35257   0.35501   0.36123   0.39003

 Mulliken charges and spin densities:
               1          2
     1  O   -0.399049   0.000000
     2  S    0.046194  -0.000000
     3  H    0.318000  -0.000000
     4  H    0.034855  -0.000000
 Sum of Mulliken charges =  -0.00000  -0.00000

 Dipole moment (field-independent basis, Debye):
    X=              1.0038    Y=              0.0022    Z=              0.0022  Tot=              1.0038
 Quadrupole moment (field-independent basis, Debye-Ang):
   XX=            -12.0700   YY=            -20.6885   ZZ=            -20.6936
   XY=             -0.0024   XZ=             -0.0024   YZ=              1.9942

 Normal termination of Gaussian 16 at Wed Apr 16 05:09:55 2025.
