 Gaussian 16, Revision A.03,
 Gaussian 16:  ES64L-G16RevA.03 25-Dec-2016

 --------------------------------------------
 #p opt UM062X/6-311+G** nosymm int=superfine
 --------------------------------------------

 -------------------
 Title Card Required
 -------------------
 Symbolic Z-matrix:
 Charge =  0 Multiplicity = 1

 SCF Done:  E(UM062X) =  -110.366716215     A.U. after   11 cycles
 SCF Done:  E(UM062X) =  -110.379923865     A.U. after   13 cycles
 SCF Done:  E(UM062X) =  -110.381850419     A.U. after   12 cycles
 SCF Done:  E(UM062X) =  -110.381851595     A.U. after    8 cycles
 Optimization completed.
    -- Stationary point found.

                          Input orientation:
 ---------------------------------------------------------------------
 Center     Atomic      Atomic             Coordinates (Angstroms)
 Number     Number       Type             X           Y           Z
 ---------------------------------------------------------------------
      1          7           0       -1.040428    0.000000    0.000000
      2          7           0        1.040428    0.000000    0.000000
      3          1           0       -1.005648   -1.033396    0.000000
      4          1           0        1.005648    1.033396    0.000000
 ---------------------------------------------------------------------

 Alpha  occ. eigenvalues --  -14.88022 -14.88012  -0.95965  -0.88502  -0.50235
 Alpha  occ. eigenvalues --   -0.47193  -0.38514  -0.34253
 Alpha virt. eigenvalues --   -0.16040  -0.07821   0.05775   0.07994   0.10856
 Alpha virt. eigenvalues --    0.12331   0.13120   0.14926   0.16234   0.18965
 Alpha virt. eigenvalues --    0.20916   0.25553   0.53652   0.56720   0.75819

  Beta  occ. eigenvalues --  -14.88022 -14.88012  -0.95965  -0.88502  -0.50235
  Beta  occ. eigenvalues --   -0.47193  -0.38514  -0.34253
  Beta virt. eigenvalues --   -0.16040  -0.07821   0.05775   0.07994   0.10856
  Beta virt. eigenvalues --    0.12331   0.13120   0.14926   0.16234   0.18965
  Beta virt. eigenvalues --    0.20916   0.25553   0.53652   0.56720   0.75819

 Mulliken charges and spin densities:
               1          2
     1  N   -0.249321   0.000000
     2  N   -0.249321  -0.000000
     3  H    0.249321  -0.000000
     4  H    0.249321   0.000000
 Sum of Mulliken charges =  -0.00000   0.00000

 Dipole moment (field-independent basis, Debye):
    X=             -0.0000    Y=             -0.0000    Z=              0.0000  Tot=              0.0000
 Quadrupole moment (field-independent basis, Debye-Ang):
   XX=            -13.6698   YY=            -10.7608   ZZ=            -13.9208
   XY=              4.0048   XZ=             -0.0000   YZ=             -0.0000

 Normal termination of Gaussian 16 at Thu May 15 15:34:54 2025.
