 Gaussian 16, Revision A.03,
 Gaussian 16:  ES64L-G16RevA.03 25-Dec-2016

 --------------------------------------------
 #p opt UM062X/6-311+G** nosymm int=superfine
 --------------------------------------------

 -------------------
 Title Card Required
 -------------------
 Symbolic Z-matrix:
 Charge =  0 Multiplicity = 1

 SCF Done:  E(UM062X) =  -81.7230131131     A.U. after   28 cycles
 SCF Done:  E(UM062X) =  -81.7307070108     A.U. after   18 cycles
 SCF Done:  E(UM062X) =  -81.7465105092     A.U. after   17 cycles
 SCF Done:  E(UM062X) =  -81.7495699784     A.U. after   14 cycles
 SCF Done:  E(UM062X) =  -81.7612875068     A.U. after   15 cycles
 SCF Done:  E(UM062X) =  -81.7610241561     A.U. after   13 cycles
 SCF Done:  E(UM062X) =  -81.7601861608     A.U. after   14 cycles
 SCF Done:  E(UM062X) =  -81.7607315634     A.U. after   12 cycles
 SCF Done:  E(UM062X) =  -81.7631982193     A.U. after   13 cycles
 SCF Done:  E(UM062X) =  -81.7654216799     A.U. after   12 cycles
 SCF Done:  E(UM062X) =  -81.7655956499     A.U. after   12 cycles
 SCF Done:  E(UM062X) =  -81.7656150340     A.U. after   14 cycles
 SCF Done:  E(UM062X) =  -81.7656185814     A.U. after   10 cycles
 Optimization completed.
    -- Stationary point found.

                          Input orientation:
 ---------------------------------------------------------------------
 Center     Atomic      Atomic             Coordinates (Angstroms)
 Number     Number       Type             X           Y           Z
 ---------------------------------------------------------------------
      1          5           0       -1.595399    0.000000    0.000000
      2          7           0        1.595399    0.000000    0.000000
      3          1           0       -1.953889   -1.115768    0.025158
      4          1           0        1.618681    0.803347   -0.635936
      5          1           0       -1.953889    1.115773    0.024926
      6          1           0        1.618681   -0.803480   -0.635769
 ---------------------------------------------------------------------

 Alpha  occ. eigenvalues --  -14.71930  -7.17803  -0.87535  -0.62419  -0.50855
 Alpha  occ. eigenvalues --   -0.48226  -0.33491  -0.25120
 Alpha virt. eigenvalues --   -0.08830  -0.08026   0.00926   0.02892   0.04152
 Alpha virt. eigenvalues --    0.05140   0.10015   0.12164   0.13687   0.17374
 Alpha virt. eigenvalues --    0.20388   0.20911   0.21527   0.29197   0.32585

  Beta  occ. eigenvalues --  -14.71930  -7.17803  -0.87535  -0.62419  -0.50855
  Beta  occ. eigenvalues --   -0.48226  -0.33491  -0.25120
  Beta virt. eigenvalues --   -0.08830  -0.08026   0.00926   0.02892   0.04152
  Beta virt. eigenvalues --    0.05140   0.10015   0.12164   0.13687   0.17374
  Beta virt. eigenvalues --    0.20388   0.20911   0.21527   0.29197   0.32585

 Mulliken charges and spin densities:
               1          2
     1  B    0.173781  -0.000001
     2  N   -0.715764   0.000001
     3  H    0.060721   0.000000
     4  H    0.210270  -0.000000
     5  H    0.060721   0.000000
     6  H    0.210270  -0.000000
 Sum of Mulliken charges =  -0.00000   0.00000

 Dipole moment (field-independent basis, Debye):
    X=             -4.5790    Y=             -0.0002    Z=             -1.8192  Tot=              4.9272
 Quadrupole moment (field-independent basis, Debye-Ang):
   XX=            -14.2102   YY=            -13.4259   ZZ=            -14.5178
   XY=             -0.0003   XZ=             -3.2892   YZ=             -0.0001

 Normal termination of Gaussian 16 at Mon Apr 21 17:51:38 2025.
