 Gaussian 16, Revision A.03,
 Gaussian 16:  ES64L-G16RevA.03 25-Dec-2016

 --------------------------------------------
 #p opt UM062X/6-311+G** nosymm int=superfine
 --------------------------------------------

 -------------------
 Title Card Required
 -------------------
 Symbolic Z-matrix:
 Charge = -1 Multiplicity = 2

 SCF Done:  E(UM062X) =  -53.1968551169     A.U. after   12 cycles
 SCF Done:  E(UM062X) =  -53.2014265144     A.U. after   11 cycles
 SCF Done:  E(UM062X) =  -53.2024509014     A.U. after   10 cycles
 SCF Done:  E(UM062X) =  -53.2024540499     A.U. after    8 cycles
 Optimization completed.
    -- Stationary point found.

                          Input orientation:
 ---------------------------------------------------------------------
 Center     Atomic      Atomic             Coordinates (Angstroms)
 Number     Number       Type             X           Y           Z
 ---------------------------------------------------------------------
      1          5           0       -2.215672    0.000000    0.000000
      2          5           0        2.215672    0.000000    0.000000
      3          1           0        2.272454   -1.197005   -0.000015
      4          1           0       -2.272020   -0.598517    1.036661
      5          1           0        2.272184    0.598535   -1.036643
      6          1           0        2.271953    0.598503    1.036673
      7          1           0       -2.272462    1.197005   -0.000001
      8          1           0       -2.272108   -0.598522   -1.036654
 ---------------------------------------------------------------------

 Alpha  occ. eigenvalues --   -6.85096  -6.85095  -0.40370  -0.40040  -0.22241
 Alpha  occ. eigenvalues --   -0.22241  -0.22100  -0.22100   0.01335
 Alpha virt. eigenvalues --    0.10568   0.16565   0.17606   0.17606   0.18133
 Alpha virt. eigenvalues --    0.18133   0.18605   0.23168   0.24050   0.32777
 Alpha virt. eigenvalues --    0.32778   0.33835   0.33836   0.35257   0.38576

  Beta  occ. eigenvalues --   -6.85059  -6.85058  -0.38692  -0.38469  -0.22091
  Beta  occ. eigenvalues --   -0.22091  -0.21929  -0.21929
  Beta virt. eigenvalues --    0.07894   0.13021   0.13155   0.14380   0.14381
  Beta virt. eigenvalues --    0.17593   0.17593   0.20184   0.22228   0.24751
  Beta virt. eigenvalues --    0.31713   0.31713   0.32917   0.32920   0.33129

 Mulliken charges and spin densities:
               1          2
     1  B   -0.357788   0.549929
     2  B   -0.357787   0.549929
     3  H   -0.047466  -0.016702
     4  H   -0.047372  -0.016613
     5  H   -0.047378  -0.016613
     6  H   -0.047369  -0.016613
     7  H   -0.047466  -0.016702
     8  H   -0.047375  -0.016614
 Sum of Mulliken charges =  -1.00000   1.00000

 Dipole moment (field-independent basis, Debye):
    X=              0.0000    Y=             -0.0000    Z=              0.0001  Tot=              0.0001
 Quadrupole moment (field-independent basis, Debye-Ang):
   XX=            -47.3050   YY=            -24.3541   ZZ=            -24.3536
   XY=              0.0003   XZ=              0.0000   YZ=              0.0000

 Normal termination of Gaussian 16 at Mon Apr 21 16:57:06 2025.
