 Gaussian 16, Revision A.03,
 Gaussian 16:  ES64L-G16RevA.03 25-Dec-2016

 --------------------------------------------
 #p opt UM062X/6-311+G** nosymm int=superfine
 --------------------------------------------

 -------------------
 Title Card Required
 -------------------
 Symbolic Z-matrix:
 Charge =  0 Multiplicity = 1

 SCF Done:  E(UM062X) =  -51.7904494381     A.U. after   10 cycles
 SCF Done:  E(UM062X) =  -51.7958394789     A.U. after    9 cycles
 SCF Done:  E(UM062X) =  -51.7990596339     A.U. after   11 cycles
 SCF Done:  E(UM062X) =  -51.7990627394     A.U. after    9 cycles
 SCF Done:  E(UM062X) =  -51.7990606246     A.U. after    9 cycles
 SCF Done:  E(UM062X) =  -51.7990615764     A.U. after    9 cycles
 SCF Done:  E(UM062X) =  -51.7990626098     A.U. after   11 cycles
 SCF Done:  E(UM062X) =  -51.7990627679     A.U. after    8 cycles
 Optimization completed.
    -- Stationary point found.

                          Input orientation:
 ---------------------------------------------------------------------
 Center     Atomic      Atomic             Coordinates (Angstroms)
 Number     Number       Type             X           Y           Z
 ---------------------------------------------------------------------
      1          5           0       -2.070607    0.000000    0.000000
      2          5           0        2.070607    0.000000    0.000000
      3          1           0       -2.528801   -1.086786   -0.000064
      4          1           0        2.528801    1.086770   -0.005906
      5          1           0       -2.528803    1.086785    0.000072
      6          1           0        2.528802   -1.086769    0.005907
 ---------------------------------------------------------------------

 Alpha  occ. eigenvalues --   -7.11536  -7.11535  -0.57959  -0.57695  -0.45261
 Alpha  occ. eigenvalues --   -0.45192  -0.19810
 Alpha virt. eigenvalues --   -0.07637  -0.05166  -0.04160   0.02262   0.03162
 Alpha virt. eigenvalues --    0.03848   0.05399   0.06194   0.07196   0.08380
 Alpha virt. eigenvalues --    0.10003   0.15291   0.15883   0.17146   0.23864

  Beta  occ. eigenvalues --   -7.11536  -7.11535  -0.57959  -0.57695  -0.45261
  Beta  occ. eigenvalues --   -0.45192  -0.19810
  Beta virt. eigenvalues --   -0.07637  -0.05166  -0.04160   0.02262   0.03162
  Beta virt. eigenvalues --    0.03848   0.05399   0.06194   0.07196   0.08380
  Beta virt. eigenvalues --    0.10003   0.15291   0.15883   0.17146   0.23864

 Mulliken charges and spin densities:
               1          2
     1  B   -0.060480  -0.000000
     2  B   -0.060480   0.000000
     3  H    0.030240  -0.000000
     4  H    0.030240   0.000000
     5  H    0.030240  -0.000000
     6  H    0.030240   0.000000
 Sum of Mulliken charges =  -0.00000   0.00000

 Dipole moment (field-independent basis, Debye):
    X=              0.0000    Y=              0.0000    Z=              0.0000  Tot=              0.0000
 Quadrupole moment (field-independent basis, Debye-Ang):
   XX=            -10.7670   YY=            -16.9629   ZZ=            -14.5940
   XY=             -0.0000   XZ=              0.0000   YZ=              0.0064

 Normal termination of Gaussian 16 at Mon Apr 21 17:18:26 2025.
