 Gaussian 16, Revision A.03,
 Gaussian 16:  ES64L-G16RevA.03 25-Dec-2016

 --------------------------------------------
 #p opt UM062X/6-311+G** nosymm int=superfine
 --------------------------------------------

 -------------------
 Title Card Required
 -------------------
 Symbolic Z-matrix:
 Charge =  0 Multiplicity = 1

 SCF Done:  E(UM062X) =  -79.6268947962     A.U. after    9 cycles
 SCF Done:  E(UM062X) =  -79.6545049417     A.U. after    8 cycles
 SCF Done:  E(UM062X) =  -79.6639458013     A.U. after    8 cycles
 SCF Done:  E(UM062X) =  -79.6639817121     A.U. after    7 cycles
 Optimization completed.
    -- Stationary point found.

                          Input orientation:
 ---------------------------------------------------------------------
 Center     Atomic      Atomic             Coordinates (Angstroms)
 Number     Number       Type             X           Y           Z
 ---------------------------------------------------------------------
      1          6           0       -0.580296    0.000000    0.000000
      2          6           0        0.580355    0.000000    0.000000
      3          1           0        1.064768   -0.858966    0.497039
      4          1           0       -1.064706   -0.859954   -0.495352
      5          1           0        1.064766    0.859954    0.495349
      6          1           0        1.064777   -0.000949   -0.992414
      7          1           0       -1.064709    0.858965   -0.497042
      8          1           0       -1.064718    0.000947    0.992413
 ---------------------------------------------------------------------

 Alpha  occ. eigenvalues --  -10.50001 -10.49649  -0.94225  -0.67859  -0.54573
 Alpha  occ. eigenvalues --   -0.54572  -0.51044  -0.35287  -0.35286
 Alpha virt. eigenvalues --    0.02060   0.04190   0.04789   0.04789   0.08635
 Alpha virt. eigenvalues --    0.08970   0.08970   0.14252   0.19002   0.19003
 Alpha virt. eigenvalues --    0.19882   0.19882   0.24014   0.27889   0.38804

  Beta  occ. eigenvalues --  -10.50001 -10.49649  -0.94225  -0.67859  -0.54573
  Beta  occ. eigenvalues --   -0.54572  -0.51044  -0.35287  -0.35286
  Beta virt. eigenvalues --    0.02060   0.04190   0.04789   0.04789   0.08635
  Beta virt. eigenvalues --    0.08970   0.08970   0.14252   0.19002   0.19003
  Beta virt. eigenvalues --    0.19882   0.19882   0.24014   0.27889   0.38804

 Mulliken charges and spin densities:
               1          2
     1  C   -0.428384  -0.000000
     2  C   -0.428384   0.000000
     3  H    0.142796  -0.000000
     4  H    0.142794   0.000000
     5  H    0.142795  -0.000000
     6  H    0.142794  -0.000000
     7  H    0.142796   0.000000
     8  H    0.142794   0.000000
 Sum of Mulliken charges =  -0.00000  -0.00000

 Dipole moment (field-independent basis, Debye):
    X=              0.0000    Y=             -0.0000    Z=             -0.0000  Tot=              0.0000
 Quadrupole moment (field-independent basis, Debye-Ang):
   XX=            -15.6479   YY=            -14.9464   ZZ=            -14.9466
   XY=              0.0000   XZ=             -0.0000   YZ=             -0.0001

 Normal termination of Gaussian 16 at Tue Nov 19 11:43:09 2024.
