 Gaussian 16, Revision A.03,
 Gaussian 16:  ES64L-G16RevA.03 25-Dec-2016

 ---------------------------------------
 #p UM062X/6-311+G** force int=superfine
 ---------------------------------------

 -------------------
 Title Card Required
 -------------------
 Symbolic Z-matrix:
 Charge =  0 Multiplicity = 1

                         Standard orientation:
 ---------------------------------------------------------------------
 Center     Atomic      Atomic             Coordinates (Angstroms)
 Number     Number       Type             X           Y           Z
 ---------------------------------------------------------------------
      1          6           0        1.030841   -0.000001   -0.000001
      2          6           0       -1.030841    0.000001    0.000000
      3          1           0       -1.311507   -0.435506    0.953262
      4          1           0        1.311511    0.607838    0.853765
      5          1           0       -1.311512   -0.607836   -0.853763
      6          1           0       -1.311578    1.043283   -0.099492
      7          1           0        1.311508    0.435506   -0.953263
      8          1           0        1.311581   -1.043281    0.099492
 ---------------------------------------------------------------------

 SCF Done:  E(UM062X) =  -79.7350047567     A.U. after    9 cycles

 The electronic state is 1-A.
 Alpha  occ. eigenvalues --  -10.54703 -10.54694  -0.78825  -0.72720  -0.48365
 Alpha  occ. eigenvalues --   -0.48364  -0.44552  -0.44551  -0.32690
 Alpha virt. eigenvalues --    0.02345   0.02350   0.05628   0.05628   0.08467
 Alpha virt. eigenvalues --    0.08467   0.09554   0.10535   0.13624   0.18185
 Alpha virt. eigenvalues --    0.18186   0.22052   0.22052   0.24305   0.26903

  Beta  occ. eigenvalues --  -10.54703 -10.54694  -0.78825  -0.72720  -0.48365
  Beta  occ. eigenvalues --   -0.48364  -0.44552  -0.44551  -0.32690
  Beta virt. eigenvalues --    0.02345   0.02350   0.05628   0.05628   0.08467
  Beta virt. eigenvalues --    0.08467   0.09554   0.10535   0.13624   0.18185
  Beta virt. eigenvalues --    0.18186   0.22052   0.22052   0.24305   0.26903

 Mulliken charges and spin densities:
               1          2
     1  C   -0.499286  -0.000000
     2  C   -0.499285  -0.000000
     3  H    0.166429   0.000000
     4  H    0.166429  -0.000000
     5  H    0.166429   0.000000
     6  H    0.166427   0.000000
     7  H    0.166429  -0.000000
     8  H    0.166427   0.000000
 Sum of Mulliken charges =  -0.00000   0.00000

 Dipole moment (field-independent basis, Debye):
    X=             -0.0000    Y=             -0.0000    Z=              0.0000  Tot=              0.0000
 Quadrupole moment (field-independent basis, Debye-Ang):
   XX=            -15.5916   YY=            -14.8696   ZZ=            -14.8698
   XY=             -0.0001   XZ=              0.0000   YZ=             -0.0000

 Normal termination of Gaussian 16 at Tue Nov 19 12:51:37 2024.
