 Gaussian 16, Revision A.03,
 Gaussian 16:  ES64L-G16RevA.03 25-Dec-2016

 --------------------------------------------
 #p opt UM062X/6-311+G** nosymm int=superfine
 --------------------------------------------

 -------------------
 Title Card Required
 -------------------
 Symbolic Z-matrix:
 Charge =  0 Multiplicity = 1

 SCF Done:  E(UM062X) =  -81.7323755155     A.U. after   22 cycles
 SCF Done:  E(UM062X) =  -81.7398804902     A.U. after   14 cycles
 SCF Done:  E(UM062X) =  -81.7519068513     A.U. after   15 cycles
 SCF Done:  E(UM062X) =  -81.7576971306     A.U. after   17 cycles
 SCF Done:  E(UM062X) =  -81.7606688704     A.U. after   13 cycles
 SCF Done:  E(UM062X) =  -81.7614792338     A.U. after   14 cycles
 SCF Done:  E(UM062X) =  -81.7634028358     A.U. after   13 cycles
 SCF Done:  E(UM062X) =  -81.7648363697     A.U. after   14 cycles
 SCF Done:  E(UM062X) =  -81.7656820118     A.U. after   14 cycles
 SCF Done:  E(UM062X) =  -81.7691220634     A.U. after   14 cycles
 SCF Done:  E(UM062X) =  -81.7725258983     A.U. after   12 cycles
 SCF Done:  E(UM062X) =  -81.7728547462     A.U. after   13 cycles
 SCF Done:  E(UM062X) =  -81.7732213615     A.U. after   12 cycles
 SCF Done:  E(UM062X) =  -81.7732902963     A.U. after   20 cycles
 SCF Done:  E(UM062X) =  -81.7733048768     A.U. after   10 cycles
 SCF Done:  E(UM062X) =  -81.7733094217     A.U. after   12 cycles
 SCF Done:  E(UM062X) =  -81.7733122932     A.U. after    8 cycles
 SCF Done:  E(UM062X) =  -81.7733142563     A.U. after   10 cycles
 SCF Done:  E(UM062X) =  -81.7733152093     A.U. after   12 cycles
 Optimization completed.
    -- Stationary point found.

                          Input orientation:
 ---------------------------------------------------------------------
 Center     Atomic      Atomic             Coordinates (Angstroms)
 Number     Number       Type             X           Y           Z
 ---------------------------------------------------------------------
      1          5           0       -1.545399    0.000000    0.000000
      2          7           0        1.545399    0.000000    0.000000
      3          1           0       -1.910860   -1.113470   -0.025912
      4          1           0        1.577855    0.804312    0.634255
      5          1           0       -1.910858    1.113464   -0.026206
      6          1           0        1.577853   -0.804151    0.634458
 ---------------------------------------------------------------------

 Alpha  occ. eigenvalues --  -14.71993  -7.17588  -0.87594  -0.62226  -0.50608
 Alpha  occ. eigenvalues --   -0.48306  -0.33563  -0.25547
 Alpha virt. eigenvalues --   -0.08411  -0.07615   0.00987   0.02941   0.04159
 Alpha virt. eigenvalues --    0.05183   0.10175   0.12323   0.13708   0.17353
 Alpha virt. eigenvalues --    0.20441   0.20944   0.21490   0.29464   0.32647

  Beta  occ. eigenvalues --  -14.71993  -7.17588  -0.87594  -0.62226  -0.50608
  Beta  occ. eigenvalues --   -0.48306  -0.33563  -0.25547
  Beta virt. eigenvalues --   -0.08411  -0.07615   0.00987   0.02941   0.04159
  Beta virt. eigenvalues --    0.05183   0.10175   0.12323   0.13708   0.17353
  Beta virt. eigenvalues --    0.20441   0.20944   0.21490   0.29464   0.32647

 Mulliken charges and spin densities:
               1          2
     1  B    0.177544  -0.000000
     2  N   -0.719708   0.000000
     3  H    0.058869   0.000000
     4  H    0.212213  -0.000000
     5  H    0.058869   0.000000
     6  H    0.212213  -0.000000
 Sum of Mulliken charges =  -0.00000  -0.00000

 Dipole moment (field-independent basis, Debye):
    X=             -4.3967    Y=              0.0002    Z=              1.8038  Tot=              4.7523
 Quadrupole moment (field-independent basis, Debye-Ang):
   XX=            -14.3021   YY=            -13.4174   ZZ=            -14.5021
   XY=              0.0004   XZ=              3.2001   YZ=             -0.0001

 Normal termination of Gaussian 16 at Mon Apr 21 17:52:51 2025.
