 Gaussian 16, Revision A.03,
 Gaussian 16:  ES64L-G16RevA.03 25-Dec-2016

 --------------------------------------------
 #p opt UM062X/6-311+G** nosymm int=superfine
 --------------------------------------------

 -------------------
 Title Card Required
 -------------------
 Symbolic Z-matrix:
 Charge =  1 Multiplicity = 2

 SCF Done:  E(UM062X) =  -80.1874920452     A.U. after   21 cycles
 SCF Done:  E(UM062X) =  -80.1880765093     A.U. after   14 cycles
 SCF Done:  E(UM062X) =  -80.1885597337     A.U. after   14 cycles
 SCF Done:  E(UM062X) =  -80.1887234691     A.U. after   13 cycles
 SCF Done:  E(UM062X) =  -80.1892270139     A.U. after   14 cycles
 SCF Done:  E(UM062X) =  -80.1912974957     A.U. after   16 cycles
 SCF Done:  E(UM062X) =  -80.1915160050     A.U. after   13 cycles
 SCF Done:  E(UM062X) =  -80.1915471328     A.U. after   13 cycles
 SCF Done:  E(UM062X) =  -80.1915472717     A.U. after   10 cycles
 SCF Done:  E(UM062X) =  -80.1915473649     A.U. after    9 cycles
 SCF Done:  E(UM062X) =  -80.1915474753     A.U. after    9 cycles
 SCF Done:  E(UM062X) =  -80.1915475062     A.U. after    9 cycles
 Optimization completed.
    -- Stationary point found.

                          Input orientation:
 ---------------------------------------------------------------------
 Center     Atomic      Atomic             Coordinates (Angstroms)
 Number     Number       Type             X           Y           Z
 ---------------------------------------------------------------------
      1          5           0       -1.227734    0.000000    0.000000
      2          7           0        1.227734    0.000000    0.000000
      3          1           0       -1.635057   -0.121292    1.116317
      4          1           0        2.058183    0.067149   -0.616910
 ---------------------------------------------------------------------

 Alpha  occ. eigenvalues --  -15.07196  -7.49126  -1.18732  -0.83154  -0.73390
 Alpha  occ. eigenvalues --   -0.65436  -0.65307
 Alpha virt. eigenvalues --   -0.38514  -0.30793  -0.28329  -0.14133  -0.10767
 Alpha virt. eigenvalues --   -0.09258  -0.08979  -0.07135  -0.04686  -0.01643
 Alpha virt. eigenvalues --   -0.01101   0.02356   0.05884   0.10078   0.15315

  Beta  occ. eigenvalues --  -15.04708  -7.50328  -1.05948  -0.86258  -0.69529
  Beta  occ. eigenvalues --   -0.62616
  Beta virt. eigenvalues --   -0.33902  -0.32426  -0.27735  -0.26364  -0.14108
  Beta virt. eigenvalues --   -0.11326  -0.09415  -0.09045  -0.06098  -0.04326
  Beta virt. eigenvalues --   -0.00687  -0.00399   0.02005   0.04986   0.15324

 Mulliken charges and spin densities:
               1          2
     1  B    0.618958  -0.836556
     2  N   -0.128073   2.006035
     3  H    0.187350  -0.112511
     4  H    0.321765  -0.056968
 Sum of Mulliken charges =   1.00000   1.00000

 Dipole moment (field-independent basis, Debye):
    X=             -2.1479    Y=              0.0373    Z=             -0.3414  Tot=              2.1751
 Quadrupole moment (field-independent basis, Debye-Ang):
   XX=              3.0631   YY=            -10.1603   ZZ=             -9.8413
   XY=              0.3435   XZ=             -3.1574   YZ=             -0.0352

 Normal termination of Gaussian 16 at Mon Apr 21 21:04:40 2025.
