 Gaussian 16, Revision A.03,
 Gaussian 16:  ES64L-G16RevA.03 25-Dec-2016

 --------------------------------------------
 #p opt UM062X/6-311+G** nosymm int=superfine
 --------------------------------------------

 -------------------
 Title Card Required
 -------------------
 Symbolic Z-matrix:
 Charge =  1 Multiplicity = 2

 SCF Done:  E(UM062X) =  -579.670586443     A.U. after   14 cycles
 SCF Done:  E(UM062X) =  -579.671115650     A.U. after   12 cycles
 SCF Done:  E(UM062X) =  -579.671353394     A.U. after   12 cycles
 SCF Done:  E(UM062X) =  -579.672056378     A.U. after   12 cycles
 SCF Done:  E(UM062X) =  -579.672898122     A.U. after   15 cycles
 SCF Done:  E(UM062X) =  -579.673004769     A.U. after   12 cycles
 SCF Done:  E(UM062X) =  -579.673054333     A.U. after   10 cycles
 SCF Done:  E(UM062X) =  -579.673054926     A.U. after    9 cycles
 SCF Done:  E(UM062X) =  -579.673056121     A.U. after   10 cycles
 SCF Done:  E(UM062X) =  -579.673058353     A.U. after   10 cycles
 SCF Done:  E(UM062X) =  -579.673060403     A.U. after   11 cycles
 SCF Done:  E(UM062X) =  -579.673060706     A.U. after   10 cycles
 Optimization completed.
    -- Stationary point found.

                          Input orientation:
 ---------------------------------------------------------------------
 Center     Atomic      Atomic             Coordinates (Angstroms)
 Number     Number       Type             X           Y           Z
 ---------------------------------------------------------------------
      1         14           0       -2.502975    0.000000    0.000000
      2         14           0        2.502975    0.000000    0.000000
      3          1           0       -2.656794   -1.500736    0.000000
      4          1           0        2.656797    1.500711    0.000000
 ---------------------------------------------------------------------

 Alpha  occ. eigenvalues --  -67.25744 -67.25744  -5.79923  -5.79922  -4.11026
 Alpha  occ. eigenvalues --   -4.11026  -4.10936  -4.10936  -4.10290  -4.10290
 Alpha  occ. eigenvalues --   -0.74735  -0.74470  -0.51525  -0.51373  -0.38196
 Alpha virt. eigenvalues --   -0.29987  -0.26611  -0.26245  -0.10362  -0.08977
 Alpha virt. eigenvalues --   -0.08178  -0.07395  -0.07322  -0.06260  -0.05429
 Alpha virt. eigenvalues --   -0.05358  -0.04769  -0.02233   0.13295   0.14850

  Beta  occ. eigenvalues --  -67.25484 -67.25484  -5.79850  -5.79849  -4.10873
  Beta  occ. eigenvalues --   -4.10873  -4.10323  -4.10323  -4.10192  -4.10192
  Beta  occ. eigenvalues --   -0.72927  -0.72824  -0.50883  -0.50728
  Beta virt. eigenvalues --   -0.27321  -0.26406  -0.25846  -0.23976  -0.14680
  Beta virt. eigenvalues --   -0.10805  -0.09051  -0.08070  -0.07611  -0.06260
  Beta virt. eigenvalues --   -0.05701  -0.05180  -0.04917  -0.02292   0.09457

 Mulliken charges and spin densities:
               1          2
     1  Si   0.585522   0.507971
     2  Si   0.585523   0.507970
     3  H   -0.085523  -0.007971
     4  H   -0.085522  -0.007971
 Sum of Mulliken charges =   1.00000   1.00000

 Dipole moment (field-independent basis, Debye):
    X=              0.0000    Y=              0.0000    Z=              0.0000  Tot=              0.0000
 Quadrupole moment (field-independent basis, Debye-Ang):
   XX=             11.0203   YY=            -27.8202   ZZ=            -20.0185
   XY=              2.4384   XZ=             -0.0000   YZ=              0.0000

 Normal termination of Gaussian 16 at Mon Apr 21 20:45:45 2025.
