 Gaussian 16, Revision A.03,
 Gaussian 16:  ES64L-G16RevA.03 25-Dec-2016

 --------------------------------------------
 #p opt UM062X/6-311+G** nosymm int=superfine
 --------------------------------------------

 -------------------
 Title Card Required
 -------------------
 Symbolic Z-matrix:
 Charge =  0 Multiplicity = 1

 SCF Done:  E(UM062X) =  -115.463908405     A.U. after   16 cycles
 SCF Done:  E(UM062X) =  -115.480250549     A.U. after   11 cycles
 SCF Done:  E(UM062X) =  -115.490070647     A.U. after   13 cycles
 SCF Done:  E(UM062X) =  -115.490243871     A.U. after   10 cycles
 SCF Done:  E(UM062X) =  -115.490369013     A.U. after   11 cycles
 SCF Done:  E(UM062X) =  -115.490455384     A.U. after   10 cycles
 SCF Done:  E(UM062X) =  -115.490472469     A.U. after   11 cycles
 SCF Done:  E(UM062X) =  -115.490473904     A.U. after    8 cycles
 Optimization completed.
    -- Stationary point found.

                          Input orientation:
 ---------------------------------------------------------------------
 Center     Atomic      Atomic             Coordinates (Angstroms)
 Number     Number       Type             X           Y           Z
 ---------------------------------------------------------------------
      1          6           0       -1.632203    0.000000    0.000000
      2          8           0        1.632203    0.000000    0.000000
      3          1           0        1.668298   -0.965000    0.000508
      4          1           0       -1.707356   -0.532704    0.937963
      5          1           0       -1.551059    1.078202   -0.000688
      6          1           0       -1.707318   -0.533900   -0.937285
 ---------------------------------------------------------------------

 Alpha  occ. eigenvalues --  -19.58655 -10.66943  -1.01018  -0.84580  -0.56713
 Alpha  occ. eigenvalues --   -0.56468  -0.45552  -0.32504  -0.28716
 Alpha virt. eigenvalues --   -0.15874   0.00458   0.03836   0.04175   0.06643
 Alpha virt. eigenvalues --    0.13579   0.15007   0.15203   0.19900   0.22948
 Alpha virt. eigenvalues --    0.23011   0.24862   0.28979   0.39264   0.39539

  Beta  occ. eigenvalues --  -19.58655 -10.66943  -1.01018  -0.84580  -0.56713
  Beta  occ. eigenvalues --   -0.56468  -0.45552  -0.32504  -0.28716
  Beta virt. eigenvalues --   -0.15874   0.00458   0.03836   0.04175   0.06643
  Beta virt. eigenvalues --    0.13579   0.15007   0.15203   0.19900   0.22948
  Beta virt. eigenvalues --    0.23011   0.24862   0.28979   0.39264   0.39539

 Mulliken charges and spin densities:
               1          2
     1  C   -0.289807   0.000000
     2  O   -0.568434  -0.000000
     3  H    0.211817   0.000000
     4  H    0.210539   0.000000
     5  H    0.225346  -0.000000
     6  H    0.210539  -0.000000
 Sum of Mulliken charges =  -0.00000   0.00000

 Dipole moment (field-independent basis, Debye):
    X=             -5.7605    Y=             -1.5630    Z=              0.0008  Tot=              5.9688
 Quadrupole moment (field-independent basis, Debye-Ang):
   XX=            -13.2545   YY=            -11.4705   ZZ=            -13.8903
   XY=             -2.7417   XZ=              0.0014   YZ=             -0.0013

 Normal termination of Gaussian 16 at Mon Apr 21 18:42:10 2025.
