 Gaussian 16, Revision A.03,
 Gaussian 16:  ES64L-G16RevA.03 25-Dec-2016

 --------------------------------------------
 #p opt UM062X/6-311+G** nosymm int=superfine
 --------------------------------------------

 -------------------
 Title Card Required
 -------------------
 Symbolic Z-matrix:
 Charge =  0 Multiplicity = 1

 SCF Done:  E(UM062X) =  -75.6473949547     A.U. after    9 cycles
 SCF Done:  E(UM062X) =  -75.9790547491     A.U. after    9 cycles
 SCF Done:  E(UM062X) =  -76.1832891068     A.U. after   11 cycles
 SCF Done:  E(UM062X) =  -76.1883982281     A.U. after    9 cycles
 SCF Done:  E(UM062X) =  -76.1888731125     A.U. after    9 cycles
 Optimization completed.
    -- Stationary point found.

                          Input orientation:
 ---------------------------------------------------------------------
 Center     Atomic      Atomic             Coordinates (Angstroms)
 Number     Number       Type             X           Y           Z
 ---------------------------------------------------------------------
      1          6           0       -0.371080    0.000000    0.000000
      2          6           0        0.371080    0.000000    0.000000
      3          1           0       -1.426354   -0.000000   -0.000000
      4          1           0        1.426351   -0.000000   -0.000000
 ---------------------------------------------------------------------

 Alpha  occ. eigenvalues --  -10.55565 -10.42772  -0.85355  -0.57020  -0.52811
 Alpha  occ. eigenvalues --   -0.49572  -0.49572
 Alpha virt. eigenvalues --    0.02986   0.03898   0.06575   0.06575   0.08689
 Alpha virt. eigenvalues --    0.08689   0.10245   0.17195   0.24051   0.25293
 Alpha virt. eigenvalues --    0.28189   0.28189   0.45442   0.49996   0.49996

  Beta  occ. eigenvalues --  -10.55565 -10.42772  -0.85355  -0.57020  -0.52811
  Beta  occ. eigenvalues --   -0.49572  -0.49572
  Beta virt. eigenvalues --    0.02986   0.03898   0.06575   0.06575   0.08689
  Beta virt. eigenvalues --    0.08689   0.10245   0.17195   0.24051   0.25293
  Beta virt. eigenvalues --    0.28189   0.28189   0.45442   0.49996   0.49996

 Mulliken charges and spin densities:
               1          2
     1  C   -0.085225  -0.000000
     2  C   -0.085228   0.000000
     3  H    0.085227   0.000000
     4  H    0.085225   0.000000
 Sum of Mulliken charges =  -0.00000  -0.00000

 Dipole moment (field-independent basis, Debye):
    X=             -0.0000    Y=             -0.0000    Z=             -0.0000  Tot=              0.0000
 Quadrupole moment (field-independent basis, Debye-Ang):
   XX=             -8.2429   YY=            -11.1957   ZZ=            -11.1957
   XY=             -0.0000   XZ=             -0.0000   YZ=              0.0000

 Normal termination of Gaussian 16 at Tue Dec  3 19:51:55 2024.
