 Gaussian 16, Revision A.03,
 Gaussian 16:  ES64L-G16RevA.03 25-Dec-2016

 --------------------------------------------
 #p opt UM062X/6-311+G** nosymm int=superfine
 --------------------------------------------

 -------------------
 Title Card Required
 -------------------
 Symbolic Z-matrix:
 Charge =  0 Multiplicity = 1

 SCF Done:  E(UM062X) =  -79.7964328740     A.U. after    8 cycles
 SCF Done:  E(UM062X) =  -79.7966149932     A.U. after    7 cycles
 SCF Done:  E(UM062X) =  -79.7966204227     A.U. after    6 cycles
 Optimization completed.
    -- Stationary point found.

                          Input orientation:
 ---------------------------------------------------------------------
 Center     Atomic      Atomic             Coordinates (Angstroms)
 Number     Number       Type             X           Y           Z
 ---------------------------------------------------------------------
      1          6           0       -0.778818    0.000000    0.000000
      2          6           0        0.778898    0.000000    0.000000
      3          1           0        1.167242   -0.882581    0.510702
      4          1           0       -1.167156   -0.883579   -0.508977
      5          1           0        1.167236    0.883579    0.508976
      6          1           0        1.167216   -0.000992   -1.019699
      7          1           0       -1.167162    0.882581   -0.510702
      8          1           0       -1.167137    0.000992    1.019698
 ---------------------------------------------------------------------

 Alpha  occ. eigenvalues --  -10.52354 -10.52321  -0.84290  -0.70198  -0.50039
 Alpha  occ. eigenvalues --   -0.50039  -0.42031  -0.40610  -0.40610
 Alpha virt. eigenvalues --    0.02190   0.04066   0.05506   0.05506   0.08758
 Alpha virt. eigenvalues --    0.08758   0.08954   0.13891   0.18691   0.18691
 Alpha virt. eigenvalues --    0.21179   0.21179   0.24146   0.26645   0.28501

  Beta  occ. eigenvalues --  -10.52354 -10.52321  -0.84290  -0.70198  -0.50039
  Beta  occ. eigenvalues --   -0.50039  -0.42031  -0.40610  -0.40610
  Beta virt. eigenvalues --    0.02190   0.04066   0.05506   0.05506   0.08758
  Beta virt. eigenvalues --    0.08758   0.08954   0.13891   0.18691   0.18691
  Beta virt. eigenvalues --    0.21179   0.21179   0.24146   0.26645   0.28501

 Mulliken charges and spin densities:
               1          2
     1  C   -0.472449   0.000000
     2  C   -0.472449  -0.000000
     3  H    0.157483   0.000000
     4  H    0.157483  -0.000000
     5  H    0.157483   0.000000
     6  H    0.157483   0.000000
     7  H    0.157483  -0.000000
     8  H    0.157483  -0.000000
 Sum of Mulliken charges =  -0.00000  -0.00000

 Dipole moment (field-independent basis, Debye):
    X=             -0.0000    Y=             -0.0000    Z=             -0.0000  Tot=              0.0000
 Quadrupole moment (field-independent basis, Debye-Ang):
   XX=            -15.6294   YY=            -14.9651   ZZ=            -14.9651
   XY=             -0.0000   XZ=              0.0000   YZ=             -0.0000

 Normal termination of Gaussian 16 at Tue Nov 19 11:54:13 2024.
