 Gaussian 16, Revision A.03,
 Gaussian 16:  ES64L-G16RevA.03 25-Dec-2016

 --------------------------------------------
 #p opt UM062X/6-311+G** nosymm int=superfine
 --------------------------------------------

 -------------------
 Title Card Required
 -------------------
 Symbolic Z-matrix:
 Charge =  0 Multiplicity = 1

 SCF Done:  E(UM062X) =  -79.7846012972     A.U. after    8 cycles
 SCF Done:  E(UM062X) =  -79.7878988236     A.U. after    8 cycles
 SCF Done:  E(UM062X) =  -79.7879354461     A.U. after    7 cycles
 Optimization completed.
    -- Stationary point found.

                          Input orientation:
 ---------------------------------------------------------------------
 Center     Atomic      Atomic             Coordinates (Angstroms)
 Number     Number       Type             X           Y           Z
 ---------------------------------------------------------------------
      1          6           0       -0.702463    0.000000    0.000000
      2          6           0        0.702535    0.000000    0.000000
      3          1           0        1.125587   -0.873889    0.505692
      4          1           0       -1.125500   -0.874891   -0.503979
      5          1           0        1.125573    0.874891    0.503975
      6          1           0        1.125605   -0.000970   -1.009658
      7          1           0       -1.125515    0.873888   -0.505695
      8          1           0       -1.125534    0.000968    1.009657
 ---------------------------------------------------------------------

 Alpha  occ. eigenvalues --  -10.51379 -10.51312  -0.87444  -0.69318  -0.51281
 Alpha  occ. eigenvalues --   -0.51281  -0.45486  -0.38855  -0.38854
 Alpha virt. eigenvalues --    0.02154   0.04172   0.05332   0.05332   0.08813
 Alpha virt. eigenvalues --    0.08843   0.08843   0.14073   0.19027   0.19028
 Alpha virt. eigenvalues --    0.20589   0.20590   0.24104   0.27842   0.32962

  Beta  occ. eigenvalues --  -10.51379 -10.51312  -0.87444  -0.69318  -0.51281
  Beta  occ. eigenvalues --   -0.51281  -0.45486  -0.38855  -0.38854
  Beta virt. eigenvalues --    0.02154   0.04172   0.05332   0.05332   0.08813
  Beta virt. eigenvalues --    0.08843   0.08843   0.14073   0.19027   0.19028
  Beta virt. eigenvalues --    0.20589   0.20590   0.24104   0.27842   0.32962

 Mulliken charges and spin densities:
               1          2
     1  C   -0.457806   0.000000
     2  C   -0.457806  -0.000000
     3  H    0.152602  -0.000000
     4  H    0.152602  -0.000000
     5  H    0.152602  -0.000000
     6  H    0.152602  -0.000000
     7  H    0.152602   0.000000
     8  H    0.152602   0.000000
 Sum of Mulliken charges =  -0.00000   0.00000

 Dipole moment (field-independent basis, Debye):
    X=             -0.0000    Y=             -0.0000    Z=             -0.0000  Tot=              0.0000
 Quadrupole moment (field-independent basis, Debye-Ang):
   XX=            -15.6322   YY=            -14.9674   ZZ=            -14.9673
   XY=             -0.0000   XZ=             -0.0001   YZ=             -0.0001

 Normal termination of Gaussian 16 at Tue Nov 19 11:50:53 2024.
