 Gaussian 16, Revision A.03,
 Gaussian 16:  ES64L-G16RevA.03 25-Dec-2016

 --------------------------------------------
 #p opt UM062X/6-311+G** nosymm int=superfine
 --------------------------------------------

 -------------------
 Title Card Required
 -------------------
 Symbolic Z-matrix:
 Charge =  0 Multiplicity = 1

 SCF Done:  E(UM062X) =  -437.156501377     A.U. after   17 cycles
 SCF Done:  E(UM062X) =  -437.159360589     A.U. after   16 cycles
 SCF Done:  E(UM062X) =  -437.160303576     A.U. after   17 cycles
 SCF Done:  E(UM062X) =  -437.160304840     A.U. after   17 cycles
 Optimization completed.
    -- Stationary point found.

                          Input orientation:
 ---------------------------------------------------------------------
 Center     Atomic      Atomic             Coordinates (Angstroms)
 Number     Number       Type             X           Y           Z
 ---------------------------------------------------------------------
      1          6           0       -2.177140    0.000000    0.000000
      2         16           0        2.177140    0.000000    0.000000
      3          1           0       -2.867749   -0.865629    0.000024
      4          1           0       -2.868739    0.864836   -0.000100
 ---------------------------------------------------------------------

 Alpha  occ. eigenvalues --  -89.94643 -10.62136  -8.30694  -6.23486  -6.21896
 Alpha  occ. eigenvalues --   -6.21895  -0.76806  -0.74798  -0.48885  -0.32690
 Alpha  occ. eigenvalues --   -0.32105  -0.32099
 Alpha virt. eigenvalues --   -0.17107  -0.09329   0.01568   0.04529   0.05399
 Alpha virt. eigenvalues --    0.06359   0.07931   0.08466   0.08883   0.13842
 Alpha virt. eigenvalues --    0.17422   0.18801   0.35247   0.36567   0.36576

  Beta  occ. eigenvalues --  -89.94643 -10.62136  -8.30694  -6.23486  -6.21896
  Beta  occ. eigenvalues --   -6.21895  -0.76806  -0.74798  -0.48885  -0.32690
  Beta  occ. eigenvalues --   -0.32105  -0.32099
  Beta virt. eigenvalues --   -0.17107  -0.09329   0.01568   0.04529   0.05399
  Beta virt. eigenvalues --    0.06359   0.07931   0.08466   0.08883   0.13842
  Beta virt. eigenvalues --    0.17422   0.18801   0.35247   0.36567   0.36576

 Mulliken charges and spin densities:
               1          2
     1  C   -0.276910  -0.000000
     2  S    0.002027   0.000000
     3  H    0.137438  -0.000000
     4  H    0.137445   0.000000
 Sum of Mulliken charges =  -0.00000   0.00000

 Dipole moment (field-independent basis, Debye):
    X=             -2.4221    Y=             -0.0012    Z=             -0.0001  Tot=              2.4221
 Quadrupole moment (field-independent basis, Debye-Ang):
   XX=             -9.6930   YY=            -22.3816   ZZ=            -21.6928
   XY=              0.0005   XZ=             -0.0000   YZ=              0.0000

 Normal termination of Gaussian 16 at Mon Apr 21 19:46:22 2025.
