 Gaussian 16, Revision A.03,
 Gaussian 16:  ES64L-G16RevA.03 25-Dec-2016

 --------------------------------------------
 #p opt UM062X/6-311+G** nosymm int=superfine
 --------------------------------------------

 -------------------
 Title Card Required
 -------------------
 Symbolic Z-matrix:
 Charge =  1 Multiplicity = 2

 SCF Done:  E(UM062X) =  -580.860877713     A.U. after   15 cycles
 SCF Done:  E(UM062X) =  -580.868349684     A.U. after    9 cycles
 SCF Done:  E(UM062X) =  -580.870468078     A.U. after   12 cycles
 SCF Done:  E(UM062X) =  -580.870470931     A.U. after    6 cycles
 Optimization completed.
    -- Stationary point found.

                          Input orientation:
 ---------------------------------------------------------------------
 Center     Atomic      Atomic             Coordinates (Angstroms)
 Number     Number       Type             X           Y           Z
 ---------------------------------------------------------------------
      1         14           0       -2.441295    0.000000    0.000000
      2         14           0        2.441295    0.000000    0.000000
      3          1           0       -3.341025   -1.189812    0.000046
      4          1           0        3.341025    1.189812    0.001075
      5          1           0       -3.341040    1.189801   -0.000039
      6          1           0        3.341040   -1.189801   -0.001067
 ---------------------------------------------------------------------

 Alpha  occ. eigenvalues --  -67.23778 -67.23778  -5.78273  -5.78273  -4.09542
 Alpha  occ. eigenvalues --   -4.09542  -4.09222  -4.09222  -4.08879  -4.08879
 Alpha  occ. eigenvalues --   -0.77794  -0.77737  -0.59600  -0.59585  -0.48784
 Alpha  occ. eigenvalues --   -0.47514
 Alpha virt. eigenvalues --   -0.26606  -0.26224  -0.11965  -0.11944  -0.09207
 Alpha virt. eigenvalues --   -0.08488  -0.07746  -0.06868  -0.06708  -0.05929
 Alpha virt. eigenvalues --   -0.05537  -0.05478  -0.05343  -0.03404   0.13065

  Beta  occ. eigenvalues --  -67.23446 -67.23446  -5.78023  -5.78023  -4.09439
  Beta  occ. eigenvalues --   -4.09439  -4.08771  -4.08770  -4.08448  -4.08448
  Beta  occ. eigenvalues --   -0.75984  -0.75791  -0.58428  -0.58406  -0.42033
  Beta virt. eigenvalues --   -0.33348  -0.25430  -0.24935  -0.11294  -0.10782
  Beta virt. eigenvalues --   -0.09251  -0.07188  -0.06849  -0.06450  -0.06265
  Beta virt. eigenvalues --   -0.05955  -0.05239  -0.05210  -0.04719  -0.02983

 Mulliken charges and spin densities:
               1          2
     1  Si   0.564126   0.389610
     2  Si   0.564126   0.389610
     3  H   -0.032063   0.055195
     4  H   -0.032063   0.055195
     5  H   -0.032063   0.055195
     6  H   -0.032063   0.055195
 Sum of Mulliken charges =   1.00000   1.00000

 Dipole moment (field-independent basis, Debye):
    X=              0.0000    Y=              0.0000    Z=              0.0000  Tot=              0.0000
 Quadrupole moment (field-independent basis, Debye-Ang):
   XX=              8.6393   YY=            -25.9278   ZZ=            -20.8874
   XY=             -0.0000   XZ=              0.0000   YZ=             -0.0022

 Normal termination of Gaussian 16 at Mon Apr 21 20:23:10 2025.
