 Gaussian 16, Revision A.03,
 Gaussian 16:  ES64L-G16RevA.03 25-Dec-2016

 --------------------------------------------
 #p opt UM062X/6-311+G** nosymm int=superfine
 --------------------------------------------

 -------------------
 Title Card Required
 -------------------
 Symbolic Z-matrix:
 Charge =  0 Multiplicity = 1

 SCF Done:  E(UM062X) =  -111.609309296     A.U. after   17 cycles
 SCF Done:  E(UM062X) =  -111.612828185     A.U. after   17 cycles
 SCF Done:  E(UM062X) =  -111.614713977     A.U. after   19 cycles
 SCF Done:  E(UM062X) =  -111.616067409     A.U. after   18 cycles
 SCF Done:  E(UM062X) =  -111.617518412     A.U. after   17 cycles
 SCF Done:  E(UM062X) =  -111.618730587     A.U. after   15 cycles
 SCF Done:  E(UM062X) =  -111.619491649     A.U. after   16 cycles
 SCF Done:  E(UM062X) =  -111.619797597     A.U. after   15 cycles
 SCF Done:  E(UM062X) =  -111.620055350     A.U. after   17 cycles
 SCF Done:  E(UM062X) =  -111.620304705     A.U. after   17 cycles
 SCF Done:  E(UM062X) =  -111.620401998     A.U. after   14 cycles
 SCF Done:  E(UM062X) =  -111.620434205     A.U. after   14 cycles
 SCF Done:  E(UM062X) =  -111.620448268     A.U. after   12 cycles
 SCF Done:  E(UM062X) =  -111.620480452     A.U. after   14 cycles
 SCF Done:  E(UM062X) =  -111.620511684     A.U. after   13 cycles
 SCF Done:  E(UM062X) =  -111.620498511     A.U. after   16 cycles
 SCF Done:  E(UM062X) =  -111.620531944     A.U. after   14 cycles
 SCF Done:  E(UM062X) =  -111.620533452     A.U. after   14 cycles
 SCF Done:  E(UM062X) =  -111.620533511     A.U. after   11 cycles
 Optimization completed.
    -- Stationary point found.

                          Input orientation:
 ---------------------------------------------------------------------
 Center     Atomic      Atomic             Coordinates (Angstroms)
 Number     Number       Type             X           Y           Z
 ---------------------------------------------------------------------
      1          7           0       -2.036540    0.000000    0.000000
      2          7           0        2.036540    0.000000    0.000000
      3          1           0       -1.914997   -0.810533   -0.620023
      4          1           0        1.915340    0.401749   -0.938128
      5          1           0       -1.915174   -0.401781    0.938087
      6          1           0        1.915578    0.810682    0.619949
 ---------------------------------------------------------------------

 Alpha  occ. eigenvalues --  -14.80467 -14.80467  -0.95193  -0.95008  -0.55350
 Alpha  occ. eigenvalues --   -0.55268  -0.40744  -0.40612  -0.27848
 Alpha virt. eigenvalues --   -0.19272   0.04037   0.05897   0.08858   0.11585
 Alpha virt. eigenvalues --    0.12138   0.13122   0.15255   0.16508   0.17702
 Alpha virt. eigenvalues --    0.18521   0.22594   0.29386   0.50950   0.51813

  Beta  occ. eigenvalues --  -14.80467 -14.80467  -0.95193  -0.95008  -0.55350
  Beta  occ. eigenvalues --   -0.55268  -0.40744  -0.40612  -0.27848
  Beta virt. eigenvalues --   -0.19272   0.04037   0.05897   0.08858   0.11585
  Beta virt. eigenvalues --    0.12138   0.13122   0.15255   0.16508   0.17702
  Beta virt. eigenvalues --    0.18521   0.22594   0.29386   0.50950   0.51813

 Mulliken charges and spin densities:
               1          2
     1  N   -0.477112   0.000000
     2  N   -0.477198  -0.000000
     3  H    0.238575  -0.000000
     4  H    0.238579   0.000000
     5  H    0.238577  -0.000000
     6  H    0.238580   0.000000
 Sum of Mulliken charges =  -0.00000   0.00000

 Dipole moment (field-independent basis, Debye):
    X=              0.0009    Y=              0.0001    Z=             -0.0002  Tot=              0.0009
 Quadrupole moment (field-independent basis, Debye-Ang):
   XX=            -17.2304   YY=            -14.3807   ZZ=            -11.5381
   XY=              8.3854   XZ=             -2.2002   YZ=              0.8011

 Normal termination of Gaussian 16 at Thu May 15 15:18:24 2025.
