 Gaussian 16, Revision A.03,
 Gaussian 16:  ES64L-G16RevA.03 25-Dec-2016

 --------------------------------------------
 #p opt UM062X/6-311+G** nosymm int=superfine
 --------------------------------------------

 -------------------
 Title Card Required
 -------------------
 Symbolic Z-matrix:
 Charge =  0 Multiplicity = 1

 SCF Done:  E(UM062X) =  -474.476053145     A.U. after   16 cycles
 SCF Done:  E(UM062X) =  -474.479783332     A.U. after   14 cycles
 SCF Done:  E(UM062X) =  -474.480776681     A.U. after   16 cycles
 SCF Done:  E(UM062X) =  -474.480871277     A.U. after   14 cycles
 SCF Done:  E(UM062X) =  -474.480872734     A.U. after   12 cycles
 SCF Done:  E(UM062X) =  -474.480872878     A.U. after   10 cycles
 Optimization completed.
    -- Stationary point found.

                          Input orientation:
 ---------------------------------------------------------------------
 Center     Atomic      Atomic             Coordinates (Angstroms)
 Number     Number       Type             X           Y           Z
 ---------------------------------------------------------------------
      1          8           0       -1.189392    0.000000    0.000000
      2         16           0        1.189392    0.000000    0.000000
      3          1           0       -1.252934   -0.953089   -0.158956
      4          1           0        1.117749    0.329958    1.301313
 ---------------------------------------------------------------------

 Alpha  occ. eigenvalues --  -89.97141 -19.67329  -8.33168  -6.25386  -6.25019
 Alpha  occ. eigenvalues --   -6.24476  -1.09239  -0.82960  -0.53115  -0.49182
 Alpha  occ. eigenvalues --   -0.40657  -0.39774  -0.34615
 Alpha virt. eigenvalues --   -0.14062   0.01547   0.04119   0.04828   0.05744
 Alpha virt. eigenvalues --    0.07598   0.15284   0.19507   0.20003   0.21646
 Alpha virt. eigenvalues --    0.27122   0.31504   0.33971   0.35201   0.40482

  Beta  occ. eigenvalues --  -89.97141 -19.67329  -8.33168  -6.25386  -6.25019
  Beta  occ. eigenvalues --   -6.24476  -1.09239  -0.82960  -0.53115  -0.49182
  Beta  occ. eigenvalues --   -0.40657  -0.39774  -0.34615
  Beta virt. eigenvalues --   -0.14062   0.01547   0.04119   0.04828   0.05744
  Beta virt. eigenvalues --    0.07598   0.15284   0.19507   0.20003   0.21646
  Beta virt. eigenvalues --    0.27122   0.31504   0.33971   0.35201   0.40482

 Mulliken charges and spin densities:
               1          2
     1  O   -0.435774   0.000000
     2  S    0.076364  -0.000000
     3  H    0.251408  -0.000000
     4  H    0.108001  -0.000000
 Sum of Mulliken charges =  -0.00000  -0.00000

 Dipole moment (field-independent basis, Debye):
    X=              1.7024    Y=             -1.3573    Z=              0.8213  Tot=              2.3270
 Quadrupole moment (field-independent basis, Debye-Ang):
   XX=            -18.4389   YY=            -19.8082   ZZ=            -18.5779
   XY=              2.8269   XZ=              1.8995   YZ=              1.3970

 Normal termination of Gaussian 16 at Thu May 15 12:56:44 2025.
