 Gaussian 16, Revision A.03,
 Gaussian 16:  ES64L-G16RevA.03 25-Dec-2016

 --------------------------------------------
 #p opt UM062X/6-311+G** nosymm int=superfine
 --------------------------------------------

 -------------------
 Title Card Required
 -------------------
 Symbolic Z-matrix:
 Charge =  0 Multiplicity = 1

 SCF Done:  E(UM062X) =  -80.7633084534     A.U. after   10 cycles
 SCF Done:  E(UM062X) =  -80.7633153904     A.U. after    8 cycles
 SCF Done:  E(UM062X) =  -80.7633136673     A.U. after    7 cycles
 SCF Done:  E(UM062X) =  -80.7633156186     A.U. after    8 cycles
 Optimization completed.
    -- Stationary point found.

                          Input orientation:
 ---------------------------------------------------------------------
 Center     Atomic      Atomic             Coordinates (Angstroms)
 Number     Number       Type             X           Y           Z
 ---------------------------------------------------------------------
      1          5           0       -0.692066    0.000000    0.000000
      2          7           0        0.692066    0.000000    0.000000
      3          1           0       -1.858306   -0.000246    0.000000
      4          1           0        1.688860    0.000769    0.000000
 ---------------------------------------------------------------------

 Alpha  occ. eigenvalues --  -14.74153  -7.09831  -0.90332  -0.61051  -0.52747
 Alpha  occ. eigenvalues --   -0.34079  -0.34079
 Alpha virt. eigenvalues --    0.01290   0.01478   0.01478   0.02527   0.06750
 Alpha virt. eigenvalues --    0.06750   0.09867   0.13644   0.18480   0.18480
 Alpha virt. eigenvalues --    0.21475   0.25939   0.35397   0.42016   0.42016

  Beta  occ. eigenvalues --  -14.74153  -7.09831  -0.90332  -0.61051  -0.52747
  Beta  occ. eigenvalues --   -0.34079  -0.34079
  Beta virt. eigenvalues --    0.01290   0.01478   0.01478   0.02527   0.06750
  Beta virt. eigenvalues --    0.06750   0.09867   0.13644   0.18480   0.18480
  Beta virt. eigenvalues --    0.21475   0.25939   0.35397   0.42016   0.42016

 Mulliken charges and spin densities:
               1          2
     1  B    0.224096  -0.000000
     2  N   -0.554238   0.000000
     3  H    0.044547   0.000000
     4  H    0.285594  -0.000000
 Sum of Mulliken charges =   0.00000  -0.00000

 Dipole moment (field-independent basis, Debye):
    X=             -0.7112    Y=              0.0012    Z=              0.0000  Tot=              0.7112
 Quadrupole moment (field-independent basis, Debye-Ang):
   XX=             -7.4982   YY=            -13.8087   ZZ=            -13.8087
   XY=              0.0029   XZ=             -0.0000   YZ=              0.0000

 Normal termination of Gaussian 16 at Mon Apr 21 18:00:46 2025.
