 Gaussian 16, Revision A.03,
 Gaussian 16:  ES64L-G16RevA.03 25-Dec-2016

 --------------------------------------------
 #p opt UM062X/6-311+G** nosymm int=superfine
 --------------------------------------------

 -------------------
 Title Card Required
 -------------------
 Symbolic Z-matrix:
 Charge =  0 Multiplicity = 1

 SCF Done:  E(UM062X) =  -94.5555826084     A.U. after   11 cycles
 SCF Done:  E(UM062X) =  -94.5581985009     A.U. after   10 cycles
 SCF Done:  E(UM062X) =  -94.5582698361     A.U. after   10 cycles
 SCF Done:  E(UM062X) =  -94.5466849344     A.U. after   12 cycles
 SCF Done:  E(UM062X) =  -94.5578290785     A.U. after   10 cycles
 SCF Done:  E(UM062X) =  -94.5582957402     A.U. after    7 cycles
 SCF Done:  E(UM062X) =  -94.5583598265     A.U. after   10 cycles
 SCF Done:  E(UM062X) =  -94.5583610792     A.U. after    8 cycles
 Optimization completed.
    -- Stationary point found.

                          Input orientation:
 ---------------------------------------------------------------------
 Center     Atomic      Atomic             Coordinates (Angstroms)
 Number     Number       Type             X           Y           Z
 ---------------------------------------------------------------------
      1          6           0       -0.756637    0.000000    0.000000
      2          7           0        0.756637    0.000000    0.000000
      3          1           0       -1.323067   -0.924276   -0.009643
      4          1           0        0.987008   -0.999661   -0.010408
      5          1           0       -1.226230    0.973774    0.010339
 ---------------------------------------------------------------------

 Alpha  occ. eigenvalues --  -14.78293 -10.62332  -0.94953  -0.73456  -0.55582
 Alpha  occ. eigenvalues --   -0.48232  -0.37133  -0.35372
 Alpha virt. eigenvalues --   -0.03800   0.01870   0.03465   0.04952   0.07502
 Alpha virt. eigenvalues --    0.12654   0.15843   0.16219   0.17905   0.21127
 Alpha virt. eigenvalues --    0.23324   0.25218   0.27229   0.44912   0.46983

  Beta  occ. eigenvalues --  -14.78293 -10.62332  -0.94953  -0.73456  -0.55582
  Beta  occ. eigenvalues --   -0.48232  -0.37133  -0.35372
  Beta virt. eigenvalues --   -0.03800   0.01870   0.03465   0.04952   0.07502
  Beta virt. eigenvalues --    0.12654   0.15843   0.16219   0.17905   0.21127
  Beta virt. eigenvalues --    0.23324   0.25218   0.27229   0.44912   0.46983

 Mulliken charges and spin densities:
               1          2
     1  C   -0.264359   0.000000
     2  N   -0.276201  -0.000000
     3  H    0.164642   0.000000
     4  H    0.195441  -0.000000
     5  H    0.180476   0.000000
 Sum of Mulliken charges =  -0.00000   0.00000

 Dipole moment (field-independent basis, Debye):
    X=             -2.0968    Y=             -1.4923    Z=             -0.0154  Tot=              2.5737
 Quadrupole moment (field-independent basis, Debye-Ang):
   XX=            -12.7330   YY=            -11.4090   ZZ=            -14.6403
   XY=             -1.9368   XZ=             -0.0204   YZ=              0.0339

 Normal termination of Gaussian 16 at Mon Apr 21 18:19:19 2025.
