 Gaussian 16, Revision A.03,
 Gaussian 16:  ES64L-G16RevA.03 25-Dec-2016

 ---------------------------------------
 #p UM062X/6-311+G** force int=superfine
 ---------------------------------------

 -------------------
 Title Card Required
 -------------------
 Symbolic Z-matrix:
 Charge =  1 Multiplicity = 2

                         Standard orientation:
 ---------------------------------------------------------------------
 Center     Atomic      Atomic             Coordinates (Angstroms)
 Number     Number       Type             X           Y           Z
 ---------------------------------------------------------------------
      1          6           0        0.106056    0.314320   -1.032279
      2          6           0       -0.106064   -0.314311    1.032280
      3          1           0       -0.913627   -1.016871    0.855126
      4          1           0        0.342769   -0.668468   -1.426281
      5          1           0       -0.342649    0.668390    1.426578
      6          1           0        0.904856   -0.693283    1.139822
      7          1           0        0.913555    1.016952   -0.855124
      8          1           0       -0.904854    0.693227   -1.140131
 ---------------------------------------------------------------------

 SCF Done:  E(UM062X) =  -79.3667588111     A.U. after    9 cycles

 The electronic state is 2-A.
 Alpha  occ. eigenvalues --  -10.85994 -10.85986  -1.09114  -1.01885  -0.77945
 Alpha  occ. eigenvalues --   -0.77944  -0.73982  -0.73981  -0.61095
 Alpha virt. eigenvalues --   -0.26795  -0.16168  -0.10998  -0.10998  -0.09915
 Alpha virt. eigenvalues --   -0.06988  -0.06330  -0.06330  -0.05093  -0.05091
 Alpha virt. eigenvalues --   -0.02248   0.01668   0.01671   0.04674   0.07324

  Beta  occ. eigenvalues --  -10.85782 -10.85781  -1.05734  -0.99084  -0.77041
  Beta  occ. eigenvalues --   -0.77041  -0.73244  -0.73243
  Beta virt. eigenvalues --   -0.38081  -0.19262  -0.15960  -0.11092  -0.11092
  Beta virt. eigenvalues --   -0.08737  -0.07122  -0.06608  -0.06608  -0.04706
  Beta virt. eigenvalues --   -0.04704  -0.01413   0.02253   0.02255   0.05132

 Mulliken charges and spin densities:
               1          2
     1  C   -0.310557   0.558041
     2  C   -0.310557   0.558041
     3  H    0.270198  -0.019359
     4  H    0.270175  -0.019336
     5  H    0.270188  -0.019342
     6  H    0.270171  -0.019340
     7  H    0.270199  -0.019360
     8  H    0.270183  -0.019345
 Sum of Mulliken charges =   1.00000   1.00000

 Dipole moment (field-independent basis, Debye):
    X=              0.0000    Y=             -0.0000    Z=             -0.0000  Tot=              0.0000
 Quadrupole moment (field-independent basis, Debye-Ang):
   XX=            -10.7719   YY=            -10.3906   ZZ=             -6.1819
   XY=              0.1454   XZ=             -0.4772   YZ=             -1.4130

 Normal termination of Gaussian 16 at Wed Nov 13 13:44:35 2024.
