 Gaussian 16, Revision A.03,
 Gaussian 16:  ES64L-G16RevA.03 25-Dec-2016

 --------------------------------------------
 #p opt UM062X/6-311+G** nosymm int=superfine
 --------------------------------------------

 -------------------
 Title Card Required
 -------------------
 Symbolic Z-matrix:
 Charge =  0 Multiplicity = 1

 SCF Done:  E(UM062X) =  -76.9043270722     A.U. after   14 cycles
 SCF Done:  E(UM062X) =  -76.9054786108     A.U. after   13 cycles
 SCF Done:  E(UM062X) =  -76.9066748007     A.U. after   15 cycles
 SCF Done:  E(UM062X) =  -76.9068227472     A.U. after   15 cycles
 SCF Done:  E(UM062X) =  -76.9068700957     A.U. after   13 cycles
 SCF Done:  E(UM062X) =  -76.9068827052     A.U. after   13 cycles
 SCF Done:  E(UM062X) =  -76.9068854814     A.U. after   11 cycles
 SCF Done:  E(UM062X) =  -76.9068878777     A.U. after   13 cycles
 SCF Done:  E(UM062X) =  -76.9068894947     A.U. after   12 cycles
 SCF Done:  E(UM062X) =  -76.9068895740     A.U. after   16 cycles
 Optimization completed.
    -- Stationary point found.

                          Input orientation:
 ---------------------------------------------------------------------
 Center     Atomic      Atomic             Coordinates (Angstroms)
 Number     Number       Type             X           Y           Z
 ---------------------------------------------------------------------
      1          6           0       -1.557625    0.000000    0.000000
      2          6           0        1.557625    0.000000    0.000000
      3          1           0       -1.434368   -0.646801    0.902155
      4          1           0        1.434484    0.648376   -0.901042
 ---------------------------------------------------------------------

 Alpha  occ. eigenvalues --  -10.67330 -10.67327  -0.73038  -0.71648  -0.39022
 Alpha  occ. eigenvalues --   -0.38432  -0.25524
 Alpha virt. eigenvalues --   -0.10590  -0.09948  -0.08723   0.03406   0.04904
 Alpha virt. eigenvalues --    0.07295   0.07460   0.09509   0.09999   0.10789
 Alpha virt. eigenvalues --    0.14456   0.17757   0.20228   0.44405   0.45222

  Beta  occ. eigenvalues --  -10.67330 -10.67327  -0.73038  -0.71648  -0.39022
  Beta  occ. eigenvalues --   -0.38432  -0.25524
  Beta virt. eigenvalues --   -0.10590  -0.09948  -0.08723   0.03406   0.04904
  Beta virt. eigenvalues --    0.07295   0.07460   0.09509   0.09999   0.10789
  Beta virt. eigenvalues --    0.14456   0.17757   0.20228   0.44405   0.45222

 Mulliken charges and spin densities:
               1          2
     1  C   -0.147500  -0.000000
     2  C   -0.147517   0.000000
     3  H    0.147510   0.000000
     4  H    0.147507  -0.000000
 Sum of Mulliken charges =  -0.00000  -0.00000

 Dipole moment (field-independent basis, Debye):
    X=              0.0001    Y=              0.0023    Z=              0.0017  Tot=              0.0029
 Quadrupole moment (field-independent basis, Debye-Ang):
   XX=            -16.9891   YY=            -12.7731   ZZ=            -13.6287
   XY=              3.0711   XZ=             -4.2754   YZ=              1.2695

 Normal termination of Gaussian 16 at Tue Dec  3 23:02:42 2024.
