 Gaussian 16, Revision A.03,
 Gaussian 16:  ES64L-G16RevA.03 25-Dec-2016

 --------------------------------------------
 #p opt UM062X/6-311+G** nosymm int=superfine
 --------------------------------------------

 -------------------
 Title Card Required
 -------------------
 Symbolic Z-matrix:
 Charge =  1 Multiplicity = 2

 SCF Done:  E(UM062X) =  -77.8996840564     A.U. after   10 cycles
 SCF Done:  E(UM062X) =  -77.9468112161     A.U. after   10 cycles
 SCF Done:  E(UM062X) =  -78.0027790339     A.U. after   10 cycles
 SCF Done:  E(UM062X) =  -78.0158110342     A.U. after    9 cycles
 SCF Done:  E(UM062X) =  -78.0178200001     A.U. after    9 cycles
 SCF Done:  E(UM062X) =  -78.0178203135     A.U. after    7 cycles
 Optimization completed.
    -- Stationary point found.

                          Input orientation:
 ---------------------------------------------------------------------
 Center     Atomic      Atomic             Coordinates (Angstroms)
 Number     Number       Type             X           Y           Z
 ---------------------------------------------------------------------
      1          6           0       -1.109820    0.000000    0.000000
      2          6           0        1.109820    0.000000    0.000000
      3          1           0       -1.547834   -0.992605    0.000000
      4          1           0       -1.547798    0.992784    0.000000
      5          1           0        1.547834    0.992605    0.000000
      6          1           0        1.547797   -0.992784    0.000000
 ---------------------------------------------------------------------

 Alpha  occ. eigenvalues --  -10.92372 -10.92361  -1.05251  -1.00471  -0.80257
 Alpha  occ. eigenvalues --   -0.78094  -0.64093  -0.54577
 Alpha virt. eigenvalues --   -0.37565  -0.28408  -0.13916  -0.10926  -0.10349
 Alpha virt. eigenvalues --   -0.08165  -0.07532  -0.07025  -0.04744  -0.03875
 Alpha virt. eigenvalues --   -0.03354   0.00052   0.01912   0.09251   0.17936

  Beta  occ. eigenvalues --  -10.92129 -10.92122  -1.02296  -0.98171  -0.79786
  Beta  occ. eigenvalues --   -0.77733  -0.62435
  Beta virt. eigenvalues --   -0.34307  -0.28485  -0.26166  -0.15127  -0.11198
  Beta virt. eigenvalues --   -0.10491  -0.07540  -0.07383  -0.07312  -0.04023
  Beta virt. eigenvalues --   -0.03821  -0.02846   0.00578   0.00975   0.10103

 Mulliken charges and spin densities:
               1          2
     1  C   -0.068033   0.541688
     2  C   -0.068033   0.541689
     3  H    0.284007  -0.020843
     4  H    0.284026  -0.020845
     5  H    0.284007  -0.020843
     6  H    0.284026  -0.020845
 Sum of Mulliken charges =   1.00000   1.00000

 Dipole moment (field-independent basis, Debye):
    X=             -0.0000    Y=             -0.0000    Z=              0.0000  Tot=              0.0000
 Quadrupole moment (field-independent basis, Debye-Ang):
   XX=             -0.6574   YY=             -8.0335   ZZ=            -12.6924
   XY=             -0.0005   XZ=             -0.0000   YZ=             -0.0000

 Normal termination of Gaussian 16 at Tue Nov 19 11:30:41 2024.
