 Gaussian 16, Revision A.03,
 Gaussian 16:  ES64L-G16RevA.03 25-Dec-2016

 --------------------------------------------
 #p opt UM062X/6-311+G** nosymm int=superfine
 --------------------------------------------

 -------------------
 Title Card Required
 -------------------
 Symbolic Z-matrix:
 Charge =  0 Multiplicity = 1

 SCF Done:  E(UM062X) =  -76.8483835023     A.U. after   16 cycles
 SCF Done:  E(UM062X) =  -76.8486016474     A.U. after   15 cycles
 SCF Done:  E(UM062X) =  -76.8492187576     A.U. after   23 cycles
 SCF Done:  E(UM062X) =  -76.8498521160     A.U. after   17 cycles
 SCF Done:  E(UM062X) =  -76.8498964603     A.U. after   30 cycles
 SCF Done:  E(UM062X) =  -76.8499098937     A.U. after   15 cycles
 SCF Done:  E(UM062X) =  -76.8499102005     A.U. after   16 cycles
 SCF Done:  E(UM062X) =  -76.8499103350     A.U. after   14 cycles
 SCF Done:  E(UM062X) =  -76.8499103673     A.U. after   19 cycles
 Optimization completed.
    -- Stationary point found.

                          Input orientation:
 ---------------------------------------------------------------------
 Center     Atomic      Atomic             Coordinates (Angstroms)
 Number     Number       Type             X           Y           Z
 ---------------------------------------------------------------------
      1          6           0       -2.257625    0.000000    0.000000
      2          6           0        2.257625    0.000000    0.000000
      3          1           0       -2.050409   -0.654746    0.883589
      4          1           0        2.050579    0.654746   -0.883630
 ---------------------------------------------------------------------

 Alpha  occ. eigenvalues --  -10.67543 -10.67542  -0.72992  -0.72813  -0.39163
 Alpha  occ. eigenvalues --   -0.39107  -0.22345
 Alpha virt. eigenvalues --   -0.14498  -0.10251  -0.09922   0.02972   0.04306
 Alpha virt. eigenvalues --    0.07163   0.07238   0.09008   0.09419   0.10138
 Alpha virt. eigenvalues --    0.13616   0.17820   0.19012   0.45229   0.46314

  Beta  occ. eigenvalues --  -10.67543 -10.67542  -0.72992  -0.72813  -0.39163
  Beta  occ. eigenvalues --   -0.39107  -0.22345
  Beta virt. eigenvalues --   -0.14498  -0.10251  -0.09922   0.02972   0.04306
  Beta virt. eigenvalues --    0.07163   0.07238   0.09008   0.09419   0.10138
  Beta virt. eigenvalues --    0.13616   0.17820   0.19012   0.45229   0.46314

 Mulliken charges and spin densities:
               1          2
     1  C   -0.138341   0.000000
     2  C   -0.138355  -0.000000
     3  H    0.138348  -0.000000
     4  H    0.138347   0.000000
 Sum of Mulliken charges =   0.00000  -0.00000

 Dipole moment (field-independent basis, Debye):
    X=              0.0002    Y=             -0.0000    Z=             -0.0000  Tot=              0.0002
 Quadrupole moment (field-independent basis, Debye-Ang):
   XX=            -17.8934   YY=            -13.0613   ZZ=            -13.8692
   XY=              4.3089   XZ=             -5.8159   YZ=              1.3279

 Normal termination of Gaussian 16 at Wed Dec  4 00:46:10 2024.
