 Gaussian 16, Revision A.03,
 Gaussian 16:  ES64L-G16RevA.03 25-Dec-2016

 --------------------------------------------
 #p opt UM062X/6-311+G** nosymm int=superfine
 --------------------------------------------

 -------------------
 Title Card Required
 -------------------
 Symbolic Z-matrix:
 Charge = -1 Multiplicity = 2

 SCF Done:  E(UM062X) =  -51.9489811583     A.U. after   11 cycles
 SCF Done:  E(UM062X) =  -51.9512678012     A.U. after    9 cycles
 SCF Done:  E(UM062X) =  -51.9521126084     A.U. after   10 cycles
 SCF Done:  E(UM062X) =  -51.9521182353     A.U. after   10 cycles
 SCF Done:  E(UM062X) =  -51.9520584129     A.U. after   12 cycles
 SCF Done:  E(UM062X) =  -51.9521175217     A.U. after   12 cycles
 SCF Done:  E(UM062X) =  -51.9521183363     A.U. after    9 cycles
 SCF Done:  E(UM062X) =  -51.9521188479     A.U. after   10 cycles
 Optimization completed.
    -- Stationary point found.

                          Input orientation:
 ---------------------------------------------------------------------
 Center     Atomic      Atomic             Coordinates (Angstroms)
 Number     Number       Type             X           Y           Z
 ---------------------------------------------------------------------
      1          5           0       -1.222274    0.000000    0.000000
      2          5           0        1.222274    0.000000    0.000000
      3          1           0       -1.801226   -1.049709    0.000101
      4          1           0        1.801226    1.049709   -0.000401
      5          1           0       -1.801226    1.049709   -0.000085
      6          1           0        1.801226   -1.049709    0.000417
 ---------------------------------------------------------------------

 Alpha  occ. eigenvalues --   -6.85652  -6.85644  -0.37044  -0.34305  -0.21623
 Alpha  occ. eigenvalues --   -0.20042  -0.06427   0.01069
 Alpha virt. eigenvalues --    0.15326   0.15651   0.16816   0.19271   0.19278
 Alpha virt. eigenvalues --    0.22465   0.22708   0.24681   0.26263   0.27709
 Alpha virt. eigenvalues --    0.33254   0.35058   0.36597   0.42673   0.50420

  Beta  occ. eigenvalues --   -6.85624  -6.85619  -0.35341  -0.33081  -0.21429
  Beta  occ. eigenvalues --   -0.19992  -0.05371
  Beta virt. eigenvalues --    0.11082   0.13948   0.14808   0.15227   0.16506
  Beta virt. eigenvalues --    0.18077   0.18831   0.20504   0.22656   0.26511
  Beta virt. eigenvalues --    0.29792   0.32305   0.35150   0.35420   0.42549

 Mulliken charges and spin densities:
               1          2
     1  B   -0.397742   0.544949
     2  B   -0.397742   0.544949
     3  H   -0.051129  -0.022475
     4  H   -0.051129  -0.022475
     5  H   -0.051129  -0.022475
     6  H   -0.051129  -0.022475
 Sum of Mulliken charges =  -1.00000   1.00000

 Dipole moment (field-independent basis, Debye):
    X=              0.0000    Y=              0.0000    Z=              0.0000  Tot=              0.0000
 Quadrupole moment (field-independent basis, Debye-Ang):
   XX=            -30.8132   YY=            -23.3637   ZZ=            -24.7524
   XY=             -0.0000   XZ=             -0.0000   YZ=             -0.0003

 Normal termination of Gaussian 16 at Mon Apr 21 17:22:36 2025.
