 Gaussian 16, Revision A.03,
 Gaussian 16:  ES64L-G16RevA.03 25-Dec-2016

 --------------------------------------------
 #p opt UM062X/6-311+G** nosymm int=superfine
 --------------------------------------------

 -------------------
 Title Card Required
 -------------------
 Symbolic Z-matrix:
 Charge =  1 Multiplicity = 2

 SCF Done:  E(UM062X) =  -79.3149586115     A.U. after   10 cycles
 SCF Done:  E(UM062X) =  -79.3163721345     A.U. after    9 cycles
 SCF Done:  E(UM062X) =  -79.3163864845     A.U. after    9 cycles
 Optimization completed.
    -- Stationary point found.

                          Input orientation:
 ---------------------------------------------------------------------
 Center     Atomic      Atomic             Coordinates (Angstroms)
 Number     Number       Type             X           Y           Z
 ---------------------------------------------------------------------
      1          6           0       -2.054408    0.000000    0.000000
      2          6           0        2.054408    0.000000    0.000000
      3          1           0        2.079454   -0.937492    0.542604
      4          1           0       -2.077619   -0.938588   -0.540782
      5          1           0        2.078663    0.938682    0.540575
      6          1           0        2.077637   -0.001170   -1.083232
      7          1           0       -2.079510    0.937598   -0.542417
      8          1           0       -2.078626    0.000948    1.083211
 ---------------------------------------------------------------------

 Alpha  occ. eigenvalues --  -10.83282 -10.83281  -1.01867  -1.01593  -0.72945
 Alpha  occ. eigenvalues --   -0.72944  -0.72861  -0.72860  -0.46917
 Alpha virt. eigenvalues --   -0.37730  -0.12586  -0.10117  -0.09275  -0.09275
 Alpha virt. eigenvalues --   -0.06207  -0.06207  -0.04396  -0.02792   0.00191
 Alpha virt. eigenvalues --    0.00193   0.01426   0.01428   0.02505   0.08903

  Beta  occ. eigenvalues --  -10.83059 -10.83059  -0.99209  -0.99050  -0.72415
  Beta  occ. eigenvalues --   -0.72415  -0.72317  -0.72316
  Beta virt. eigenvalues --   -0.32287  -0.26668  -0.16903  -0.10683  -0.10682
  Beta virt. eigenvalues --   -0.10235  -0.06180  -0.06180  -0.05465  -0.01831
  Beta virt. eigenvalues --    0.00013   0.00016   0.01680   0.01682   0.02305

 Mulliken charges and spin densities:
               1          2
     1  C   -0.245001   0.557390
     2  C   -0.245000   0.557390
     3  H    0.248350  -0.019131
     4  H    0.248313  -0.019131
     5  H    0.248333  -0.019134
     6  H    0.248317  -0.019126
     7  H    0.248351  -0.019131
     8  H    0.248336  -0.019128
 Sum of Mulliken charges =   1.00000   1.00000

 Dipole moment (field-independent basis, Debye):
    X=              0.0000    Y=             -0.0000    Z=             -0.0001  Tot=              0.0001
 Quadrupole moment (field-independent basis, Debye-Ang):
   XX=              8.7808   YY=            -11.1185   ZZ=            -11.1186
   XY=             -0.0020   XZ=              0.0011   YZ=              0.0000

 Normal termination of Gaussian 16 at Sat Nov 16 16:08:31 2024.
