 Gaussian 16, Revision A.03,
 Gaussian 16:  ES64L-G16RevA.03 25-Dec-2016

 --------------------------------------------
 #p opt UM062X/6-311+G** nosymm int=superfine
 --------------------------------------------

 -------------------
 Title Card Required
 -------------------
 Symbolic Z-matrix:
 Charge =  0 Multiplicity = 1

 SCF Done:  E(UM062X) =  -684.948475259     A.U. after   11 cycles
 SCF Done:  E(UM062X) =  -684.949953448     A.U. after   11 cycles
 SCF Done:  E(UM062X) =  -684.951047216     A.U. after   11 cycles
 SCF Done:  E(UM062X) =  -684.951252242     A.U. after   10 cycles
 SCF Done:  E(UM062X) =  -684.951308199     A.U. after   10 cycles
 SCF Done:  E(UM062X) =  -684.951335547     A.U. after   10 cycles
 SCF Done:  E(UM062X) =  -684.951361631     A.U. after   12 cycles
 SCF Done:  E(UM062X) =  -684.951390322     A.U. after   10 cycles
 SCF Done:  E(UM062X) =  -684.951413083     A.U. after   13 cycles
 SCF Done:  E(UM062X) =  -684.951460040     A.U. after   11 cycles
 SCF Done:  E(UM062X) =  -684.951560689     A.U. after   13 cycles
 SCF Done:  E(UM062X) =  -684.951561233     A.U. after    9 cycles
 SCF Done:  E(UM062X) =  -684.951561340     A.U. after    8 cycles
 SCF Done:  E(UM062X) =  -684.951561425     A.U. after    8 cycles
 SCF Done:  E(UM062X) =  -684.951561458     A.U. after    7 cycles
 SCF Done:  E(UM062X) =  -684.951561468     A.U. after   10 cycles
 SCF Done:  E(UM062X) =  -684.951561483     A.U. after    8 cycles
 SCF Done:  E(UM062X) =  -684.951561502     A.U. after    8 cycles
 SCF Done:  E(UM062X) =  -684.951561517     A.U. after    8 cycles
 SCF Done:  E(UM062X) =  -684.951561527     A.U. after   10 cycles
 Optimization completed.
    -- Stationary point found.

                          Input orientation:
 ---------------------------------------------------------------------
 Center     Atomic      Atomic             Coordinates (Angstroms)
 Number     Number       Type             X           Y           Z
 ---------------------------------------------------------------------
      1         15           0       -1.867217    0.000000    0.000000
      2         15           0        1.867217    0.000000    0.000000
      3          1           0        1.798504   -0.913501    1.083354
      4          1           0       -1.805816    0.986495    1.017809
      5          1           0        1.801054   -1.049676   -0.952075
      6          1           0       -1.804973    0.981635   -1.022338
 ---------------------------------------------------------------------

 Alpha  occ. eigenvalues --  -78.04994 -78.04991  -6.87347  -6.87344  -4.98899
 Alpha  occ. eigenvalues --   -4.98897  -4.98776  -4.98774  -4.98592  -4.98590
 Alpha  occ. eigenvalues --   -0.71334  -0.70447  -0.45099  -0.44676  -0.36263
 Alpha  occ. eigenvalues --   -0.35870  -0.26241
 Alpha virt. eigenvalues --   -0.12825   0.01658   0.02931   0.03257   0.04082
 Alpha virt. eigenvalues --    0.04807   0.05806   0.06081   0.06116   0.06494
 Alpha virt. eigenvalues --    0.08272   0.15229   0.18664   0.28203   0.28616

  Beta  occ. eigenvalues --  -78.04994 -78.04991  -6.87347  -6.87344  -4.98899
  Beta  occ. eigenvalues --   -4.98897  -4.98776  -4.98774  -4.98592  -4.98590
  Beta  occ. eigenvalues --   -0.71334  -0.70447  -0.45099  -0.44676  -0.36263
  Beta  occ. eigenvalues --   -0.35870  -0.26241
  Beta virt. eigenvalues --   -0.12825   0.01658   0.02931   0.03257   0.04082
  Beta virt. eigenvalues --    0.04807   0.05806   0.06081   0.06116   0.06494
  Beta virt. eigenvalues --    0.08272   0.15229   0.18664   0.28203   0.28616

 Mulliken charges and spin densities:
               1          2
     1  P   -0.023473  -0.000000
     2  P   -0.022636   0.000000
     3  H    0.011299  -0.000000
     4  H    0.011224   0.000000
     5  H    0.011801  -0.000000
     6  H    0.011786   0.000000
 Sum of Mulliken charges =  -0.00000  -0.00000

 Dipole moment (field-independent basis, Debye):
    X=             -0.0016    Y=              0.0003    Z=              0.0555  Tot=              0.0556
 Quadrupole moment (field-independent basis, Debye-Ang):
   XX=            -28.7858   YY=            -31.2240   ZZ=            -28.4854
   XY=             -3.9876   XZ=              0.1352   YZ=              0.0943

 Normal termination of Gaussian 16 at Mon Apr 21 20:55:27 2025.
