 Gaussian 16, Revision A.03,
 Gaussian 16:  ES64L-G16RevA.03 25-Dec-2016

 --------------------------------------------
 #p opt UM062X/6-311+G** nosymm int=superfine
 --------------------------------------------

 -------------------
 Title Card Required
 -------------------
 Symbolic Z-matrix:
 Charge =  0 Multiplicity = 1

 SCF Done:  E(UM062X) =  -83.1355476001     A.U. after   10 cycles
 SCF Done:  E(UM062X) =  -83.1486979097     A.U. after    9 cycles
 SCF Done:  E(UM062X) =  -83.1506865015     A.U. after    8 cycles
 SCF Done:  E(UM062X) =  -83.1506933388     A.U. after    7 cycles
 Optimization completed.
    -- Stationary point found.

                          Input orientation:
 ---------------------------------------------------------------------
 Center     Atomic      Atomic             Coordinates (Angstroms)
 Number     Number       Type             X           Y           Z
 ---------------------------------------------------------------------
      1          5           0       -1.427429    0.000000    0.000000
      2          7           0        1.427429    0.000000    0.000000
      3          1           0        1.785397   -0.947570    0.000001
      4          1           0       -1.469887   -0.594221    1.029187
      5          1           0        1.785277    0.473843   -0.820643
      6          1           0        1.785264    0.473841    0.820649
      7          1           0       -1.469888    1.188410    0.000014
      8          1           0       -1.469899   -0.594199   -1.029199
 ---------------------------------------------------------------------

 Alpha  occ. eigenvalues --  -14.74483  -7.02942  -0.97428  -0.56226  -0.55319
 Alpha  occ. eigenvalues --   -0.55319  -0.38609  -0.38608  -0.35827
 Alpha virt. eigenvalues --   -0.00504   0.02114   0.04828   0.04828   0.06497
 Alpha virt. eigenvalues --    0.08602   0.11012   0.11012   0.17197   0.17197
 Alpha virt. eigenvalues --    0.18176   0.20119   0.20119   0.23133   0.29364

  Beta  occ. eigenvalues --  -14.74483  -7.02942  -0.97428  -0.56226  -0.55319
  Beta  occ. eigenvalues --   -0.55319  -0.38609  -0.38608  -0.35827
  Beta virt. eigenvalues --   -0.00504   0.02114   0.04828   0.04828   0.06497
  Beta virt. eigenvalues --    0.08602   0.11012   0.11012   0.17197   0.17197
  Beta virt. eigenvalues --    0.18176   0.20119   0.20119   0.23133   0.29364

 Mulliken charges and spin densities:
               1          2
     1  B    0.016954   0.000000
     2  N   -0.751816  -0.000000
     3  H    0.258300   0.000000
     4  H   -0.013346  -0.000000
     5  H    0.258301   0.000000
     6  H    0.258302  -0.000000
     7  H   -0.013350  -0.000000
     8  H   -0.013345   0.000000
 Sum of Mulliken charges =  -0.00000  -0.00000

 Dipole moment (field-independent basis, Debye):
    X=              2.5244    Y=              0.0002    Z=              0.0000  Tot=              2.5244
 Quadrupole moment (field-independent basis, Debye-Ang):
   XX=            -12.2088   YY=            -15.7732   ZZ=            -15.7733
   XY=              0.0000   XZ=             -0.0000   YZ=              0.0000

 Normal termination of Gaussian 16 at Mon Apr 21 17:33:24 2025.
