 Gaussian 16, Revision A.03,
 Gaussian 16:  ES64L-G16RevA.03 25-Dec-2016

 --------------------------------------------
 #p opt UM062X/6-311+G** nosymm int=superfine
 --------------------------------------------

 -------------------
 Title Card Required
 -------------------
 Symbolic Z-matrix:
 Charge =  0 Multiplicity = 1

 SCF Done:  E(UM062X) =  -380.933471413     A.U. after   19 cycles
 SCF Done:  E(UM062X) =  -380.935985323     A.U. after   16 cycles
 SCF Done:  E(UM062X) =  -380.936944114     A.U. after   17 cycles
 SCF Done:  E(UM062X) =  -380.937025606     A.U. after   14 cycles
 SCF Done:  E(UM062X) =  -380.937165288     A.U. after   23 cycles
 SCF Done:  E(UM062X) =  -380.937252614     A.U. after   18 cycles
 SCF Done:  E(UM062X) =  -380.937329683     A.U. after   20 cycles
 SCF Done:  E(UM062X) =  -380.937331903     A.U. after   13 cycles
 SCF Done:  E(UM062X) =  -380.937333150     A.U. after   15 cycles
 SCF Done:  E(UM062X) =  -380.937334507     A.U. after   16 cycles
 SCF Done:  E(UM062X) =  -380.937335480     A.U. after   13 cycles
 SCF Done:  E(UM062X) =  -380.937337265     A.U. after   26 cycles
 SCF Done:  E(UM062X) =  -380.937338392     A.U. after   14 cycles
 SCF Done:  E(UM062X) =  -380.937339252     A.U. after   16 cycles
 SCF Done:  E(UM062X) =  -380.937340164     A.U. after   14 cycles
 SCF Done:  E(UM062X) =  -380.937340678     A.U. after   15 cycles
 SCF Done:  E(UM062X) =  -380.937340702     A.U. after   12 cycles
 SCF Done:  E(UM062X) =  -380.937340726     A.U. after   14 cycles
 SCF Done:  E(UM062X) =  -380.937340726     A.U. after   11 cycles
 Optimization completed.
    -- Stationary point found.

                          Input orientation:
 ---------------------------------------------------------------------
 Center     Atomic      Atomic             Coordinates (Angstroms)
 Number     Number       Type             X           Y           Z
 ---------------------------------------------------------------------
      1          6           0       -1.880452    0.000000    0.000000
      2         15           0        1.880452    0.000000    0.000000
      3          1           0       -2.591048   -0.846841    0.001572
      4          1           0        1.626072   -1.398359   -0.008279
      5          1           0       -2.532250    0.892731   -0.000848
 ---------------------------------------------------------------------

 Alpha  occ. eigenvalues --  -78.04171 -10.63087  -6.86407  -4.98409  -4.97649
 Alpha  occ. eigenvalues --   -4.97197  -0.77476  -0.65183  -0.49812  -0.37897
 Alpha  occ. eigenvalues --   -0.33498  -0.24037
 Alpha virt. eigenvalues --   -0.10740  -0.09958   0.01282   0.03953   0.04707
 Alpha virt. eigenvalues --    0.06188   0.06929   0.07478   0.08765   0.10965
 Alpha virt. eigenvalues --    0.13540   0.17142   0.18564   0.31259   0.33952

  Beta  occ. eigenvalues --  -78.04171 -10.63087  -6.86407  -4.98409  -4.97649
  Beta  occ. eigenvalues --   -4.97197  -0.77476  -0.65183  -0.49812  -0.37897
  Beta  occ. eigenvalues --   -0.33498  -0.24037
  Beta virt. eigenvalues --   -0.10740  -0.09958   0.01282   0.03953   0.04707
  Beta virt. eigenvalues --    0.06188   0.06929   0.07478   0.08765   0.10965
  Beta virt. eigenvalues --    0.13540   0.17142   0.18564   0.31259   0.33952

 Mulliken charges and spin densities:
               1          2
     1  C   -0.296447  -0.000000
     2  P    0.036290   0.000000
     3  H    0.146455  -0.000000
     4  H   -0.032729   0.000000
     5  H    0.146431   0.000000
 Sum of Mulliken charges =  -0.00000  -0.00000

 Dipole moment (field-independent basis, Debye):
    X=             -2.7750    Y=             -0.5909    Z=             -0.0028  Tot=              2.8372
 Quadrupole moment (field-independent basis, Debye-Ang):
   XX=            -13.1252   YY=            -21.3498   ZZ=            -25.4038
   XY=             -1.8900   XZ=             -0.0088   YZ=              0.0274

 Normal termination of Gaussian 16 at Mon Apr 21 19:20:50 2025.
