 Gaussian 16, Revision A.03,
 Gaussian 16:  ES64L-G16RevA.03 25-Dec-2016

 --------------------------------------------
 #p opt UM062X/6-311+G** nosymm int=superfine
 --------------------------------------------

 -------------------
 Title Card Required
 -------------------
 Symbolic Z-matrix:
 Charge =  1 Multiplicity = 2

 SCF Done:  E(UM062X) =  -1615.40714674     A.U. after   28 cycles
 SCF Done:  E(UM062X) =  -1615.49063814     A.U. after   26 cycles
 SCF Done:  E(UM062X) =  -1615.57287466     A.U. after   23 cycles
 SCF Done:  E(UM062X) =  -1615.57295587     A.U. after   23 cycles
 SCF Done:  E(UM062X) =  -1615.57852714     A.U. after   26 cycles
 SCF Done:  E(UM062X) =  -1615.57924722     A.U. after   25 cycles
 SCF Done:  E(UM062X) =  -1615.57900583     A.U. after   24 cycles
 SCF Done:  E(UM062X) =  -1615.57076135     A.U. after   29 cycles
 SCF Done:  E(UM062X) =  -1615.56810980     A.U. after   27 cycles
 SCF Done:  E(UM062X) =  -1615.57942277     A.U. after   22 cycles
 SCF Done:  E(UM062X) =  -1615.57974232     A.U. after   25 cycles
 SCF Done:  E(UM062X) =  -1615.57998311     A.U. after   21 cycles
 SCF Done:  E(UM062X) =  -1615.58005578     A.U. after   23 cycles
 SCF Done:  E(UM062X) =  -1615.58004919     A.U. after   23 cycles
 SCF Done:  E(UM062X) =  -1615.58005858     A.U. after   20 cycles
 SCF Done:  E(UM062X) =  -1615.58008587     A.U. after   23 cycles
 SCF Done:  E(UM062X) =  -1615.58008629     A.U. after   15 cycles
 SCF Done:  E(UM062X) =  -1615.58008661     A.U. after   17 cycles
 SCF Done:  E(UM062X) =  -1615.58008705     A.U. after   16 cycles
 SCF Done:  E(UM062X) =  -1615.58008718     A.U. after   16 cycles
 Optimization completed.
    -- Stationary point found.

                          Input orientation:
 ---------------------------------------------------------------------
 Center     Atomic      Atomic             Coordinates (Angstroms)
 Number     Number       Type             X           Y           Z
 ---------------------------------------------------------------------
      1          6           0       -1.612108    0.000000    0.000000
      2          6           0        1.612108   -0.000000   -0.000000
      3          6           0        0.000001   -2.062957    0.000862
      4          6           0       -0.000015   -3.462418    0.001366
      5          6           0       -1.133031   -4.292429    0.204424
      6          6           0       -1.315055   -1.468072    0.172107
      7          6           0        0.664311   -5.686140   -0.119299
      8          1           0        1.295570   -6.555206   -0.237553
      9          6           0       -1.645684    0.770164    1.216935
     10          6           0       -0.664394   -5.686033    0.123746
     11          1           0       -1.295676   -6.554995    0.242652
     12          6           0        1.132985   -4.292608   -0.201016
     13          6           0        1.315052   -1.468219   -0.170853
     14          6           0        1.775245    2.193384   -1.332263
     15          6           0       -1.727602    0.402452   -1.376351
     16          6           0       -1.846119    2.780450    2.607557
     17          1           0       -1.961803    3.856469    2.667302
     18          6           0       -2.345479   -3.700721    0.428134
     19          1           0       -3.248657   -4.274103    0.601641
     20          6           0       -1.720752    1.747041   -1.877688
     21          6           0        2.406447   -2.284472   -0.395223
     22          1           0        3.374471   -1.809012   -0.518026
     23          6           0        1.727603    0.403688    1.375998
     24          6           0        1.720724    1.748723    1.876118
     25          6           0        2.345461   -3.701090   -0.425107
     26          1           0        3.248638   -4.274618   -0.598147
     27          6           0       -1.775415    2.194540    1.330311
     28          6           0       -1.511409    0.053871    2.443103
     29          1           0       -1.365491   -1.015021    2.414298
     30          6           0        1.803985   -0.632752    2.360419
     31          1           0        1.839285   -1.663341    2.041810
     32          6           0       -1.766738    2.040855    3.769134
     33          1           0       -1.834445    2.528074    4.734239
     34          6           0       -2.406452   -2.284121    0.397147
     35          1           0       -3.374463   -1.808549    0.519619
     36          6           0       -1.747392    1.963480   -3.270225
     37          1           0       -1.723552    2.987479   -3.624548
     38          6           0        1.645857    0.769070   -1.217624
     39          6           0       -1.769357    3.136621    0.242838
     40          1           0       -1.797818    4.173647    0.562943
     41          6           0       -1.821626    0.933966   -4.180035
     42          1           0       -1.859054    1.143475   -5.242192
     43          6           0       -1.713206    2.949655   -1.090975
     44          1           0       -1.692892    3.859110   -1.683930
     45          6           0        1.747727    1.966423    3.268456
     46          1           0        1.723920    2.990738    3.621864
     47          6           0       -1.576856    0.660527    3.677117
     48          1           0       -1.478298    0.059076    4.572654
     49          6           0       -1.803805   -0.634874   -2.359857
     50          1           0       -1.839222   -1.665173   -2.040314
     51          6           0        1.822279    0.937735    4.179174
     52          1           0        1.860034    1.148204    5.241130
     53          6           0        1.846196    2.778155   -2.610018
     54          1           0        1.961627    3.854149   -2.670694
     55          6           0        1.867504   -0.379949    3.708786
     56          1           0        1.948187   -1.207317    4.403227
     57          6           0        1.767386    2.037490   -3.770950
     58          1           0        1.835282    2.523855   -4.736473
     59          6           0        1.768571    3.136443   -0.245638
     60          1           0        1.796495    4.173198   -0.566668
     61          6           0       -1.867008   -0.383292   -3.708462
     62          1           0       -1.947575   -1.211288   -4.402168
     63          6           0        1.712548    2.950635    1.088341
     64          1           0        1.691803    3.860604    1.680492
     65          6           0        1.512137    0.051647   -2.443192
     66          1           0        1.366511   -1.017260   -2.413465
     67          6           0        1.577818    0.657198   -3.677732
     68          1           0        1.479664    0.054906   -4.572750
 ---------------------------------------------------------------------

 Alpha  occ. eigenvalues --  -10.70674 -10.70673 -10.68653 -10.68653 -10.68605
 Alpha  occ. eigenvalues --  -10.68605 -10.68255 -10.68254 -10.68245 -10.68244
 Alpha  occ. eigenvalues --  -10.67434 -10.67417 -10.67333 -10.66706 -10.66706
 Alpha  occ. eigenvalues --  -10.66602 -10.66602 -10.65935 -10.65935 -10.65860
 Alpha  occ. eigenvalues --  -10.65860 -10.65731 -10.65731 -10.65710 -10.65709
 Alpha  occ. eigenvalues --  -10.65613 -10.65612 -10.65598 -10.65597 -10.65435
 Alpha  occ. eigenvalues --  -10.65435 -10.65417 -10.65417 -10.65338 -10.65338
 Alpha  occ. eigenvalues --  -10.65257 -10.65257 -10.64858 -10.64857 -10.63775
 Alpha  occ. eigenvalues --  -10.63752 -10.63674  -1.11822  -1.10342  -1.10004
 Alpha  occ. eigenvalues --   -1.08286  -1.07811  -1.05241  -1.04975  -1.02508
 Alpha  occ. eigenvalues --   -1.02142  -1.01018  -1.00211  -0.97937  -0.97652
 Alpha  occ. eigenvalues --   -0.96714  -0.96303  -0.94872  -0.93545  -0.93470
 Alpha  occ. eigenvalues --   -0.92859  -0.91720  -0.87355  -0.87161  -0.84984
 Alpha  occ. eigenvalues --   -0.84813  -0.83030  -0.81522  -0.80772  -0.79761
 Alpha  occ. eigenvalues --   -0.79672  -0.79536  -0.77333  -0.76309  -0.76166
 Alpha  occ. eigenvalues --   -0.75885  -0.75324  -0.73308  -0.70151  -0.69619
 Alpha  occ. eigenvalues --   -0.68768  -0.68537  -0.67755  -0.67657  -0.66901
 Alpha  occ. eigenvalues --   -0.66890  -0.65735  -0.65353  -0.65227  -0.64683
 Alpha  occ. eigenvalues --   -0.63224  -0.62744  -0.62404  -0.62108  -0.60958
 Alpha  occ. eigenvalues --   -0.60941  -0.60521  -0.60259  -0.60090  -0.60023
 Alpha  occ. eigenvalues --   -0.59537  -0.58813  -0.58761  -0.58103  -0.57656
 Alpha  occ. eigenvalues --   -0.57415  -0.57136  -0.55946  -0.55660  -0.55657
 Alpha  occ. eigenvalues --   -0.54927  -0.54021  -0.53009  -0.52849  -0.52615
 Alpha  occ. eigenvalues --   -0.52414  -0.52356  -0.52089  -0.51032  -0.50948
 Alpha  occ. eigenvalues --   -0.50877  -0.50831  -0.49651  -0.49546  -0.49506
 Alpha  occ. eigenvalues --   -0.48466  -0.48400  -0.47924  -0.45567  -0.44730
 Alpha  occ. eigenvalues --   -0.43909  -0.42784  -0.40571  -0.40417  -0.39268
 Alpha  occ. eigenvalues --   -0.38145  -0.37531  -0.37028  -0.30353
 Alpha virt. eigenvalues --   -0.21290  -0.16046  -0.15511  -0.14345  -0.10714
 Alpha virt. eigenvalues --   -0.09985  -0.08930  -0.08567  -0.08346  -0.07568
 Alpha virt. eigenvalues --   -0.07549  -0.07443  -0.06646  -0.06311  -0.06171

  Beta  occ. eigenvalues --  -10.70516 -10.70515 -10.68701 -10.68700 -10.68648
  Beta  occ. eigenvalues --  -10.68647 -10.68215 -10.68214 -10.68199 -10.68199
  Beta  occ. eigenvalues --  -10.67448 -10.67436 -10.67309 -10.66703 -10.66702
  Beta  occ. eigenvalues --  -10.66595 -10.66595 -10.65895 -10.65895 -10.65825
  Beta  occ. eigenvalues --  -10.65824 -10.65699 -10.65699 -10.65671 -10.65671
  Beta  occ. eigenvalues --  -10.65632 -10.65632 -10.65616 -10.65616 -10.65433
  Beta  occ. eigenvalues --  -10.65432 -10.65432 -10.65432 -10.65357 -10.65357
  Beta  occ. eigenvalues --  -10.65244 -10.65244 -10.64856 -10.64856 -10.63774
  Beta  occ. eigenvalues --  -10.63748 -10.63673  -1.11675  -1.10174  -1.09929
  Beta  occ. eigenvalues --   -1.08180  -1.07721  -1.05075  -1.04831  -1.02396
  Beta  occ. eigenvalues --   -1.02047  -1.00840  -1.00047  -0.97835  -0.97558
  Beta  occ. eigenvalues --   -0.96605  -0.96210  -0.94827  -0.93477  -0.93376
  Beta  occ. eigenvalues --   -0.92794  -0.91636  -0.87055  -0.86805  -0.84919
  Beta  occ. eigenvalues --   -0.84753  -0.82953  -0.81426  -0.80674  -0.79679
  Beta  occ. eigenvalues --   -0.79605  -0.79466  -0.77229  -0.76166  -0.76009
  Beta  occ. eigenvalues --   -0.75725  -0.75284  -0.73190  -0.70035  -0.69475
  Beta  occ. eigenvalues --   -0.68651  -0.68422  -0.67710  -0.67614  -0.66782
  Beta  occ. eigenvalues --   -0.66776  -0.65648  -0.65203  -0.65085  -0.64588
  Beta  occ. eigenvalues --   -0.63049  -0.62694  -0.62324  -0.62039  -0.60812
  Beta  occ. eigenvalues --   -0.60716  -0.60399  -0.60064  -0.59970  -0.59967
  Beta  occ. eigenvalues --   -0.59397  -0.58720  -0.58633  -0.58032  -0.57536
  Beta  occ. eigenvalues --   -0.57142  -0.56810  -0.55697  -0.55615  -0.55610
  Beta  occ. eigenvalues --   -0.54899  -0.53725  -0.52908  -0.52766  -0.52555
  Beta  occ. eigenvalues --   -0.52311  -0.52241  -0.52066  -0.50968  -0.50855
  Beta  occ. eigenvalues --   -0.50795  -0.50394  -0.49466  -0.49399  -0.48877
  Beta  occ. eigenvalues --   -0.48338  -0.47855  -0.47647  -0.44837  -0.44217
  Beta  occ. eigenvalues --   -0.43196  -0.42434  -0.40355  -0.40254  -0.38680
  Beta  occ. eigenvalues --   -0.38050  -0.37205  -0.36978
  Beta virt. eigenvalues --   -0.20739  -0.18244  -0.15913  -0.15496  -0.14408
  Beta virt. eigenvalues --   -0.10368  -0.09573  -0.08553  -0.08541  -0.08041
  Beta virt. eigenvalues --   -0.07616  -0.07567  -0.07251  -0.06633  -0.06267

 Mulliken charges and spin densities:
               1          2
     1  C    0.042651   0.378366
     2  C    0.042944   0.378531
     3  C    0.350432   0.020980
     4  C    0.214863  -0.015757
     5  C    0.124119   0.006893
     6  C   -0.010979  -0.041766
     7  C   -0.313780   0.000632
     8  H    0.176016  -0.000004
     9  C    0.044809  -0.051813
    10  C   -0.313742   0.000633
    11  H    0.176016  -0.000004
    12  C    0.124122   0.006883
    13  C   -0.011351  -0.041771
    14  C    0.558745   0.026584
    15  C    0.371395  -0.085885
    16  C   -0.426359  -0.035280
    17  H    0.165309   0.001164
    18  C   -0.482600   0.001895
    19  H    0.175515   0.000122
    20  C    0.258531   0.109085
    21  C   -0.095652   0.023595
    22  H    0.176769  -0.000424
    23  C    0.371517  -0.085907
    24  C    0.258420   0.109103
    25  C   -0.482495   0.001896
    26  H    0.175515   0.000122
    27  C    0.559306   0.026609
    28  C   -0.029141   0.083454
    29  H    0.211247  -0.004642
    30  C   -0.255149   0.039457
    31  H    0.224285  -0.003431
    32  C   -0.402127   0.060871
    33  H    0.182517  -0.003480
    34  C   -0.095813   0.023569
    35  H    0.176754  -0.000423
    36  C   -0.023489  -0.063856
    37  H    0.159439   0.001499
    38  C    0.045365  -0.051773
    39  C   -0.336246   0.051711
    40  H    0.163932  -0.002611
    41  C   -0.214765   0.073913
    42  H    0.181031  -0.003888
    43  C   -0.362319   0.011040
    44  H    0.160529  -0.000458
    45  C   -0.023764  -0.063872
    46  H    0.159455   0.001499
    47  C    0.011141  -0.041167
    48  H    0.167794   0.000200
    49  C   -0.255035   0.039437
    50  H    0.224268  -0.003432
    51  C   -0.215133   0.073874
    52  H    0.181038  -0.003886
    53  C   -0.426536  -0.035259
    54  H    0.165310   0.001164
    55  C   -0.562221  -0.035901
    56  H    0.176337   0.001459
    57  C   -0.402300   0.060880
    58  H    0.182514  -0.003480
    59  C   -0.335424   0.051752
    60  H    0.163902  -0.002615
    61  C   -0.562568  -0.035895
    62  H    0.176338   0.001459
    63  C   -0.361902   0.011033
    64  H    0.160488  -0.000458
    65  C   -0.029628   0.083450
    66  H    0.211269  -0.004642
    67  C    0.010771  -0.041241
    68  H    0.167797   0.000201
 Sum of Mulliken charges =   1.00000   1.00000

 Dipole moment (field-independent basis, Debye):
    X=              0.0000    Y=              2.5174    Z=             -0.0014  Tot=              2.5174
 Quadrupole moment (field-independent basis, Debye-Ang):
   XX=           -222.3492   YY=           -174.8302   ZZ=           -176.2776
   XY=             -0.0040   XZ=              0.3066   YZ=              0.0014

 Normal termination of Gaussian 16 at Fri Nov  8 07:04:28 2024.
