 Gaussian 16, Revision A.03,
 Gaussian 16:  ES64L-G16RevA.03 25-Dec-2016

 --------------------------------
 #p UM062X/6-311+G** Pop=NBO Read
 --------------------------------

 ------------
 NBO Analysis
 ------------
 Symbolic Z-matrix:
 Charge = -1 Multiplicity = 2

                         Standard orientation:
 ---------------------------------------------------------------------
 Center     Atomic      Atomic             Coordinates (Angstroms)
 Number     Number       Type             X           Y           Z
 ---------------------------------------------------------------------
      1          5           0       -0.000000    0.822274   -0.000001
      2          5           0       -0.000000   -0.822274   -0.000001
      3          1           0        1.015835    1.492844    0.000238
      4          1           0       -1.015835   -1.492844    0.000238
      5          1           0       -1.015834    1.492846   -0.000234
      6          1           0        1.015834   -1.492846   -0.000234
 ---------------------------------------------------------------------

 SCF Done:  E(UM062X) =  -52.0324536393     A.U. after   11 cycles

 The electronic state is 2-A.
 Alpha  occ. eigenvalues --   -6.79238  -6.79171  -0.38194  -0.29575  -0.19656
 Alpha  occ. eigenvalues --   -0.13600  -0.11985  -0.01382
 Alpha virt. eigenvalues --    0.16569   0.18898   0.20230   0.21416   0.21773
 Alpha virt. eigenvalues --    0.23882   0.23883   0.28890   0.30941   0.40420
 Alpha virt. eigenvalues --    0.41588   0.46019   0.49458   0.58548   0.68651

  Beta  occ. eigenvalues --   -6.79205  -6.79146  -0.35827  -0.28478  -0.19133
  Beta  occ. eigenvalues --   -0.13534  -0.11184
  Beta virt. eigenvalues --    0.10973   0.15977   0.16317   0.16958   0.18624
  Beta virt. eigenvalues --    0.19444   0.20414   0.23893   0.24287   0.34435
  Beta virt. eigenvalues --    0.40936   0.41722   0.45784   0.50077   0.58574

 Mulliken charges and spin densities:
               1          2
     1  B   -0.290770   0.536338
     2  B   -0.290770   0.536338
     3  H   -0.104615  -0.018169
     4  H   -0.104615  -0.018169
     5  H   -0.104615  -0.018169
     6  H   -0.104615  -0.018169
 Sum of Mulliken charges =  -1.00000   1.00000

 Dipole moment (field-independent basis, Debye):
    X=              0.0000    Y=              0.0000    Z=              0.0000  Tot=              0.0000
 Quadrupole moment (field-independent basis, Debye-Ang):
   XX=            -23.5025   YY=            -28.8791   ZZ=            -21.5011
   XY=             -0.0000   XZ=              0.0000   YZ=             -0.0000

 Summary of Natural Population Analysis:

                                       Natural Population
                Natural  -----------------------------------------------
    Atom  No    Charge         Core      Valence    Rydberg      Total
 -----------------------------------------------------------------------
      B    1    0.12890      0.99975     1.36550    0.00584     2.37110
      B    2    0.12890      0.99975     1.36550    0.00584     2.37110
      H    3   -0.06445      0.00000     0.56395    0.00050     0.56445
      H    4   -0.06445      0.00000     0.56395    0.00050     0.56445
      H    5   -0.06445      0.00000     0.56395    0.00050     0.56445
      H    6   -0.06445      0.00000     0.56395    0.00050     0.56445
 =======================================================================
   * Total *   -0.00000      1.99951     4.98681    0.01369     7.00000

 Normal termination of Gaussian 16 at Wed Apr 16 00:02:21 2025.
