 Gaussian 16, Revision A.03,
 Gaussian 16:  ES64L-G16RevA.03 25-Dec-2016

 --------------------------------------------
 #p opt UM062X/6-311+G** nosymm int=superfine
 --------------------------------------------

 -------------------
 Title Card Required
 -------------------
 Symbolic Z-matrix:
 Charge =  0 Multiplicity = 3

 SCF Done:  E(UM062X) =  -50.5240274408     A.U. after   13 cycles
 SCF Done:  E(UM062X) =  -50.5251888449     A.U. after   13 cycles
 SCF Done:  E(UM062X) =  -50.5252001076     A.U. after    8 cycles
 Optimization completed.
    -- Stationary point found.

                          Input orientation:
 ---------------------------------------------------------------------
 Center     Atomic      Atomic             Coordinates (Angstroms)
 Number     Number       Type             X           Y           Z
 ---------------------------------------------------------------------
      1          5           0       -1.378410    0.000000    0.000000
      2          5           0        1.378410    0.000000    0.000000
      3          1           0       -2.588333   -0.000082   -0.000000
      4          1           0        2.588333    0.000082    0.000000
 ---------------------------------------------------------------------

 Alpha  occ. eigenvalues --   -7.13228  -7.13225  -0.56546  -0.55485  -0.36965
 Alpha  occ. eigenvalues --   -0.24110  -0.19607
 Alpha virt. eigenvalues --   -0.07115  -0.06896  -0.03551   0.02652   0.02681
 Alpha virt. eigenvalues --    0.05940   0.07099   0.07218   0.08040   0.08070
 Alpha virt. eigenvalues --    0.12335   0.20029   0.23525   0.37316   0.39388

  Beta  occ. eigenvalues --   -7.12270  -7.12267  -0.52900  -0.52306  -0.28882
  Beta virt. eigenvalues --   -0.05157  -0.04629  -0.03515  -0.01199  -0.00849
  Beta virt. eigenvalues --    0.01571   0.02986   0.06615   0.06991   0.07695
  Beta virt. eigenvalues --    0.09062   0.10387   0.10569   0.21551   0.24825

 Mulliken charges and spin densities:
               1          2
     1  B   -0.062779   0.905927
     2  B   -0.062779   0.905927
     3  H    0.062779   0.094073
     4  H    0.062779   0.094073
 Sum of Mulliken charges =  -0.00000   2.00000

 Dipole moment (field-independent basis, Debye):
    X=             -0.0000    Y=              0.0000    Z=              0.0000  Tot=              0.0000
 Quadrupole moment (field-independent basis, Debye-Ang):
   XX=            -11.7234   YY=            -13.3257   ZZ=            -17.3525
   XY=              0.0003   XZ=              0.0000   YZ=              0.0034

 1\1\GINC-NODE06\FOpt\UM062X\6-311+G(d,p)\B2H2(3)\SZHAO\21-Apr-2025\0\\
 #p opt UM062X/6-311+G** nosymm int=superfine\\Title Card Required\\0,3
 \B,-1.37841047,0.,0.\B,1.37841047,0.,0.\H,-2.5883327094,-0.0000824474,
 -0.0000000701\H,2.5883327093,0.0000824477,0.0000000701\\Version=ES64L-
 G16RevA.03\HF=-50.5252001\S2=2.008707\S2-1=0.\S2A=2.00001\RMSD=5.126e-
 09\RMSF=3.692e-06\Dipole=0.,0.,0.\Quadrupole=1.7920894,0.6008615,-2.39
 29509,0.0002554,0.0000002,0.0025505\PG=C*V [C*(H1B1B1H1)]\\@

 Normal termination of Gaussian 16 at Mon Apr 21 17:28:25 2025.
