 Gaussian 16, Revision A.03,
 Gaussian 16:  ES64L-G16RevA.03 25-Dec-2016

 --------------------------------------------
 #p opt UM062X/6-311+G** nosymm int=superfine
 --------------------------------------------

 -------------------
 Title Card Required
 -------------------
 Symbolic Z-matrix:
 Charge =  1 Multiplicity = 2

 SCF Done:  E(UM062X) =  -79.3596139336     A.U. after   10 cycles
 SCF Done:  E(UM062X) =  -79.3603532801     A.U. after    8 cycles
 SCF Done:  E(UM062X) =  -79.3603574363     A.U. after    7 cycles
 Optimization completed.
    -- Stationary point found.

                          Input orientation:
 ---------------------------------------------------------------------
 Center     Atomic      Atomic             Coordinates (Angstroms)
 Number     Number       Type             X           Y           Z
 ---------------------------------------------------------------------
      1          6           0       -1.198404    0.000000    0.000000
      2          6           0        1.198404    0.000000    0.000000
      3          1           0        1.287734   -0.935302    0.541279
      4          1           0       -1.287019   -0.936414   -0.539474
      5          1           0        1.287447    0.936475    0.539297
      6          1           0        1.287000   -0.001124   -1.080698
      7          1           0       -1.287757    0.935360   -0.541175
      8          1           0       -1.287406    0.000944    1.080664
 ---------------------------------------------------------------------

 Alpha  occ. eigenvalues --  -10.85795 -10.85789  -1.07178  -1.02355  -0.76817
 Alpha  occ. eigenvalues --   -0.76816  -0.74225  -0.74224  -0.58269
 Alpha virt. eigenvalues --   -0.30342  -0.15570  -0.10729  -0.10729  -0.09971
 Alpha virt. eigenvalues --   -0.06533  -0.06245  -0.06245  -0.04325  -0.04323
 Alpha virt. eigenvalues --   -0.02655   0.01651   0.01653   0.05195   0.07334

  Beta  occ. eigenvalues --  -10.85592 -10.85592  -1.03888  -0.99794  -0.76025
  Beta  occ. eigenvalues --   -0.76025  -0.73598  -0.73597
  Beta virt. eigenvalues --   -0.35684  -0.21790  -0.15726  -0.11083  -0.11083
  Beta virt. eigenvalues --   -0.09305  -0.06579  -0.06579  -0.06564  -0.04075
  Beta virt. eigenvalues --   -0.04073  -0.01894   0.02130   0.02131   0.05610

 Mulliken charges and spin densities:
               1          2
     1  C   -0.294561   0.570172
     2  C   -0.294562   0.570173
     3  H    0.264867  -0.023400
     4  H    0.264837  -0.023385
     5  H    0.264853  -0.023394
     6  H    0.264841  -0.023380
     7  H    0.264868  -0.023400
     8  H    0.264857  -0.023388
 Sum of Mulliken charges =   1.00000   1.00000

 Dipole moment (field-independent basis, Debye):
    X=             -0.0000    Y=             -0.0000    Z=             -0.0000  Tot=              0.0001
 Quadrupole moment (field-independent basis, Debye-Ang):
   XX=             -4.4406   YY=            -10.8981   ZZ=            -10.8982
   XY=             -0.0007   XZ=              0.0004   YZ=             -0.0000

 Normal termination of Gaussian 16 at Wed Nov 13 13:21:56 2024.
