 Gaussian 16, Revision A.03,
 Gaussian 16:  ES64L-G16RevA.03 25-Dec-2016

 --------------------------------------------
 #p opt UM062X/6-311+G** nosymm int=superfine
 --------------------------------------------

 -------------------
 Title Card Required
 -------------------
 Symbolic Z-matrix:
 Charge =  0 Multiplicity = 1

 SCF Done:  E(UM062X) =  -438.542594247     A.U. after   11 cycles
 SCF Done:  E(UM062X) =  -438.554053325     A.U. after   11 cycles
 SCF Done:  E(UM062X) =  -438.557934860     A.U. after   11 cycles
 SCF Done:  E(UM062X) =  -438.557966016     A.U. after    9 cycles
 SCF Done:  E(UM062X) =  -438.557979653     A.U. after    9 cycles
 SCF Done:  E(UM062X) =  -438.557984981     A.U. after    9 cycles
 SCF Done:  E(UM062X) =  -438.557985377     A.U. after    7 cycles
 SCF Done:  E(UM062X) =  -438.557985530     A.U. after    7 cycles
 Optimization completed.
    -- Stationary point found.

                          Input orientation:
 ---------------------------------------------------------------------
 Center     Atomic      Atomic             Coordinates (Angstroms)
 Number     Number       Type             X           Y           Z
 ---------------------------------------------------------------------
      1          6           0       -1.510220    0.000000    0.000000
      2         16           0        1.510220    0.000000    0.000000
      3          1           0        1.476396   -1.343851   -0.001036
      4          1           0       -1.585352    1.078200    0.002652
      5          1           0       -1.613238   -0.531717   -0.935421
      6          1           0       -1.613324   -0.536298    0.932794
 ---------------------------------------------------------------------

 Alpha  occ. eigenvalues --  -89.88760 -10.63335  -8.24995  -6.17057  -6.16966
 Alpha  occ. eigenvalues --   -6.16429  -0.81843  -0.76292  -0.53572  -0.53473
 Alpha  occ. eigenvalues --   -0.42900  -0.30207  -0.28819
 Alpha virt. eigenvalues --   -0.11774   0.01640   0.04164   0.04890   0.05565
 Alpha virt. eigenvalues --    0.07589   0.08012   0.08498   0.11109   0.13552
 Alpha virt. eigenvalues --    0.16701   0.17319   0.22471   0.33104   0.36336

  Beta  occ. eigenvalues --  -89.88760 -10.63335  -8.24995  -6.17057  -6.16966
  Beta  occ. eigenvalues --   -6.16429  -0.81843  -0.76292  -0.53572  -0.53473
  Beta  occ. eigenvalues --   -0.42900  -0.30207  -0.28819
  Beta virt. eigenvalues --   -0.11774   0.01640   0.04164   0.04890   0.05565
  Beta virt. eigenvalues --    0.07589   0.08012   0.08498   0.11109   0.13552
  Beta virt. eigenvalues --    0.16701   0.17319   0.22471   0.33104   0.36336

 Mulliken charges and spin densities:
               1          2
     1  C   -0.444087  -0.000000
     2  S   -0.235800   0.000000
     3  H    0.056594  -0.000000
     4  H    0.208772   0.000000
     5  H    0.207279   0.000000
     6  H    0.207242   0.000000
 Sum of Mulliken charges =  -0.00000  -0.00000

 Dipole moment (field-independent basis, Debye):
    X=             -3.5175    Y=             -0.9419    Z=             -0.0007  Tot=              3.6415
 Quadrupole moment (field-independent basis, Debye-Ang):
   XX=            -20.7468   YY=            -19.4596   ZZ=            -23.4978
   XY=             -1.6093   XZ=             -0.0013   YZ=              0.0031

 Normal termination of Gaussian 16 at Mon Apr 21 19:31:58 2025.
