 Gaussian 16, Revision A.03,
 Gaussian 16:  ES64L-G16RevA.03 25-Dec-2016

 ----------------------------------------------------------------------
 #p opt UM062X/6-311+G** nosymm int=superfine SCF=(MaxCycle=200,NoVarAc
 c,noincfock) guess=read
 ----------------------------------------------------------------------

 -------------------
 Title Card Required
 -------------------
 Symbolic Z-matrix:
 Charge =  1 Multiplicity = 2

 SCF Done:  E(UM062X) =  -92.6404480790     A.U. after   45 cycles
 SCF Done:  E(UM062X) =  -92.6409137061     A.U. after   48 cycles
 SCF Done:  E(UM062X) =  -92.6409199081     A.U. after   16 cycles
 Optimization completed.
    -- Stationary point found.

                          Input orientation:
 ---------------------------------------------------------------------
 Center     Atomic      Atomic             Coordinates (Angstroms)
 Number     Number       Type             X           Y           Z
 ---------------------------------------------------------------------
      1          6           0       -1.551540    0.000000    0.000000
      2          7           0        1.551540    0.000000    0.000000
      3          1           0       -2.675747    0.000000   -0.000000
 ---------------------------------------------------------------------

 Alpha  occ. eigenvalues --  -15.10363 -11.03009  -1.13994  -1.00004  -0.65883
 Alpha  occ. eigenvalues --   -0.65868  -0.62652
 Alpha virt. eigenvalues --   -0.47202  -0.37779  -0.34010  -0.15996  -0.09930
 Alpha virt. eigenvalues --   -0.09523  -0.08608  -0.04410  -0.01053  -0.00905
 Alpha virt. eigenvalues --   -0.00210   0.07817   0.22512   0.29909   0.30094

  Beta  occ. eigenvalues --  -15.06501 -11.05567  -1.09493  -0.92303  -0.79365
  Beta  occ. eigenvalues --   -0.68057
  Beta virt. eigenvalues --   -0.43582  -0.27933  -0.27051  -0.27012  -0.15953
  Beta virt. eigenvalues --   -0.11385  -0.09447  -0.09353  -0.06893  -0.00139
  Beta virt. eigenvalues --    0.00842   0.00926   0.05579   0.22664   0.29721

 Mulliken charges and spin densities:
               1          2
     1  C    0.412205  -1.663048
     2  N    0.222192   2.774238
     3  H    0.365602  -0.111190
 Sum of Mulliken charges =   1.00000   1.00000

 Dipole moment (field-independent basis, Debye):
    X=             -5.8158    Y=              0.0000    Z=             -0.0000  Tot=              5.8158
 Quadrupole moment (field-independent basis, Debye-Ang):
   XX=              9.6874   YY=            -10.8258   ZZ=             -9.2318
   XY=             -0.0000   XZ=              0.0000   YZ=             -0.1017

 Normal termination of Gaussian 16 at Mon Apr 21 23:04:16 2025.
