 Gaussian 16, Revision A.03,
 Gaussian 16:  ES64L-G16RevA.03 25-Dec-2016

 --------------------------------------------
 #p opt UM062X/6-311+G** nosymm int=superfine
 --------------------------------------------

 -------------------
 Title Card Required
 -------------------
 Symbolic Z-matrix:
 Charge =  0 Multiplicity = 1

 SCF Done:  E(UM062X) =  -115.592255326     A.U. after   11 cycles
 SCF Done:  E(UM062X) =  -115.604365898     A.U. after   11 cycles
 SCF Done:  E(UM062X) =  -115.606750004     A.U. after   10 cycles
 SCF Done:  E(UM062X) =  -115.606763829     A.U. after    9 cycles
 SCF Done:  E(UM062X) =  -115.606767883     A.U. after    9 cycles
 Optimization completed.
    -- Stationary point found.

                          Input orientation:
 ---------------------------------------------------------------------
 Center     Atomic      Atomic             Coordinates (Angstroms)
 Number     Number       Type             X           Y           Z
 ---------------------------------------------------------------------
      1          6           0       -1.057203    0.000000    0.000000
      2          8           0        1.057203    0.000000    0.000000
      3          1           0        1.168785   -0.958070    0.000183
      4          1           0       -1.255739   -0.518587    0.927830
      5          1           0       -1.168324    1.074629   -0.000794
      6          1           0       -1.255811   -0.519950   -0.927054
 ---------------------------------------------------------------------

 Alpha  occ. eigenvalues --  -19.61223 -10.62987  -1.04306  -0.80963  -0.53078
 Alpha  occ. eigenvalues --   -0.52909  -0.47788  -0.36664  -0.34950
 Alpha virt. eigenvalues --   -0.05015   0.01136   0.04707   0.05187   0.07153
 Alpha virt. eigenvalues --    0.15021   0.17185   0.17278   0.20341   0.22973
 Alpha virt. eigenvalues --    0.23358   0.24196   0.33124   0.41046   0.42121

  Beta  occ. eigenvalues --  -19.61223 -10.62987  -1.04306  -0.80963  -0.53078
  Beta  occ. eigenvalues --   -0.52909  -0.47788  -0.36664  -0.34950
  Beta virt. eigenvalues --   -0.05015   0.01136   0.04707   0.05187   0.07153
  Beta virt. eigenvalues --    0.15021   0.17185   0.17278   0.20341   0.22973
  Beta virt. eigenvalues --    0.23358   0.24196   0.33124   0.41046   0.42121

 Mulliken charges and spin densities:
               1          2
     1  C   -0.304877  -0.000000
     2  O   -0.500901   0.000000
     3  H    0.227079  -0.000000
     4  H    0.187255  -0.000000
     5  H    0.204212  -0.000000
     6  H    0.187233  -0.000000
 Sum of Mulliken charges =   0.00000   0.00000

 Dipole moment (field-independent basis, Debye):
    X=             -3.2616    Y=             -1.5327    Z=              0.0003  Tot=              3.6037
 Quadrupole moment (field-independent basis, Debye-Ang):
   XX=            -13.4438   YY=            -11.4250   ZZ=            -13.8128
   XY=             -2.1410   XZ=              0.0004   YZ=             -0.0005

 Normal termination of Gaussian 16 at Mon Apr 21 18:41:36 2025.
