 Gaussian 16, Revision A.03,
 Gaussian 16:  ES64L-G16RevA.03 25-Dec-2016

 --------------------------------------------
 #p opt UM062X/6-311+G** nosymm int=superfine
 --------------------------------------------

 -------------------
 Title Card Required
 -------------------
 Symbolic Z-matrix:
 Charge =  0 Multiplicity = 1

 SCF Done:  E(UM062X) =  -379.646292616     A.U. after   15 cycles
 SCF Done:  E(UM062X) =  -379.647180890     A.U. after   10 cycles
 SCF Done:  E(UM062X) =  -379.647182584     A.U. after    9 cycles
 Optimization completed.
    -- Stationary point found.

                          Input orientation:
 ---------------------------------------------------------------------
 Center     Atomic      Atomic             Coordinates (Angstroms)
 Number     Number       Type             X           Y           Z
 ---------------------------------------------------------------------
      1          6           0       -1.365377    0.000000    0.000000
      2         15           0        1.365377    0.000000    0.000000
      3          1           0       -2.477089    0.000000   -0.000000
 ---------------------------------------------------------------------

 Alpha  occ. eigenvalues --  -78.10043 -10.70160  -6.91652  -5.03370  -5.02707
 Alpha  occ. eigenvalues --   -5.02707  -0.75118  -0.62475  -0.41626  -0.26092
 Alpha  occ. eigenvalues --   -0.26092
 Alpha virt. eigenvalues --   -0.13031  -0.13031  -0.10235   0.01485   0.03951
 Alpha virt. eigenvalues --    0.05759   0.05759   0.07400   0.09429   0.09429
 Alpha virt. eigenvalues --    0.14919   0.19340   0.31149   0.32735   0.32735

  Beta  occ. eigenvalues --  -78.10043 -10.70160  -6.91652  -5.03370  -5.02707
  Beta  occ. eigenvalues --   -5.02707  -0.75118  -0.62475  -0.41626  -0.26092
  Beta  occ. eigenvalues --   -0.26092
  Beta virt. eigenvalues --   -0.13031  -0.13031  -0.10235   0.01485   0.03951
  Beta virt. eigenvalues --    0.05759   0.05759   0.07400   0.09429   0.09429
  Beta virt. eigenvalues --    0.14919   0.19340   0.31149   0.32735   0.32735

 Mulliken charges and spin densities:
               1          2
     1  C   -0.281564   0.000000
     2  P    0.079096  -0.000000
     3  H    0.202468  -0.000000
 Sum of Mulliken charges =  -0.00000  -0.00000

 Dipole moment (field-independent basis, Debye):
    X=             -1.2527    Y=             -0.0000    Z=             -0.0000  Tot=              1.2527
 Quadrupole moment (field-independent basis, Debye-Ang):
   XX=            -11.3760   YY=            -23.6068   ZZ=            -23.6068
   XY=              0.0000   XZ=             -0.0000   YZ=             -0.0000

 Normal termination of Gaussian 16 at Mon Apr 21 19:30:00 2025.
