 Gaussian 16, Revision A.03,
 Gaussian 16:  ES64L-G16RevA.03 25-Dec-2016

 --------------------------------
 #p UM062X/6-311+G** Pop=NBO Read
 --------------------------------

 ------------
 NBO Analysis
 ------------
 Symbolic Z-matrix:
 Charge =  1 Multiplicity = 2

                         Standard orientation:
 ---------------------------------------------------------------------
 Center     Atomic      Atomic             Coordinates (Angstroms)
 Number     Number       Type             X           Y           Z
 ---------------------------------------------------------------------
      1          6           0        0.000000    0.000000   -1.034002
      2         15           0        0.000000    0.000000    0.554852
      3          1           0        0.000000    0.000000   -2.118759
 ---------------------------------------------------------------------

 SCF Done:  E(UM062X) =  -379.548295852     A.U. after   13 cycles

 Unable to determine electronic state:  an orbital has unidentified symmetry.
 Alpha  occ. eigenvalues --  -78.40736 -10.92092  -7.20869  -5.32768  -5.31895
 Alpha  occ. eigenvalues --   -5.31877  -1.13102  -0.90896  -0.71710  -0.66088
 Alpha  occ. eigenvalues --   -0.63702
 Alpha virt. eigenvalues --   -0.31987  -0.30091  -0.15643  -0.13925  -0.10316
 Alpha virt. eigenvalues --   -0.10157  -0.09940  -0.06683  -0.04930  -0.04588
 Alpha virt. eigenvalues --    0.00139   0.07429   0.22221   0.22991   0.23737

  Beta  occ. eigenvalues --  -78.40469 -10.91772  -7.20805  -5.31914  -5.31883
  Beta  occ. eigenvalues --   -5.31873  -1.08770  -0.89442  -0.70659  -0.61582
  Beta virt. eigenvalues --   -0.43838  -0.28823  -0.26093  -0.16188  -0.13567
  Beta virt. eigenvalues --   -0.10341  -0.10232  -0.10060  -0.06206  -0.04611
  Beta virt. eigenvalues --   -0.04536  -0.00743   0.08250   0.21270   0.22883

 Mulliken charges and spin densities:
               1          2
     1  C    0.026824   0.626518
     2  P    0.695516   0.393918
     3  H    0.277660  -0.020436
 Sum of Mulliken charges =   1.00000   1.00000

 Dipole moment (field-independent basis, Debye):
    X=              0.0000    Y=              0.0000    Z=             -1.0449  Tot=              1.0449
 Quadrupole moment (field-independent basis, Debye-Ang):
   XX=            -16.7668   YY=            -14.3280   ZZ=             -8.1285
   XY=              0.0000   XZ=              0.0000   YZ=              0.0000

 Summary of Natural Population Analysis:

                                       Natural Population
                Natural  -----------------------------------------------
    Atom  No    Charge         Core      Valence    Rydberg      Total
 -----------------------------------------------------------------------
      C    1    0.13492      0.99985     1.86144    0.00379     2.86508
      P    2    0.71911      4.99909     1.76543    0.01636     6.78089
      H    3    0.14597      0.00000     0.35281    0.00122     0.35403
 =======================================================================
   * Total *    1.00000      5.99894     3.97969    0.02137    10.00000

 Normal termination of Gaussian 16 at Wed Apr 16 03:43:11 2025.
