 Gaussian 16, Revision A.03,
 Gaussian 16:  ES64L-G16RevA.03 25-Dec-2016

 --------------------------------------------
 #p opt UM062X/6-311+G** nosymm int=superfine
 --------------------------------------------

 -------------------
 Title Card Required
 -------------------
 Symbolic Z-matrix:
 Charge =  0 Multiplicity = 2

 SCF Done:  E(UM062X) =  -39.8082877443     A.U. after   10 cycles
 SCF Done:  E(UM062X) =  -39.8176875120     A.U. after   11 cycles
 SCF Done:  E(UM062X) =  -39.8203767540     A.U. after   11 cycles
 SCF Done:  E(UM062X) =  -39.8207687869     A.U. after   10 cycles
 SCF Done:  E(UM062X) =  -39.8208548837     A.U. after    9 cycles
 SCF Done:  E(UM062X) =  -39.8208665671     A.U. after    8 cycles
 SCF Done:  E(UM062X) =  -39.8208687599     A.U. after    8 cycles
 Optimization completed.
    -- Stationary point found.

                          Input orientation:
 ---------------------------------------------------------------------
 Center     Atomic      Atomic             Coordinates (Angstroms)
 Number     Number       Type             X           Y           Z
 ---------------------------------------------------------------------
      1          6           0       -1.025926    0.011032   -0.018707
      2          1           0       -0.987525    1.089089   -0.007181
      3          1           0       -0.987526   -0.520256   -0.956827
      4          1           0       -1.099063   -0.535945    0.908285
 ---------------------------------------------------------------------

 Alpha  occ. eigenvalues --  -10.54495  -0.77839  -0.49114  -0.49111  -0.28694
 Alpha virt. eigenvalues --    0.03944   0.05986   0.05987   0.09091   0.18983
 Alpha virt. eigenvalues --    0.19449   0.19452   0.44022   0.44023   0.48677
 Alpha virt. eigenvalues --    0.57584   0.65716   0.65720   0.75491   1.09615

  Beta  occ. eigenvalues --  -10.53806  -0.73026  -0.47830  -0.47827
  Beta virt. eigenvalues --   -0.04277   0.02681   0.06172   0.06172   0.12576
  Beta virt. eigenvalues --    0.19838   0.19840   0.20587   0.43374   0.43375
  Beta virt. eigenvalues --    0.49513   0.59736   0.67913   0.67918   0.77449

 Mulliken charges and spin densities:
               1          2
     1  C   -0.484063   1.150245
     2  H    0.161356  -0.050082
     3  H    0.161358  -0.050080
     4  H    0.161349  -0.050083
 Sum of Mulliken charges =  -0.00000   1.00000

 Dipole moment (field-independent basis, Debye):
    X=              0.0028    Y=             -0.0001    Z=              0.0002  Tot=              0.0028
 Quadrupole moment (field-independent basis, Debye-Ang):
   XX=             -9.2573   YY=             -7.2559   ZZ=             -7.2608
   XY=              0.0703   XZ=             -0.1191   YZ=              0.0045

 1\1\GINC-NODE02\FOpt\UM062X\6-311+G(d,p)\C1H3(2)\SZHAO\16-Apr-2025\0\\
 #p opt UM062X/6-311+G** nosymm int=superfine\\Title Card Required\\0,2
 \C,-1.0259264267,0.0110317421,-0.0187074927\H,-0.9875245203,1.08908918
 69,-0.0071811361\H,-0.9875259026,-0.5202557634,-0.9568270988\H,-1.0990
 627904,-0.5359445356,0.9082848976\\Version=ES64L-G16RevA.03\HF=-39.820
 8688\S2=0.754649\S2-1=0.\S2A=0.750015\RMSD=2.519e-09\RMSF=1.908e-05\Di
 pole=0.0011068,-0.0000464,0.0000839\Quadrupole=-0.9907818,0.4972021,0.
 4935798,0.0522621,-0.0885824,0.0033475\PG=C01 [X(C1H3)]\\@

 Normal termination of Gaussian 16 at Wed Apr 16 08:19:03 2025.
