 Gaussian 16, Revision A.03,
 Gaussian 16:  ES64L-G16RevA.03 25-Dec-2016

 ---------------------------------------------------
 #p UM062X/6-311+G** force int=superfine pop=saveNBO
 ---------------------------------------------------

 -------------------
 Title Card Required
 -------------------
 Symbolic Z-matrix:
 Charge =  0 Multiplicity = 1

                         Standard orientation:
 ---------------------------------------------------------------------
 Center     Atomic      Atomic             Coordinates (Angstroms)
 Number     Number       Type             X           Y           Z
 ---------------------------------------------------------------------
      1          6           0        0.000000    0.000000   -3.002612
      2         16           0        0.000000    0.000000    1.125980
 ---------------------------------------------------------------------

 SCF Done:  E(UM062X) =  -435.732701466     A.U. after   21 cycles

 The electronic state is 1-SG.
 Alpha  occ. eigenvalues --  -89.93159 -10.82513  -8.29007  -6.20792  -6.20792
 Alpha  occ. eigenvalues --   -6.20750  -0.72848  -0.71223  -0.28897  -0.27954
 Alpha  occ. eigenvalues --   -0.27954
 Alpha virt. eigenvalues --   -0.20864  -0.20864  -0.19616   0.02474   0.05625
 Alpha virt. eigenvalues --    0.05641   0.05641   0.08319   0.08325   0.08325
 Alpha virt. eigenvalues --    0.13284   0.35680   0.36573   0.36573   0.51213

  Beta  occ. eigenvalues --  -89.93159 -10.82513  -8.29007  -6.20792  -6.20792
  Beta  occ. eigenvalues --   -6.20750  -0.72848  -0.71223  -0.28897  -0.27954
  Beta  occ. eigenvalues --   -0.27954
  Beta virt. eigenvalues --   -0.20864  -0.20864  -0.19616   0.02474   0.05625
  Beta virt. eigenvalues --    0.05641   0.05641   0.08319   0.08325   0.08325
  Beta virt. eigenvalues --    0.13284   0.35680   0.36573   0.36573   0.51213

 Mulliken charges and spin densities:
               1          2
     1  C    0.219060  -0.000000
     2  S   -0.219060   0.000000
 Sum of Mulliken charges =  -0.00000   0.00000

 Dipole moment (field-independent basis, Debye):
    X=              0.0000    Y=              0.0000    Z=             -4.3588  Tot=              4.3588
 Quadrupole moment (field-independent basis, Debye-Ang):
   XX=            -20.9082   YY=            -20.9082   ZZ=            -10.1952
   XY=              0.0000   XZ=              0.0000   YZ=              0.0000

 Summary of Natural Population Analysis:

                                       Natural Population
                Natural  -----------------------------------------------
    Atom  No    Charge         Core      Valence    Rydberg      Total
 -----------------------------------------------------------------------
      C    1    0.12226      1.00000     1.87733    0.00042     2.87774
      S    2   -0.12226      5.00000     3.12204    0.00022     8.12226
 =======================================================================
   * Total *    0.00000      6.00000     4.99937    0.00063    11.00000

 Normal termination of Gaussian 16 at Mon Apr 21 19:41:20 2025.
