 Gaussian 16, Revision A.03,
 Gaussian 16:  ES64L-G16RevA.03 25-Dec-2016

 --------------------------------------------
 #p opt UM062X/6-311+G** nosymm int=superfine
 --------------------------------------------

 -------------------
 Title Card Required
 -------------------
 Symbolic Z-matrix:
 Charge =  0 Multiplicity = 1

 SCF Done:  E(UM062X) =  -78.3029008127     A.U. after    9 cycles
 SCF Done:  E(UM062X) =  -78.3325617250     A.U. after    8 cycles
 SCF Done:  E(UM062X) =  -78.3448837243     A.U. after    8 cycles
 SCF Done:  E(UM062X) =  -78.3450372740     A.U. after    7 cycles
 SCF Done:  E(UM062X) =  -78.3450399527     A.U. after    6 cycles
 Optimization completed.
    -- Stationary point found.

                          Input orientation:
 ---------------------------------------------------------------------
 Center     Atomic      Atomic             Coordinates (Angstroms)
 Number     Number       Type             X           Y           Z
 ---------------------------------------------------------------------
      1          6           0       -0.503783    0.000000    0.000000
      2          6           0        0.503783    0.000000    0.000000
      3          1           0       -1.142428   -0.889489   -0.000000
      4          1           0       -1.142377    0.889598   -0.000000
      5          1           0        1.142428    0.889489    0.000000
      6          1           0        1.142377   -0.889598    0.000000
 ---------------------------------------------------------------------

 Alpha  occ. eigenvalues --  -10.49286 -10.48039  -0.93942  -0.63017  -0.57884
 Alpha  occ. eigenvalues --   -0.52757  -0.41436  -0.35049
 Alpha virt. eigenvalues --    0.03317   0.04261   0.04402   0.06759   0.06876
 Alpha virt. eigenvalues --    0.08795   0.09824   0.16115   0.18063   0.18185
 Alpha virt. eigenvalues --    0.18712   0.24821   0.34238   0.41476   0.43210

  Beta  occ. eigenvalues --  -10.49286 -10.48039  -0.93942  -0.63017  -0.57884
  Beta  occ. eigenvalues --   -0.52757  -0.41436  -0.35049
  Beta virt. eigenvalues --    0.03317   0.04261   0.04402   0.06759   0.06876
  Beta virt. eigenvalues --    0.08795   0.09824   0.16115   0.18063   0.18185
  Beta virt. eigenvalues --    0.18712   0.24821   0.34238   0.41476   0.43210

 Mulliken charges and spin densities:
               1          2
     1  C   -0.258377  -0.000000
     2  C   -0.258377   0.000000
     3  H    0.129196   0.000000
     4  H    0.129181   0.000000
     5  H    0.129196  -0.000000
     6  H    0.129181  -0.000000
 Sum of Mulliken charges =   0.00000  -0.00000

 Dipole moment (field-independent basis, Debye):
    X=             -0.0000    Y=             -0.0000    Z=             -0.0000  Tot=              0.0000
 Quadrupole moment (field-independent basis, Debye-Ang):
   XX=            -12.5117   YY=            -12.3798   ZZ=            -14.3895
   XY=              0.0002   XZ=              0.0000   YZ=              0.0000

 Normal termination of Gaussian 16 at Tue Nov 19 10:26:19 2024.
