 Gaussian 16, Revision A.03,
 Gaussian 16:  ES64L-G16RevA.03 25-Dec-2016

 --------------------------------------------
 #p opt UM062X/6-311+G** nosymm int=superfine
 --------------------------------------------

 -------------------
 Title Card Required
 -------------------
 Symbolic Z-matrix:
 Charge =  0 Multiplicity = 1

 SCF Done:  E(UM062X) =  -683.835348970     A.U. after    9 cycles
 SCF Done:  E(UM062X) =  -683.835449583     A.U. after    8 cycles
 SCF Done:  E(UM062X) =  -683.835469823     A.U. after    7 cycles
 Optimization completed.
    -- Stationary point found.

                          Input orientation:
 ---------------------------------------------------------------------
 Center     Atomic      Atomic             Coordinates (Angstroms)
 Number     Number       Type             X           Y           Z
 ---------------------------------------------------------------------
      1         15           0       -1.084490    0.000000    0.000000
      2         15           0        1.084490    0.000000    0.000000
      3          1           0       -1.154611   -1.418792   -0.000000
      4          1           0        1.154611    1.418792   -0.000000
 ---------------------------------------------------------------------

 Alpha  occ. eigenvalues --  -78.05054 -78.05054  -6.87422  -6.87412  -4.98932
 Alpha  occ. eigenvalues --   -4.98928  -4.98853  -4.98833  -4.98689  -4.98672
 Alpha  occ. eigenvalues --   -0.75761  -0.62788  -0.41974  -0.40800  -0.31739
 Alpha  occ. eigenvalues --   -0.30931
 Alpha virt. eigenvalues --   -0.09356   0.00911   0.01817   0.03446   0.04229
 Alpha virt. eigenvalues --    0.04725   0.05827   0.06519   0.07053   0.08382
 Alpha virt. eigenvalues --    0.11632   0.13160   0.26021   0.29467   0.31338

  Beta  occ. eigenvalues --  -78.05054 -78.05054  -6.87422  -6.87412  -4.98932
  Beta  occ. eigenvalues --   -4.98928  -4.98853  -4.98833  -4.98689  -4.98672
  Beta  occ. eigenvalues --   -0.75761  -0.62788  -0.41974  -0.40800  -0.31739
  Beta  occ. eigenvalues --   -0.30931
  Beta virt. eigenvalues --   -0.09356   0.00911   0.01817   0.03446   0.04229
  Beta virt. eigenvalues --    0.04725   0.05827   0.06519   0.07053   0.08382
  Beta virt. eigenvalues --    0.11632   0.13160   0.26021   0.29467   0.31338

 Mulliken charges and spin densities:
               1          2
     1  P    0.017452  -0.000000
     2  P    0.017452   0.000000
     3  H   -0.017452  -0.000000
     4  H   -0.017452  -0.000000
 Sum of Mulliken charges =  -0.00000   0.00000

 Dipole moment (field-independent basis, Debye):
    X=              0.0000    Y=             -0.0000    Z=             -0.0000  Tot=              0.0000
 Quadrupole moment (field-independent basis, Debye-Ang):
   XX=            -29.2556   YY=            -27.3839   ZZ=            -28.7490
   XY=              2.5733   XZ=              0.0000   YZ=              0.0000

 Normal termination of Gaussian 16 at Mon Apr 21 21:00:43 2025.
