 Gaussian 16, Revision A.03,
 Gaussian 16:  ES64L-G16RevA.03 25-Dec-2016

 -------------------------------------
 #p opt UM062X/6-311+G** int=superfine
 -------------------------------------

 -------------------
 Title Card Required
 -------------------
 Symbolic Z-matrix:
 Charge =  1 Multiplicity = 2

 SCF Done:  E(UM062X) =  -79.3450090455     A.U. after   10 cycles
 SCF Done:  E(UM062X) =  -79.3503855269     A.U. after    9 cycles
 SCF Done:  E(UM062X) =  -79.3505507427     A.U. after    7 cycles
 SCF Done:  E(UM062X) =  -79.3597160966     A.U. after   10 cycles
 SCF Done:  E(UM062X) =  -79.3655122398     A.U. after   10 cycles
 SCF Done:  E(UM062X) =  -79.3548047759     A.U. after   13 cycles
 SCF Done:  E(UM062X) =  -79.3683513493     A.U. after   11 cycles
 SCF Done:  E(UM062X) =  -79.3687757300     A.U. after   11 cycles
 SCF Done:  E(UM062X) =  -79.3691929685     A.U. after   10 cycles
 SCF Done:  E(UM062X) =  -79.3691985152     A.U. after    8 cycles
 Optimization completed.
    -- Stationary point found.

                         Standard orientation:
 ---------------------------------------------------------------------
 Center     Atomic      Atomic             Coordinates (Angstroms)
 Number     Number       Type             X           Y           Z
 ---------------------------------------------------------------------
      1          6           0        0.988448    0.000053   -0.000041
      2          6           0       -0.988448   -0.000053    0.000041
      3          1           0       -1.130071   -1.059282    0.192128
      4          1           0        1.130937   -0.363190    1.013198
      5          1           0       -1.130894    0.363179   -1.013206
      6          1           0       -1.130531    0.695833    0.821300
      7          1           0        1.130067    1.059286   -0.192111
      8          1           0        1.130494   -0.695827   -0.821311
 ---------------------------------------------------------------------

 The electronic state is 2-A.
 Alpha  occ. eigenvalues --  -10.86103 -10.86092  -1.11359  -1.01278  -0.79139
 Alpha  occ. eigenvalues --   -0.79136  -0.73522  -0.73522  -0.64055
 Alpha virt. eigenvalues --   -0.22550  -0.16610  -0.11266  -0.11265  -0.09797
 Alpha virt. eigenvalues --   -0.07375  -0.06464  -0.06462  -0.05597  -0.05595
 Alpha virt. eigenvalues --   -0.01779   0.01549   0.01554   0.04160   0.07433

  Beta  occ. eigenvalues --  -10.85883 -10.85882  -1.07772  -0.98234  -0.78114
  Beta  occ. eigenvalues --   -0.78112  -0.72698  -0.72698
  Beta virt. eigenvalues --   -0.40295  -0.16748  -0.16172  -0.11173  -0.11173
  Beta virt. eigenvalues --   -0.07769  -0.07561  -0.06661  -0.06659  -0.05170
  Beta virt. eigenvalues --   -0.05168  -0.00809   0.02232   0.02237   0.04691

 Mulliken charges and spin densities:
               1          2
     1  C   -0.320718   0.544209
     2  C   -0.320718   0.544209
     3  H    0.273563  -0.014708
     4  H    0.273582  -0.014765
     5  H    0.273581  -0.014764
     6  H    0.273575  -0.014737
     7  H    0.273563  -0.014708
     8  H    0.273573  -0.014736
 Sum of Mulliken charges =   1.00000   1.00000

 Dipole moment (field-independent basis, Debye):
    X=              0.0000    Y=             -0.0000    Z=              0.0000  Tot=              0.0000
 Quadrupole moment (field-independent basis, Debye-Ang):
   XX=             -6.6173   YY=            -10.7425   ZZ=            -10.7432
   XY=             -0.0003   XZ=              0.0002   YZ=              0.0000

 Normal termination of Gaussian 16 at Mon Nov 25 02:53:52 2024.
