 Gaussian 16, Revision A.03,
 Gaussian 16:  ES64L-G16RevA.03 25-Dec-2016

 --------------------------------------------
 #p opt UM062X/6-311+G** nosymm int=superfine
 --------------------------------------------

 -------------------
 Title Card Required
 -------------------
 Symbolic Z-matrix:
 Charge =  0 Multiplicity = 1

 SCF Done:  E(UM062X) =  -379.638501127     A.U. after   15 cycles
 SCF Done:  E(UM062X) =  -379.639457219     A.U. after   10 cycles
 SCF Done:  E(UM062X) =  -379.639459358     A.U. after    9 cycles
 Optimization completed.
    -- Stationary point found.

                          Input orientation:
 ---------------------------------------------------------------------
 Center     Atomic      Atomic             Coordinates (Angstroms)
 Number     Number       Type             X           Y           Z
 ---------------------------------------------------------------------
      1          6           0       -1.390377    0.000000    0.000000
      2         15           0        1.390377    0.000000    0.000000
      3          1           0       -2.503631   -0.000000    0.000000
 ---------------------------------------------------------------------

 Alpha  occ. eigenvalues --  -78.09798 -10.70270  -6.91442  -5.03186  -5.02481
 Alpha  occ. eigenvalues --   -5.02481  -0.75214  -0.62274  -0.41639  -0.25901
 Alpha  occ. eigenvalues --   -0.25901
 Alpha virt. eigenvalues --   -0.13227  -0.13227  -0.10413   0.01453   0.03962
 Alpha virt. eigenvalues --    0.05791   0.05791   0.07423   0.09356   0.09356
 Alpha virt. eigenvalues --    0.14789   0.19150   0.31436   0.32735   0.32735

  Beta  occ. eigenvalues --  -78.09798 -10.70270  -6.91442  -5.03186  -5.02481
  Beta  occ. eigenvalues --   -5.02481  -0.75214  -0.62274  -0.41639  -0.25901
  Beta  occ. eigenvalues --   -0.25901
  Beta virt. eigenvalues --   -0.13227  -0.13227  -0.10413   0.01453   0.03962
  Beta virt. eigenvalues --    0.05791   0.05791   0.07423   0.09356   0.09356
  Beta virt. eigenvalues --    0.14789   0.19150   0.31436   0.32735   0.32735

 Mulliken charges and spin densities:
               1          2
     1  C   -0.266029   0.000000
     2  P    0.067982  -0.000000
     3  H    0.198047  -0.000000
 Sum of Mulliken charges =  -0.00000   0.00000

 Dipole moment (field-independent basis, Debye):
    X=             -1.3659    Y=             -0.0000    Z=              0.0000  Tot=              1.3659
 Quadrupole moment (field-independent basis, Debye-Ang):
   XX=            -11.2794   YY=            -23.6750   ZZ=            -23.6750
   XY=             -0.0000   XZ=              0.0000   YZ=             -0.0000

 Normal termination of Gaussian 16 at Mon Apr 21 19:30:07 2025.
