 Gaussian 16, Revision A.03,
 Gaussian 16:  ES64L-G16RevA.03 25-Dec-2016

 ---------------------------------------------------
 #p UM062X/6-311+G** force int=superfine pop=saveNBO
 ---------------------------------------------------

 -------------------
 Title Card Required
 -------------------
 Symbolic Z-matrix:
 Charge =  0 Multiplicity = 1

                         Standard orientation:
 ---------------------------------------------------------------------
 Center     Atomic      Atomic             Coordinates (Angstroms)
 Number     Number       Type             X           Y           Z
 ---------------------------------------------------------------------
      1         15           0        0.000000    0.000000    1.538495
      2         15           0        0.000000    0.000000   -1.538495
 ---------------------------------------------------------------------

 SCF Done:  E(UM062X) =  -682.407496864     A.U. after    9 cycles

 The electronic state is 1-SGG.
 Alpha  occ. eigenvalues --  -78.11922 -78.11922  -6.93454  -6.93453  -5.04768
 Alpha  occ. eigenvalues --   -5.04768  -5.04768  -5.04768  -5.04721  -5.04720
 Alpha  occ. eigenvalues --   -0.65891  -0.61625  -0.30410  -0.26905  -0.26905
 Alpha virt. eigenvalues --   -0.15440  -0.15440  -0.10392   0.02435   0.03375
 Alpha virt. eigenvalues --    0.04595   0.04595   0.06142   0.06549   0.06549
 Alpha virt. eigenvalues --    0.11455   0.28770   0.29937   0.29937   0.33173

  Beta  occ. eigenvalues --  -78.11922 -78.11922  -6.93454  -6.93453  -5.04768
  Beta  occ. eigenvalues --   -5.04768  -5.04768  -5.04768  -5.04721  -5.04720
  Beta  occ. eigenvalues --   -0.65891  -0.61625  -0.30410  -0.26905  -0.26905
  Beta virt. eigenvalues --   -0.15440  -0.15440  -0.10392   0.02435   0.03375
  Beta virt. eigenvalues --    0.04595   0.04595   0.06142   0.06549   0.06549
  Beta virt. eigenvalues --    0.11455   0.28770   0.29937   0.29937   0.33173

 Mulliken charges and spin densities:
               1          2
     1  P   -0.000000   0.000000
     2  P   -0.000000   0.000000
 Sum of Mulliken charges =  -0.00000   0.00000

 Dipole moment (field-independent basis, Debye):
    X=             -0.0000    Y=              0.0000    Z=             -0.0000  Tot=              0.0000
 Quadrupole moment (field-independent basis, Debye-Ang):
   XX=            -29.2146   YY=            -29.2146   ZZ=            -24.7264
   XY=              0.0000   XZ=             -0.0000   YZ=              0.0000

 Summary of Natural Population Analysis:

                                       Natural Population
                Natural  -----------------------------------------------
    Atom  No    Charge         Core      Valence    Rydberg      Total
 -----------------------------------------------------------------------
      P    1   -0.00000      4.99999     2.49896    0.00105     7.50000
      P    2   -0.00000      4.99999     2.49896    0.00105     7.50000
 =======================================================================
   * Total *   -0.00000      9.99997     4.99792    0.00211    15.00000

 Normal termination of Gaussian 16 at Mon Apr 21 21:38:10 2025.
