 Gaussian 16, Revision A.03,
 Gaussian 16:  ES64L-G16RevA.03 25-Dec-2016

 ---------------------------------------
 #p UM062X/6-311+G** force int=superfine
 ---------------------------------------

 -------------------
 Title Card Required
 -------------------
 Symbolic Z-matrix:
 Charge =  1 Multiplicity = 2

                         Standard orientation:
 ---------------------------------------------------------------------
 Center     Atomic      Atomic             Coordinates (Angstroms)
 Number     Number       Type             X           Y           Z
 ---------------------------------------------------------------------
      1          6           0        1.097505   -0.590913    1.044751
      2          6           0       -1.097501    0.590921   -1.044746
      3          1           0       -0.339425    0.799025   -1.791363
      4          1           0        1.400498   -1.368342    0.352491
      5          1           0       -1.401202    1.368480   -0.352943
      6          1           0       -1.638978   -0.347929   -1.072767
      7          1           0        0.339478   -0.798849    1.791465
      8          1           0        1.639604    0.347567    1.073086
 ---------------------------------------------------------------------

 SCF Done:  E(UM062X) =  -79.3324957611     A.U. after   10 cycles

 The electronic state is 2-A.
 Alpha  occ. eigenvalues --  -10.84746 -10.84744  -1.03515  -1.02465  -0.74310
 Alpha  occ. eigenvalues --   -0.74309  -0.73830  -0.73830  -0.51227
 Alpha virt. eigenvalues --   -0.36193  -0.13703  -0.10198  -0.10135  -0.10135
 Alpha virt. eigenvalues --   -0.06243  -0.06243  -0.04961  -0.03276  -0.01609
 Alpha virt. eigenvalues --   -0.01606   0.01284   0.01287   0.04426   0.07821

  Beta  occ. eigenvalues --  -10.84544 -10.84544  -1.00736  -1.00036  -0.73791
  Beta  occ. eigenvalues --   -0.73790  -0.73320  -0.73319
  Beta virt. eigenvalues --   -0.32620  -0.26007  -0.15490  -0.11140  -0.11139
  Beta virt. eigenvalues --   -0.10043  -0.06375  -0.06375  -0.05247  -0.02377
  Beta virt. eigenvalues --   -0.01932  -0.01929   0.01584   0.01586   0.05280

 Mulliken charges and spin densities:
               1          2
     1  C   -0.269274   0.564267
     2  C   -0.269276   0.564269
     3  H    0.256453  -0.021415
     4  H    0.256399  -0.021425
     5  H    0.256425  -0.021424
     6  H    0.256397  -0.021429
     7  H    0.256454  -0.021415
     8  H    0.256422  -0.021428
 Sum of Mulliken charges =   1.00000   1.00000

 Dipole moment (field-independent basis, Debye):
    X=             -0.0000    Y=             -0.0001    Z=             -0.0000  Tot=              0.0001
 Quadrupole moment (field-independent basis, Debye-Ang):
   XX=             -5.2879   YY=             -9.3845   ZZ=             -5.8262
   XY=             -3.1074   XZ=              5.4943   YZ=             -2.9589

 Normal termination of Gaussian 16 at Wed Nov 13 12:59:25 2024.
