 Gaussian 16, Revision A.03,
 Gaussian 16:  ES64L-G16RevA.03 25-Dec-2016

 --------------------------------------------
 #p opt UM062X/6-311+G** nosymm int=superfine
 --------------------------------------------

 -------------------
 Title Card Required
 -------------------
 Symbolic Z-matrix:
 Charge =  0 Multiplicity = 1

 SCF Done:  E(UM062X) =  -684.924285752     A.U. after   11 cycles
 SCF Done:  E(UM062X) =  -684.925235525     A.U. after   10 cycles
 SCF Done:  E(UM062X) =  -684.925998985     A.U. after   11 cycles
 SCF Done:  E(UM062X) =  -684.926436549     A.U. after   10 cycles
 SCF Done:  E(UM062X) =  -684.926578562     A.U. after   10 cycles
 SCF Done:  E(UM062X) =  -684.926632255     A.U. after   12 cycles
 SCF Done:  E(UM062X) =  -684.926648649     A.U. after   10 cycles
 SCF Done:  E(UM062X) =  -684.926675356     A.U. after   12 cycles
 SCF Done:  E(UM062X) =  -684.926705852     A.U. after   10 cycles
 SCF Done:  E(UM062X) =  -684.926723564     A.U. after   12 cycles
 SCF Done:  E(UM062X) =  -684.926750394     A.U. after   10 cycles
 SCF Done:  E(UM062X) =  -684.926793665     A.U. after   14 cycles
 SCF Done:  E(UM062X) =  -684.926814204     A.U. after   12 cycles
 SCF Done:  E(UM062X) =  -684.926846152     A.U. after   12 cycles
 SCF Done:  E(UM062X) =  -684.926840625     A.U. after   14 cycles
 SCF Done:  E(UM062X) =  -684.926860820     A.U. after   14 cycles
 SCF Done:  E(UM062X) =  -684.926861323     A.U. after   10 cycles
 SCF Done:  E(UM062X) =  -684.926863410     A.U. after   11 cycles
 SCF Done:  E(UM062X) =  -684.926863609     A.U. after    9 cycles
 SCF Done:  E(UM062X) =  -684.926863622     A.U. after    8 cycles
 Optimization completed.
    -- Stationary point found.

                          Input orientation:
 ---------------------------------------------------------------------
 Center     Atomic      Atomic             Coordinates (Angstroms)
 Number     Number       Type             X           Y           Z
 ---------------------------------------------------------------------
      1         15           0       -2.117217    0.000000    0.000000
      2         15           0        2.117217    0.000000    0.000000
      3          1           0        2.024402   -1.041456    0.958842
      4          1           0       -2.023230    1.098095    0.893413
      5          1           0        2.026682   -0.919713   -1.076669
      6          1           0       -2.026797    0.852269   -1.130711
 ---------------------------------------------------------------------

 Alpha  occ. eigenvalues --  -78.05067 -78.05067  -6.87452  -6.87451  -4.99002
 Alpha  occ. eigenvalues --   -4.99002  -4.98875  -4.98875  -4.98692  -4.98692
 Alpha  occ. eigenvalues --   -0.71231  -0.70801  -0.45112  -0.44932  -0.36273
 Alpha  occ. eigenvalues --   -0.36090  -0.24870
 Alpha virt. eigenvalues --   -0.14579   0.01631   0.02882   0.03222   0.04042
 Alpha virt. eigenvalues --    0.04845   0.05965   0.06086   0.06125   0.06245
 Alpha virt. eigenvalues --    0.08024   0.13878   0.18545   0.28550   0.29194

  Beta  occ. eigenvalues --  -78.05067 -78.05067  -6.87452  -6.87451  -4.99002
  Beta  occ. eigenvalues --   -4.99002  -4.98875  -4.98875  -4.98692  -4.98692
  Beta  occ. eigenvalues --   -0.71231  -0.70801  -0.45112  -0.44932  -0.36273
  Beta  occ. eigenvalues --   -0.36090  -0.24870
  Beta virt. eigenvalues --   -0.14579   0.01631   0.02882   0.03222   0.04042
  Beta virt. eigenvalues --    0.04845   0.05965   0.06086   0.06125   0.06245
  Beta virt. eigenvalues --    0.08024   0.13878   0.18545   0.28550   0.29194

 Mulliken charges and spin densities:
               1          2
     1  P   -0.006913   0.000003
     2  P   -0.006980  -0.000003
     3  H    0.004062   0.000000
     4  H    0.004071  -0.000000
     5  H    0.002887   0.000000
     6  H    0.002874  -0.000000
 Sum of Mulliken charges =   0.00000  -0.00000

 Dipole moment (field-independent basis, Debye):
    X=              0.0002    Y=             -0.0049    Z=             -0.1599  Tot=              0.1600
 Quadrupole moment (field-independent basis, Debye-Ang):
   XX=            -28.5861   YY=            -31.2391   ZZ=            -28.5577
   XY=             -4.2973   XZ=              0.1326   YZ=              0.0820

 Normal termination of Gaussian 16 at Mon Apr 21 20:56:04 2025.
