 Gaussian 16, Revision A.03,
 Gaussian 16:  ES64L-G16RevA.03 25-Dec-2016

 ----------------------------------------------------------------------
 #p UM062X/6-311+G** force int=superfine SCF=(MaxCycle=200,NoVarAcc,noi
 ncfock) guess=read
 ----------------------------------------------------------------------

 -------------------
 Title Card Required
 -------------------
 Symbolic Z-matrix:
 Charge =  0 Multiplicity = 1

                         Standard orientation:
 ---------------------------------------------------------------------
 Center     Atomic      Atomic             Coordinates (Angstroms)
 Number     Number       Type             X           Y           Z
 ---------------------------------------------------------------------
      1          6           0        0.000000    0.000000   -2.529885
      2         16           0        0.000000    0.000000    0.948707
 ---------------------------------------------------------------------

 SCF Done:  E(UM062X) =  -435.833794337     A.U. after    9 cycles

 The electronic state is 1-SG.
 Alpha  occ. eigenvalues --  -89.92860 -10.76103  -8.28883  -6.21595  -6.20138
 Alpha  occ. eigenvalues --   -6.20138  -0.73353  -0.68110  -0.32226  -0.30702
 Alpha  occ. eigenvalues --   -0.30702
 Alpha virt. eigenvalues --   -0.15675  -0.14319  -0.14319   0.03262   0.05086
 Alpha virt. eigenvalues --    0.05881   0.05881   0.08668   0.08668   0.08886
 Alpha virt. eigenvalues --    0.13877   0.35642   0.36525   0.36525   0.53325

  Beta  occ. eigenvalues --  -89.92860 -10.76103  -8.28883  -6.21595  -6.20138
  Beta  occ. eigenvalues --   -6.20138  -0.73353  -0.68110  -0.32226  -0.30702
  Beta  occ. eigenvalues --   -0.30702
  Beta virt. eigenvalues --   -0.15675  -0.14319  -0.14319   0.03262   0.05086
  Beta virt. eigenvalues --    0.05881   0.05881   0.08668   0.08668   0.08886
  Beta virt. eigenvalues --    0.13877   0.35642   0.36525   0.36525   0.53325

 Mulliken charges and spin densities:
               1          2
     1  C    0.135008  -0.000000
     2  S   -0.135008  -0.000000
 Sum of Mulliken charges =   0.00000  -0.00000

 Dipole moment (field-independent basis, Debye):
    X=              0.0000    Y=              0.0000    Z=             -2.3280  Tot=              2.3280
 Quadrupole moment (field-independent basis, Debye-Ang):
   XX=            -20.6585   YY=            -20.6585   ZZ=            -14.8358
   XY=              0.0000   XZ=              0.0000   YZ=              0.0000

 Normal termination of Gaussian 16 at Tue Apr 22 01:21:49 2025.
