 Gaussian 16, Revision A.03,
 Gaussian 16:  ES64L-G16RevA.03 25-Dec-2016

 --------------------------------------------
 #p opt UM062X/6-311+G** nosymm int=superfine
 --------------------------------------------

 -------------------
 Title Card Required
 -------------------
 Symbolic Z-matrix:
 Charge =  0 Multiplicity = 1

 SCF Done:  E(UM062X) =  -93.0694244781     A.U. after   11 cycles
 SCF Done:  E(UM062X) =  -93.0699857954     A.U. after   10 cycles
 Optimization completed.
    -- Stationary point found.

                          Input orientation:
 ---------------------------------------------------------------------
 Center     Atomic      Atomic             Coordinates (Angstroms)
 Number     Number       Type             X           Y           Z
 ---------------------------------------------------------------------
      1          6           0       -0.922395    0.000000    0.000000
      2          7           0        0.922395    0.000000    0.000000
      3          1           0       -2.019299   -0.000000    0.000000
 ---------------------------------------------------------------------

 Alpha  occ. eigenvalues --  -14.89505 -10.72407  -0.86017  -0.75013  -0.45827
 Alpha  occ. eigenvalues --   -0.33601  -0.33601
 Alpha virt. eigenvalues --   -0.11024  -0.11024  -0.03902   0.01889   0.06800
 Alpha virt. eigenvalues --    0.07257   0.07257   0.13659   0.17000   0.17000
 Alpha virt. eigenvalues --    0.21641   0.27126   0.48527   0.55093   0.55093

  Beta  occ. eigenvalues --  -14.89505 -10.72407  -0.86017  -0.75013  -0.45827
  Beta  occ. eigenvalues --   -0.33601  -0.33601
  Beta virt. eigenvalues --   -0.11024  -0.11024  -0.03902   0.01889   0.06800
  Beta virt. eigenvalues --    0.07257   0.07257   0.13659   0.17000   0.17000
  Beta virt. eigenvalues --    0.21641   0.27126   0.48527   0.55093   0.55093

 Mulliken charges and spin densities:
               1          2
     1  C   -0.175886   0.000000
     2  N   -0.063466  -0.000000
     3  H    0.239352  -0.000000
 Sum of Mulliken charges =  -0.00000  -0.00000

 Dipole moment (field-independent basis, Debye):
    X=             -3.1855    Y=             -0.0000    Z=              0.0000  Tot=              3.1855
 Quadrupole moment (field-independent basis, Debye-Ang):
   XX=             -7.4986   YY=            -13.8362   ZZ=            -13.8362
   XY=              0.0000   XZ=             -0.0000   YZ=             -0.0000

 Normal termination of Gaussian 16 at Mon Apr 21 18:35:26 2025.
