 Gaussian 16, Revision A.03,
 Gaussian 16:  ES64L-G16RevA.03 25-Dec-2016

 --------------------------------------------
 #p opt UM062X/6-311+G** nosymm int=superfine
 --------------------------------------------

 -------------------
 Title Card Required
 -------------------
 Symbolic Z-matrix:
 Charge =  0 Multiplicity = 1

 SCF Done:  E(UM062X) =  -437.161975597     A.U. after   16 cycles
 SCF Done:  E(UM062X) =  -437.164161044     A.U. after    9 cycles
 SCF Done:  E(UM062X) =  -437.164918040     A.U. after   15 cycles
 SCF Done:  E(UM062X) =  -437.164918805     A.U. after   15 cycles
 Optimization completed.
    -- Stationary point found.

                          Input orientation:
 ---------------------------------------------------------------------
 Center     Atomic      Atomic             Coordinates (Angstroms)
 Number     Number       Type             X           Y           Z
 ---------------------------------------------------------------------
      1          6           0       -1.927140    0.000000    0.000000
      2         16           0        1.927140    0.000000    0.000000
      3          1           0       -2.605583   -0.872479   -0.000074
      4          1           0       -2.606528    0.871744   -0.000201
 ---------------------------------------------------------------------

 Alpha  occ. eigenvalues --  -89.93778 -10.63463  -8.29810  -6.22586  -6.21025
 Alpha  occ. eigenvalues --   -6.21023  -0.77761  -0.73927  -0.50154  -0.33624
 Alpha  occ. eigenvalues --   -0.31295  -0.31283
 Alpha virt. eigenvalues --   -0.16250  -0.10208   0.01281   0.04827   0.05416
 Alpha virt. eigenvalues --    0.06554   0.08094   0.08851   0.09096   0.14007
 Alpha virt. eigenvalues --    0.17162   0.18246   0.35302   0.36676   0.36857

  Beta  occ. eigenvalues --  -89.93778 -10.63463  -8.29810  -6.22586  -6.21025
  Beta  occ. eigenvalues --   -6.21023  -0.77761  -0.73927  -0.50154  -0.33624
  Beta  occ. eigenvalues --   -0.31295  -0.31283
  Beta virt. eigenvalues --   -0.16250  -0.10208   0.01281   0.04827   0.05416
  Beta virt. eigenvalues --    0.06554   0.08094   0.08851   0.09096   0.14007
  Beta virt. eigenvalues --    0.17162   0.18246   0.35302   0.36676   0.36857

 Mulliken charges and spin densities:
               1          2
     1  C   -0.277836   0.000000
     2  S   -0.017623  -0.000000
     3  H    0.147725   0.000000
     4  H    0.147735  -0.000000
 Sum of Mulliken charges =  -0.00000  -0.00000

 Dipole moment (field-independent basis, Debye):
    X=             -2.9432    Y=             -0.0011    Z=             -0.0004  Tot=              2.9432
 Quadrupole moment (field-independent basis, Debye-Ang):
   XX=            -10.6687   YY=            -22.3530   ZZ=            -21.7936
   XY=              0.0002   XZ=             -0.0001   YZ=              0.0000

 Normal termination of Gaussian 16 at Mon Apr 21 19:40:18 2025.
