 Gaussian 16, Revision A.03,
 Gaussian 16:  ES64L-G16RevA.03 25-Dec-2016

 --------------------------------------------
 #p opt UM062X/6-311+G** nosymm int=superfine
 --------------------------------------------

 -------------------
 Title Card Required
 -------------------
 Symbolic Z-matrix:
 Charge =  0 Multiplicity = 1

 SCF Done:  E(UM062X) =  -95.6351723060     A.U. after   13 cycles
 SCF Done:  E(UM062X) =  -95.6525083051     A.U. after   11 cycles
 SCF Done:  E(UM062X) =  -95.6628714350     A.U. after   12 cycles
 SCF Done:  E(UM062X) =  -95.6630510228     A.U. after   10 cycles
 SCF Done:  E(UM062X) =  -95.6630941571     A.U. after   10 cycles
 SCF Done:  E(UM062X) =  -95.6631104310     A.U. after   12 cycles
 SCF Done:  E(UM062X) =  -95.6631137245     A.U. after    9 cycles
 SCF Done:  E(UM062X) =  -95.6631155134     A.U. after    9 cycles
 SCF Done:  E(UM062X) =  -95.6631156485     A.U. after    8 cycles
 Optimization completed.
    -- Stationary point found.

                          Input orientation:
 ---------------------------------------------------------------------
 Center     Atomic      Atomic             Coordinates (Angstroms)
 Number     Number       Type             X           Y           Z
 ---------------------------------------------------------------------
      1          6           0       -1.430542    0.000000    0.000000
      2          7           0        1.430542    0.000000    0.000000
      3          1           0        1.426447   -1.016021    0.138125
      4          1           0       -1.493192    1.078446    0.004409
      5          1           0        1.426376    0.367423    0.957275
      6          1           0       -1.493130   -0.520689   -0.944435
      7          1           0       -1.599726   -0.544805    0.918179
 ---------------------------------------------------------------------

 Alpha  occ. eigenvalues --  -14.75137 -10.61188  -0.90306  -0.79826  -0.51959
 Alpha  occ. eigenvalues --   -0.51855  -0.50574  -0.36019  -0.27951
 Alpha virt. eigenvalues --   -0.10040   0.01676   0.04878   0.05386   0.06802
 Alpha virt. eigenvalues --    0.10266   0.13343   0.15972   0.16694   0.17528
 Alpha virt. eigenvalues --    0.19672   0.21445   0.22229   0.30813   0.41353

  Beta  occ. eigenvalues --  -14.75137 -10.61188  -0.90306  -0.79826  -0.51959
  Beta  occ. eigenvalues --   -0.51855  -0.50574  -0.36019  -0.27951
  Beta virt. eigenvalues --   -0.10040   0.01676   0.04878   0.05386   0.06802
  Beta virt. eigenvalues --    0.10266   0.13343   0.15972   0.16694   0.17528
  Beta virt. eigenvalues --    0.19672   0.21445   0.22229   0.30813   0.41353

 Mulliken charges and spin densities:
               1          2
     1  C   -0.427927  -0.000000
     2  N   -0.596094   0.000000
     3  H    0.222188  -0.000000
     4  H    0.198502   0.000000
     5  H    0.222186  -0.000000
     6  H    0.198530   0.000000
     7  H    0.182615   0.000000
 Sum of Mulliken charges =  -0.00000   0.00000

 Dipole moment (field-independent basis, Debye):
    X=             -2.6113    Y=             -0.9623    Z=              1.6252  Tot=              3.2228
 Quadrupole moment (field-independent basis, Debye-Ang):
   XX=            -15.2241   YY=            -13.3437   ZZ=            -14.1522
   XY=             -1.5421   XZ=              2.6043   YZ=              0.7372

 Normal termination of Gaussian 16 at Mon Apr 21 18:14:03 2025.
