 Gaussian 16, Revision A.03,
 Gaussian 16:  ES64L-G16RevA.03 25-Dec-2016

 --------------------------------------------
 #p opt UM062X/6-311+G** nosymm int=superfine
 --------------------------------------------

 -------------------
 Title Card Required
 -------------------
 Symbolic Z-matrix:
 Charge =  0 Multiplicity = 1

 SCF Done:  E(UM062X) =  -79.5740733907     A.U. after    9 cycles
 SCF Done:  E(UM062X) =  -79.6166647827     A.U. after    8 cycles
 SCF Done:  E(UM062X) =  -79.6642674790     A.U. after   10 cycles
 SCF Done:  E(UM062X) =  -79.6810839085     A.U. after   10 cycles
 SCF Done:  E(UM062X) =  -79.6822821194     A.U. after    8 cycles
 Optimization completed.
    -- Stationary point found.

                          Input orientation:
 ---------------------------------------------------------------------
 Center     Atomic      Atomic             Coordinates (Angstroms)
 Number     Number       Type             X           Y           Z
 ---------------------------------------------------------------------
      1          6           0       -1.221675    0.000000    0.000000
      2          6           0        1.221800    0.000000    0.000000
      3          1           0        1.431520   -0.918171    0.531301
      4          1           0       -1.431368   -0.919210   -0.529507
      5          1           0        1.431498    0.919211    0.529505
      6          1           0        1.431514   -0.001031   -1.060801
      7          1           0       -1.431395    0.918170   -0.531302
      8          1           0       -1.431396    0.001030    1.060801
 ---------------------------------------------------------------------

 Alpha  occ. eigenvalues --  -10.55723 -10.55718  -0.77461  -0.74212  -0.48306
 Alpha  occ. eigenvalues --   -0.48306  -0.46380  -0.46380  -0.28255
 Alpha virt. eigenvalues --   -0.01765   0.02548   0.05519   0.05519   0.06944
 Alpha virt. eigenvalues --    0.08230   0.08230   0.10135   0.12976   0.18182
 Alpha virt. eigenvalues --    0.18182   0.22039   0.22039   0.24376   0.26151

  Beta  occ. eigenvalues --  -10.55723 -10.55718  -0.77461  -0.74212  -0.48306
  Beta  occ. eigenvalues --   -0.48306  -0.46380  -0.46380  -0.28255
  Beta virt. eigenvalues --   -0.01765   0.02548   0.05519   0.05519   0.06944
  Beta virt. eigenvalues --    0.08230   0.08230   0.10135   0.12976   0.18182
  Beta virt. eigenvalues --    0.18182   0.22039   0.22039   0.24376   0.26151

 Mulliken charges and spin densities:
               1          2
     1  C   -0.510585  -0.000000
     2  C   -0.510585   0.000000
     3  H    0.170195  -0.000000
     4  H    0.170196  -0.000000
     5  H    0.170196   0.000000
     6  H    0.170195   0.000000
     7  H    0.170195   0.000000
     8  H    0.170195  -0.000000
 Sum of Mulliken charges =  -0.00000   0.00000

 Dipole moment (field-independent basis, Debye):
    X=             -0.0000    Y=             -0.0000    Z=             -0.0000  Tot=              0.0000
 Quadrupole moment (field-independent basis, Debye-Ang):
   XX=            -15.5259   YY=            -14.8023   ZZ=            -14.8024
   XY=             -0.0000   XZ=             -0.0000   YZ=             -0.0000

 Normal termination of Gaussian 16 at Tue Nov 19 12:24:06 2024.
