 Gaussian 16, Revision A.03,
 Gaussian 16:  ES64L-G16RevA.03 25-Dec-2016

 --------------------------------------------
 #p opt UM062X/6-311+G** nosymm int=superfine
 --------------------------------------------

 -------------------
 Title Card Required
 -------------------
 Symbolic Z-matrix:
 Charge =  0 Multiplicity = 1

 SCF Done:  E(UM062X) =  -79.5752144597     A.U. after   10 cycles
 SCF Done:  E(UM062X) =  -79.5788434674     A.U. after    9 cycles
 SCF Done:  E(UM062X) =  -79.5802932706     A.U. after    9 cycles
 SCF Done:  E(UM062X) =  -79.5803020801     A.U. after    9 cycles
 Optimization completed.
    -- Stationary point found.

                          Input orientation:
 ---------------------------------------------------------------------
 Center     Atomic      Atomic             Coordinates (Angstroms)
 Number     Number       Type             X           Y           Z
 ---------------------------------------------------------------------
      1          6           0       -1.896675    0.000000    0.000000
      2          6           0        1.896800    0.000000    0.000000
      3          1           0        1.961348   -0.933071    0.539920
      4          1           0       -1.961208   -0.934124   -0.538098
      5          1           0        1.961337    0.934124    0.538097
      6          1           0        1.961339   -0.001052   -1.078024
      7          1           0       -1.961223    0.933071   -0.539919
      8          1           0       -1.961217    0.001051    1.078024
 ---------------------------------------------------------------------

 Alpha  occ. eigenvalues --  -10.57231 -10.57229  -0.77088  -0.76701  -0.49209
 Alpha  occ. eigenvalues --   -0.49209  -0.49042  -0.49041  -0.21987
 Alpha virt. eigenvalues --   -0.10957   0.03107   0.05059   0.05309   0.05309
 Alpha virt. eigenvalues --    0.07461   0.07461   0.11421   0.12556   0.18613
 Alpha virt. eigenvalues --    0.18613   0.20326   0.20326   0.22462   0.25014

  Beta  occ. eigenvalues --  -10.57231 -10.57229  -0.77088  -0.76701  -0.49209
  Beta  occ. eigenvalues --   -0.49209  -0.49042  -0.49041  -0.21987
  Beta virt. eigenvalues --   -0.10957   0.03107   0.05059   0.05309   0.05309
  Beta virt. eigenvalues --    0.07461   0.07461   0.11421   0.12556   0.18613
  Beta virt. eigenvalues --    0.18613   0.20326   0.20326   0.22462   0.25014

 Mulliken charges and spin densities:
               1          2
     1  C   -0.525553   0.000001
     2  C   -0.525553  -0.000001
     3  H    0.175184   0.000000
     4  H    0.175185  -0.000000
     5  H    0.175185   0.000000
     6  H    0.175184   0.000000
     7  H    0.175184  -0.000000
     8  H    0.175184  -0.000000
 Sum of Mulliken charges =  -0.00000  -0.00000

 Dipole moment (field-independent basis, Debye):
    X=              0.0000    Y=             -0.0000    Z=             -0.0000  Tot=              0.0000
 Quadrupole moment (field-independent basis, Debye-Ang):
   XX=            -15.6399   YY=            -14.8605   ZZ=            -14.8605
   XY=             -0.0000   XZ=              0.0000   YZ=             -0.0000

 Normal termination of Gaussian 16 at Tue Dec  3 10:06:38 2024.
