 Gaussian 16, Revision A.03,
 Gaussian 16:  ES64L-G16RevA.03 25-Dec-2016

 --------------------------------------------
 #p opt UM062X/6-311+G** nosymm int=superfine
 --------------------------------------------

 -------------------
 Title Card Required
 -------------------
 Symbolic Z-matrix:
 Charge =  0 Multiplicity = 1

 SCF Done:  E(UM062X) =  -94.2526279063     A.U. after   12 cycles
 SCF Done:  E(UM062X) =  -94.2560976754     A.U. after   11 cycles
 SCF Done:  E(UM062X) =  -94.2576852635     A.U. after   17 cycles
 SCF Done:  E(UM062X) =  -94.2580050838     A.U. after   10 cycles
 SCF Done:  E(UM062X) =  -94.2590660014     A.U. after   17 cycles
 SCF Done:  E(UM062X) =  -94.2603139642     A.U. after   19 cycles
 SCF Done:  E(UM062X) =  -94.2605605120     A.U. after   19 cycles
 SCF Done:  E(UM062X) =  -94.2606006736     A.U. after   38 cycles
 SCF Done:  E(UM062X) =  -94.2606377305     A.U. after   31 cycles
 SCF Done:  E(UM062X) =  -94.2606396540     A.U. after   29 cycles
 SCF Done:  E(UM062X) =  -94.2607085251     A.U. after   21 cycles
 SCF Done:  E(UM062X) =  -94.2604678718     A.U. after   52 cycles
 SCF Done:  E(UM062X) =  -94.2608242187     A.U. after   32 cycles
 SCF Done:  E(UM062X) =  -94.2608878775     A.U. after   49 cycles
 SCF Done:  E(UM062X) =  -94.2610480547     A.U. after   28 cycles
 SCF Done:  E(UM062X) =  -94.2611172212     A.U. after   50 cycles
 SCF Done:  E(UM062X) =  -94.2611840194     A.U. after   26 cycles
 SCF Done:  E(UM062X) =  -94.2611865687     A.U. after   13 cycles
 SCF Done:  E(UM062X) =  -94.2611876766     A.U. after    9 cycles
 SCF Done:  E(UM062X) =  -94.2611877181     A.U. after   27 cycles
 Optimization completed.
    -- Stationary point found.

                          Input orientation:
 ---------------------------------------------------------------------
 Center     Atomic      Atomic             Coordinates (Angstroms)
 Number     Number       Type             X           Y           Z
 ---------------------------------------------------------------------
      1          6           0       -1.756637    0.000000   -0.000000
      2          7           0        1.756637   -0.000000    0.000000
      3          1           0       -2.444690   -0.864585   -0.050304
      4          1           0        0.714457   -0.000000   -0.000000
      5          1           0       -2.444805    0.864506    0.050031
 ---------------------------------------------------------------------

 Alpha  occ. eigenvalues --  -14.80671 -10.63077  -0.87107  -0.77759  -0.49915
 Alpha  occ. eigenvalues --   -0.44374  -0.33876  -0.31715
 Alpha virt. eigenvalues --   -0.10727  -0.10350   0.01072   0.05263   0.06809
 Alpha virt. eigenvalues --    0.07364   0.13626   0.14128   0.15986   0.17628
 Alpha virt. eigenvalues --    0.18120   0.18587   0.24084   0.42658   0.46417

  Beta  occ. eigenvalues --  -14.80671 -10.63077  -0.87107  -0.77759  -0.49915
  Beta  occ. eigenvalues --   -0.44374  -0.33876  -0.31715
  Beta virt. eigenvalues --   -0.10727  -0.10350   0.01072   0.05263   0.06809
  Beta virt. eigenvalues --    0.07364   0.13626   0.14128   0.15986   0.17628
  Beta virt. eigenvalues --    0.18120   0.18587   0.24084   0.42658   0.46417

 Mulliken charges and spin densities:
               1          2
     1  C   -0.319377  -0.000000
     2  N   -0.260464   0.000000
     3  H    0.149476   0.000000
     4  H    0.280886  -0.000000
     5  H    0.149479   0.000000
 Sum of Mulliken charges =  -0.00000  -0.00000

 Dipole moment (field-independent basis, Debye):
    X=             -4.2558    Y=             -0.0001    Z=             -0.0004  Tot=              4.2558
 Quadrupole moment (field-independent basis, Debye-Ang):
   XX=            -13.8434   YY=            -12.2126   ZZ=            -14.9187
   XY=              0.0001   XZ=              0.0003   YZ=              0.1516

 Normal termination of Gaussian 16 at Mon Apr 21 18:34:11 2025.
