 Gaussian 16, Revision A.03,
 Gaussian 16:  ES64L-G16RevA.03 25-Dec-2016

 --------------------------------------------
 #p opt UM062X/6-311+G** nosymm int=superfine
 --------------------------------------------

 -------------------
 Title Card Required
 -------------------
 Symbolic Z-matrix:
 Charge =  0 Multiplicity = 1

 SCF Done:  E(UM062X) =  -151.293700371     A.U. after   23 cycles
 SCF Done:  E(UM062X) =  -151.293985367     A.U. after   22 cycles
 SCF Done:  E(UM062X) =  -151.294167851     A.U. after   22 cycles
 SCF Done:  E(UM062X) =  -151.294444822     A.U. after   26 cycles
 SCF Done:  E(UM062X) =  -151.294577125     A.U. after   23 cycles
 SCF Done:  E(UM062X) =  -151.294772573     A.U. after   24 cycles
 SCF Done:  E(UM062X) =  -151.294863311     A.U. after   23 cycles
 SCF Done:  E(UM062X) =  -151.295006388     A.U. after   25 cycles
 SCF Done:  E(UM062X) =  -151.295061739     A.U. after   22 cycles
 SCF Done:  E(UM062X) =  -151.295100540     A.U. after   21 cycles
 SCF Done:  E(UM062X) =  -151.295102846     A.U. after   20 cycles
 SCF Done:  E(UM062X) =  -151.295102898     A.U. after   31 cycles
 Optimization completed.
    -- Stationary point found.

                          Input orientation:
 ---------------------------------------------------------------------
 Center     Atomic      Atomic             Coordinates (Angstroms)
 Number     Number       Type             X           Y           Z
 ---------------------------------------------------------------------
      1          8           0       -2.211938    0.000000    0.000000
      2          8           0        2.211938    0.000000    0.000000
      3          1           0       -2.023894   -0.751553   -0.589452
      4          1           0        2.023905    0.752524    0.588218
 ---------------------------------------------------------------------

 Alpha  occ. eigenvalues --  -19.72062 -19.72062  -1.12758  -1.12670  -0.56541
 Alpha  occ. eigenvalues --   -0.56519  -0.43951  -0.43915  -0.35047
 Alpha virt. eigenvalues --   -0.28033   0.05349   0.07070   0.15365   0.15549
 Alpha virt. eigenvalues --    0.15648   0.17746   0.18783   0.19743   0.19842
 Alpha virt. eigenvalues --    0.28842   0.49654   0.49910   0.99744   1.00967

  Beta  occ. eigenvalues --  -19.72062 -19.72062  -1.12758  -1.12670  -0.56541
  Beta  occ. eigenvalues --   -0.56519  -0.43951  -0.43915  -0.35047
  Beta virt. eigenvalues --   -0.28033   0.05349   0.07070   0.15365   0.15549
  Beta virt. eigenvalues --    0.15648   0.17746   0.18783   0.19743   0.19842
  Beta virt. eigenvalues --    0.28842   0.49654   0.49910   0.99744   1.00967

 Mulliken charges and spin densities:
               1          2
     1  O   -0.264897  -0.000000
     2  O   -0.264897   0.000000
     3  H    0.264897  -0.000000
     4  H    0.264897   0.000000
 Sum of Mulliken charges =   0.00000  -0.00000

 Dipole moment (field-independent basis, Debye):
    X=              0.0000    Y=              0.0019    Z=             -0.0024  Tot=              0.0031
 Quadrupole moment (field-independent basis, Debye-Ang):
   XX=            -14.2016   YY=            -10.6372   ZZ=            -11.8437
   XY=              6.1042   XZ=              4.7792   YZ=              2.4413

 Normal termination of Gaussian 16 at Mon Apr 21 21:39:05 2025.
