 Gaussian 16, Revision A.03,
 Gaussian 16:  ES64L-G16RevA.03 25-Dec-2016

 --------------------------------------------
 #p opt UM062X/6-311+G** nosymm int=superfine
 --------------------------------------------

 -------------------
 Title Card Required
 -------------------
 Symbolic Z-matrix:
 Charge =  0 Multiplicity = 3

 SCF Done:  E(UM062X) =  -50.7247564324     A.U. after   10 cycles
 SCF Done:  E(UM062X) =  -50.7247573954     A.U. after    6 cycles
 Optimization completed.
    -- Stationary point found.

                          Input orientation:
 ---------------------------------------------------------------------
 Center     Atomic      Atomic             Coordinates (Angstroms)
 Number     Number       Type             X           Y           Z
 ---------------------------------------------------------------------
      1          5           0       -0.878410    0.000000    0.000000
      2          5           0        0.878410    0.000000    0.000000
      3          1           0       -2.051974   -0.000080    0.000000
      4          1           0        2.051974    0.000080   -0.000000
 ---------------------------------------------------------------------

 Alpha  occ. eigenvalues --   -7.09609  -7.09564  -0.60084  -0.53580  -0.43407
 Alpha  occ. eigenvalues --   -0.25727  -0.25727
 Alpha virt. eigenvalues --   -0.00433  -0.00433   0.02363   0.02472   0.05718
 Alpha virt. eigenvalues --    0.05718   0.07150   0.08214   0.08214   0.09015
 Alpha virt. eigenvalues --    0.14226   0.22580   0.29573   0.35874   0.39382

  Beta  occ. eigenvalues --   -7.09377  -7.09316  -0.54930  -0.51745  -0.42194
  Beta virt. eigenvalues --   -0.07024  -0.07024   0.00944   0.02428   0.02428
  Beta virt. eigenvalues --    0.03027   0.05289   0.08924   0.09120   0.09120
  Beta virt. eigenvalues --    0.13039   0.13039   0.16492   0.23824   0.32485

 Mulliken charges and spin densities:
               1          2
     1  B   -0.075323   1.033722
     2  B   -0.075323   1.033722
     3  H    0.075323  -0.033722
     4  H    0.075323  -0.033722
 Sum of Mulliken charges =  -0.00000   2.00000

 Dipole moment (field-independent basis, Debye):
    X=             -0.0000    Y=             -0.0000    Z=              0.0000  Tot=              0.0000
 Quadrupole moment (field-independent basis, Debye-Ang):
   XX=            -11.8968   YY=            -14.9837   ZZ=            -14.9837
   XY=              0.0001   XZ=             -0.0000   YZ=             -0.0000

 1\1\GINC-NODE06\FOpt\UM062X\6-311+G(d,p)\B2H2(3)\SZHAO\21-Apr-2025\0\\
 #p opt UM062X/6-311+G** nosymm int=superfine\\Title Card Required\\0,3
 \B,-0.87841047,0.,0.\B,0.87841047,0.,0.\H,-2.0519739703,-0.0000803282,
 0.\H,2.0519739703,0.0000803282,0.\\Version=ES64L-G16RevA.03\HF=-50.724
 7574\S2=2.006367\S2-1=0.\S2A=2.000015\RMSD=9.731e-09\RMSF=7.094e-06\Di
 pole=0.,0.,0.\Quadrupole=1.5300215,-0.7650108,-0.7650108,0.0000471,0.,
 0.\PG=C*V [C*(H1B1B1H1)]\\@

 Normal termination of Gaussian 16 at Mon Apr 21 17:27:31 2025.
