 Gaussian 16, Revision A.03,
 Gaussian 16:  ES64L-G16RevA.03 25-Dec-2016

 --------------------------------------------
 #p opt UM062X/6-311+G** nosymm int=superfine
 --------------------------------------------

 -------------------
 Title Card Required
 -------------------
 Symbolic Z-matrix:
 Charge = -1 Multiplicity = 2

 SCF Done:  E(UM062X) =  -53.1998318797     A.U. after   11 cycles
 SCF Done:  E(UM062X) =  -53.2040307995     A.U. after   11 cycles
 SCF Done:  E(UM062X) =  -53.2049664261     A.U. after   11 cycles
 SCF Done:  E(UM062X) =  -53.2049687284     A.U. after    8 cycles
 Optimization completed.
    -- Stationary point found.

                          Input orientation:
 ---------------------------------------------------------------------
 Center     Atomic      Atomic             Coordinates (Angstroms)
 Number     Number       Type             X           Y           Z
 ---------------------------------------------------------------------
      1          5           0       -2.090672    0.000000    0.000000
      2          5           0        2.090672    0.000000    0.000000
      3          1           0        2.153589   -1.196950   -0.000015
      4          1           0       -2.153251   -0.598483    1.036609
      5          1           0        2.153411    0.598501   -1.036589
      6          1           0        2.153187    0.598469    1.036620
      7          1           0       -2.153597    1.196950   -0.000001
      8          1           0       -2.153339   -0.598488   -1.036601
 ---------------------------------------------------------------------

 Alpha  occ. eigenvalues --   -6.84761  -6.84760  -0.40103  -0.39657  -0.21944
 Alpha  occ. eigenvalues --   -0.21944  -0.21738  -0.21738   0.01188
 Alpha virt. eigenvalues --    0.11247   0.16739   0.17691   0.17691   0.18262
 Alpha virt. eigenvalues --    0.18262   0.18980   0.22981   0.23987   0.32839
 Alpha virt. eigenvalues --    0.32840   0.34229   0.34230   0.36143   0.38719

  Beta  occ. eigenvalues --   -6.84723  -6.84723  -0.38382  -0.38090  -0.21785
  Beta  occ. eigenvalues --   -0.21785  -0.21566  -0.21566
  Beta virt. eigenvalues --    0.09853   0.13301   0.13466   0.14803   0.14803
  Beta virt. eigenvalues --    0.17765   0.17765   0.20836   0.22141   0.25012
  Beta virt. eigenvalues --    0.31761   0.31762   0.33387   0.33388   0.34560

 Mulliken charges and spin densities:
               1          2
     1  B   -0.349986   0.556144
     2  B   -0.349986   0.556144
     3  H   -0.050032  -0.018736
     4  H   -0.049990  -0.018704
     5  H   -0.049995  -0.018704
     6  H   -0.049987  -0.018705
     7  H   -0.050032  -0.018736
     8  H   -0.049992  -0.018704
 Sum of Mulliken charges =  -1.00000   1.00000

 Dipole moment (field-independent basis, Debye):
    X=              0.0000    Y=             -0.0000    Z=              0.0001  Tot=              0.0001
 Quadrupole moment (field-independent basis, Debye-Ang):
   XX=            -44.9283   YY=            -24.3254   ZZ=            -24.3252
   XY=              0.0002   XZ=              0.0000   YZ=              0.0000

 Normal termination of Gaussian 16 at Mon Apr 21 16:51:34 2025.
