 Gaussian 16, Revision A.03,
 Gaussian 16:  ES64L-G16RevA.03 25-Dec-2016

 --------------------------------------------
 #p opt UM062X/6-311+G** nosymm int=superfine
 --------------------------------------------

 -------------------
 Title Card Required
 -------------------
 Symbolic Z-matrix:
 Charge =  1 Multiplicity = 2

 SCF Done:  E(UM062X) =  -579.669757915     A.U. after   14 cycles
 SCF Done:  E(UM062X) =  -579.670225121     A.U. after   11 cycles
 SCF Done:  E(UM062X) =  -579.670366877     A.U. after   11 cycles
 SCF Done:  E(UM062X) =  -579.670847589     A.U. after   12 cycles
 SCF Done:  E(UM062X) =  -579.671613693     A.U. after   13 cycles
 SCF Done:  E(UM062X) =  -579.671744368     A.U. after   14 cycles
 SCF Done:  E(UM062X) =  -579.671745349     A.U. after   10 cycles
 SCF Done:  E(UM062X) =  -579.671745776     A.U. after    9 cycles
 SCF Done:  E(UM062X) =  -579.671746266     A.U. after   10 cycles
 SCF Done:  E(UM062X) =  -579.671747059     A.U. after   10 cycles
 SCF Done:  E(UM062X) =  -579.671748057     A.U. after   10 cycles
 SCF Done:  E(UM062X) =  -579.671749052     A.U. after   10 cycles
 SCF Done:  E(UM062X) =  -579.671749451     A.U. after   10 cycles
 SCF Done:  E(UM062X) =  -579.671749489     A.U. after    9 cycles
 Optimization completed.
    -- Stationary point found.

                          Input orientation:
 ---------------------------------------------------------------------
 Center     Atomic      Atomic             Coordinates (Angstroms)
 Number     Number       Type             X           Y           Z
 ---------------------------------------------------------------------
      1         14           0       -2.577975    0.000000    0.000000
      2         14           0        2.577975    0.000000    0.000000
      3          1           0       -2.764269   -1.497080    0.000000
      4          1           0        2.764467    1.497055    0.000000
 ---------------------------------------------------------------------

 Alpha  occ. eigenvalues --  -67.25552 -67.25552  -5.79736  -5.79736  -4.10842
 Alpha  occ. eigenvalues --   -4.10842  -4.10750  -4.10750  -4.10104  -4.10104
 Alpha  occ. eigenvalues --   -0.74560  -0.74337  -0.51374  -0.51228  -0.37760
 Alpha virt. eigenvalues --   -0.30095  -0.26435  -0.26135  -0.10267  -0.08875
 Alpha virt. eigenvalues --   -0.08117  -0.07238  -0.07206  -0.06169  -0.05395
 Alpha virt. eigenvalues --   -0.05344  -0.04771  -0.02182   0.13733   0.15070

  Beta  occ. eigenvalues --  -67.25290 -67.25290  -5.79662  -5.79662  -4.10687
  Beta  occ. eigenvalues --   -4.10687  -4.10130  -4.10130  -4.10007  -4.10007
  Beta  occ. eigenvalues --   -0.72752  -0.72673  -0.50727  -0.50579
  Beta virt. eigenvalues --   -0.27093  -0.26198  -0.25728  -0.23979  -0.14735
  Beta virt. eigenvalues --   -0.10712  -0.09015  -0.07930  -0.07441  -0.06130
  Beta virt. eigenvalues --   -0.05742  -0.05101  -0.04849  -0.02175   0.09871

 Mulliken charges and spin densities:
               1          2
     1  Si   0.586384   0.508202
     2  Si   0.586377   0.508209
     3  H   -0.086381  -0.008206
     4  H   -0.086379  -0.008206
 Sum of Mulliken charges =   1.00000   1.00000

 Dipole moment (field-independent basis, Debye):
    X=              0.0000    Y=             -0.0000    Z=              0.0000  Tot=              0.0000
 Quadrupole moment (field-independent basis, Debye-Ang):
   XX=             12.8020   YY=            -27.8056   ZZ=            -20.0082
   XY=              2.4069   XZ=              0.0000   YZ=             -0.0000

 Normal termination of Gaussian 16 at Mon Apr 21 20:41:48 2025.
