 Gaussian 16, Revision A.03,
 Gaussian 16:  ES64L-G16RevA.03 25-Dec-2016

 --------------------------------------------
 #p opt UM062X/6-311+G** nosymm int=superfine
 --------------------------------------------

 -------------------
 Title Card Required
 -------------------
 Symbolic Z-matrix:
 Charge =  0 Multiplicity = 1

 SCF Done:  E(UM062X) =  -83.1191728973     A.U. after   10 cycles
 SCF Done:  E(UM062X) =  -83.1353484948     A.U. after    8 cycles
 SCF Done:  E(UM062X) =  -83.1391880854     A.U. after    8 cycles
 SCF Done:  E(UM062X) =  -83.1392210928     A.U. after    7 cycles
 Optimization completed.
    -- Stationary point found.

                          Input orientation:
 ---------------------------------------------------------------------
 Center     Atomic      Atomic             Coordinates (Angstroms)
 Number     Number       Type             X           Y           Z
 ---------------------------------------------------------------------
      1          5           0       -2.327429    0.000000    0.000000
      2          7           0        2.327429    0.000000    0.000000
      3          1           0        2.692000   -0.945069    0.000002
      4          1           0       -2.334110   -0.593876    1.028590
      5          1           0        2.691896    0.472583   -0.818475
      6          1           0        2.691883    0.472582    0.818481
      7          1           0       -2.334141    1.187719    0.000014
      8          1           0       -2.334128   -0.593855   -1.028602
 ---------------------------------------------------------------------

 Alpha  occ. eigenvalues --  -14.72603  -7.04666  -0.95915  -0.57952  -0.53748
 Alpha  occ. eigenvalues --   -0.53747  -0.40343  -0.40343  -0.33927
 Alpha virt. eigenvalues --   -0.02687   0.02712   0.04685   0.04696   0.04696
 Alpha virt. eigenvalues --    0.08535   0.10486   0.10486   0.16155   0.18086
 Alpha virt. eigenvalues --    0.18086   0.18823   0.18823   0.21153   0.27599

  Beta  occ. eigenvalues --  -14.72603  -7.04666  -0.95915  -0.57952  -0.53748
  Beta  occ. eigenvalues --   -0.53747  -0.40343  -0.40343  -0.33927
  Beta virt. eigenvalues --   -0.02687   0.02712   0.04685   0.04696   0.04696
  Beta virt. eigenvalues --    0.08535   0.10486   0.10486   0.16155   0.18086
  Beta virt. eigenvalues --    0.18086   0.18823   0.18823   0.21153   0.27599

 Mulliken charges and spin densities:
               1          2
     1  B    0.027042  -0.000000
     2  N   -0.731293   0.000000
     3  H    0.243923  -0.000000
     4  H   -0.009169  -0.000000
     5  H    0.243924  -0.000000
     6  H    0.243924  -0.000000
     7  H   -0.009181   0.000000
     8  H   -0.009169   0.000000
 Sum of Mulliken charges =  -0.00000   0.00000

 Dipole moment (field-independent basis, Debye):
    X=              1.8441    Y=              0.0002    Z=              0.0000  Tot=              1.8441
 Quadrupole moment (field-independent basis, Debye-Ang):
   XX=             -8.5722   YY=            -15.6054   ZZ=            -15.6054
   XY=              0.0001   XZ=             -0.0000   YZ=              0.0000

 Normal termination of Gaussian 16 at Mon Apr 21 17:41:19 2025.
