 Gaussian 16, Revision A.03,
 Gaussian 16:  ES64L-G16RevA.03 25-Dec-2016

 --------------------------------
 #p UM062X/6-311+G** Pop=NBO Read
 --------------------------------

 ------------
 NBO Analysis
 ------------
 Symbolic Z-matrix:
 Charge =  1 Multiplicity = 2

                         Standard orientation:
 ---------------------------------------------------------------------
 Center     Atomic      Atomic             Coordinates (Angstroms)
 Number     Number       Type             X           Y           Z
 ---------------------------------------------------------------------
      1         14           0        0.009005   -1.116805    0.000000
      2         14           0        0.009005    1.089144    0.000000
      3          1           0       -1.365624   -1.688230   -0.000000
      4          1           0        1.113493    2.075476    0.000000
 ---------------------------------------------------------------------

 SCF Done:  E(UM062X) =  -579.683600651     A.U. after   22 cycles

 The electronic state is 2-A".
 Alpha  occ. eigenvalues --  -67.30598 -67.29746  -5.83759  -5.82877  -4.14932
 Alpha  occ. eigenvalues --   -4.14731  -4.14110  -4.14024  -4.13573  -4.13214
 Alpha  occ. eigenvalues --   -0.86456  -0.75635  -0.62278  -0.52686  -0.49244
 Alpha virt. eigenvalues --   -0.32466  -0.27125  -0.19180  -0.12785  -0.11518
 Alpha virt. eigenvalues --   -0.08857  -0.08361  -0.08359  -0.07202  -0.05649
 Alpha virt. eigenvalues --   -0.05258  -0.01638  -0.00825   0.09630   0.15978

  Beta  occ. eigenvalues --  -67.30165 -67.29665  -5.83573  -5.82912  -4.14420
  Beta  occ. eigenvalues --   -4.14018  -4.13935  -4.13791  -4.13481  -4.13249
  Beta  occ. eigenvalues --   -0.83620  -0.74537  -0.62005  -0.51817
  Beta virt. eigenvalues --   -0.33327  -0.30950  -0.23154  -0.17399  -0.14921
  Beta virt. eigenvalues --   -0.11751  -0.09645  -0.08680  -0.08677  -0.07635
  Beta virt. eigenvalues --   -0.05625  -0.04419  -0.02130  -0.01306   0.10449

 Mulliken charges and spin densities:
               1          2
     1  Si   0.503788   0.234450
     2  Si   0.455558   0.831284
     3  H    0.014314  -0.049154
     4  H    0.026341  -0.016580
 Sum of Mulliken charges =   1.00000   1.00000

 Dipole moment (field-independent basis, Debye):
    X=             -0.1059    Y=              0.3986    Z=             -0.0000  Tot=              0.4125
 Quadrupole moment (field-independent basis, Debye-Ang):
   XX=            -23.6373   YY=            -11.7036   ZZ=            -22.3738
   XY=              1.1130   XZ=             -0.0000   YZ=              0.0000

 Summary of Natural Population Analysis:

                                       Natural Population
                Natural  -----------------------------------------------
    Atom  No    Charge         Core      Valence    Rydberg      Total
 -----------------------------------------------------------------------
     Si    1    0.40586      4.99902     1.58366    0.01145     6.59414
     Si    2    0.73589      4.99880     1.25475    0.01056     6.26411
      H    3   -0.07885      0.00000     0.57754    0.00131     0.57885
      H    4   -0.06290      0.00000     0.56156    0.00135     0.56290
 =======================================================================
   * Total *    1.00000      9.99783     3.97751    0.02466    14.00000

 Normal termination of Gaussian 16 at Wed Apr 16 05:50:48 2025.
