 Gaussian 16, Revision A.03,
 Gaussian 16:  ES64L-G16RevA.03 25-Dec-2016

 --------------------------------------------
 #p opt UM062X/6-311+G** nosymm int=superfine
 --------------------------------------------

 -------------------
 Title Card Required
 -------------------
 Symbolic Z-matrix:
 Charge =  0 Multiplicity = 1

 SCF Done:  E(UM062X) =  -81.7373852410     A.U. after   20 cycles
 SCF Done:  E(UM062X) =  -81.7447778972     A.U. after   13 cycles
 SCF Done:  E(UM062X) =  -81.7507621068     A.U. after   16 cycles
 SCF Done:  E(UM062X) =  -81.7617823826     A.U. after   15 cycles
 SCF Done:  E(UM062X) =  -81.7671203475     A.U. after   16 cycles
 SCF Done:  E(UM062X) =  -81.7721403900     A.U. after   13 cycles
 SCF Done:  E(UM062X) =  -81.7734492256     A.U. after   15 cycles
 SCF Done:  E(UM062X) =  -81.7763593686     A.U. after   12 cycles
 SCF Done:  E(UM062X) =  -81.7771748385     A.U. after   14 cycles
 SCF Done:  E(UM062X) =  -81.7773979822     A.U. after   12 cycles
 SCF Done:  E(UM062X) =  -81.7774121003     A.U. after   12 cycles
 SCF Done:  E(UM062X) =  -81.7774147676     A.U. after    9 cycles
 Optimization completed.
    -- Stationary point found.

                          Input orientation:
 ---------------------------------------------------------------------
 Center     Atomic      Atomic             Coordinates (Angstroms)
 Number     Number       Type             X           Y           Z
 ---------------------------------------------------------------------
      1          5           0       -1.520399    0.000000    0.000000
      2          7           0        1.520399    0.000000    0.000000
      3          1           0       -1.889907   -1.112476   -0.025556
      4          1           0        1.557755    0.804286    0.633730
      5          1           0       -1.889906    1.112469   -0.025865
      6          1           0        1.557754   -0.804117    0.633944
 ---------------------------------------------------------------------

 Alpha  occ. eigenvalues --  -14.72025  -7.17473  -0.87639  -0.62116  -0.50468
 Alpha  occ. eigenvalues --   -0.48344  -0.33618  -0.25774
 Alpha virt. eigenvalues --   -0.08229  -0.07352   0.01018   0.02966   0.04167
 Alpha virt. eigenvalues --    0.05206   0.10252   0.12403   0.13719   0.17340
 Alpha virt. eigenvalues --    0.20468   0.20960   0.21465   0.29598   0.32684

  Beta  occ. eigenvalues --  -14.72025  -7.17473  -0.87639  -0.62116  -0.50468
  Beta  occ. eigenvalues --   -0.48344  -0.33618  -0.25774
  Beta virt. eigenvalues --   -0.08229  -0.07352   0.01018   0.02966   0.04167
  Beta virt. eigenvalues --    0.05206   0.10252   0.12403   0.13719   0.17340
  Beta virt. eigenvalues --    0.20468   0.20960   0.21465   0.29598   0.32684

 Mulliken charges and spin densities:
               1          2
     1  B    0.179230   0.000001
     2  N   -0.721410  -0.000001
     3  H    0.057926  -0.000000
     4  H    0.213164   0.000000
     5  H    0.057926  -0.000000
     6  H    0.213164   0.000000
 Sum of Mulliken charges =  -0.00000   0.00000

 Dipole moment (field-independent basis, Debye):
    X=             -4.3017    Y=              0.0002    Z=              1.7960  Tot=              4.6615
 Quadrupole moment (field-independent basis, Debye-Ang):
   XX=            -14.3516   YY=            -13.4161   ZZ=            -14.4915
   XY=              0.0004   XZ=              3.1597   YZ=             -0.0001

 Normal termination of Gaussian 16 at Mon Apr 21 17:51:27 2025.
