 Gaussian 16, Revision A.03,
 Gaussian 16:  ES64L-G16RevA.03 25-Dec-2016

 --------------------------------------------
 #p opt UM062X/6-311+G** nosymm int=superfine
 --------------------------------------------

 -------------------
 Title Card Required
 -------------------
 Symbolic Z-matrix:
 Charge =  0 Multiplicity = 1

 SCF Done:  E(UM062X) =  -80.5845185648     A.U. after   16 cycles
 SCF Done:  E(UM062X) =  -80.5994838279     A.U. after   14 cycles
 SCF Done:  E(UM062X) =  -80.6008661874     A.U. after   11 cycles
 SCF Done:  E(UM062X) =  -80.6129808180     A.U. after   13 cycles
 SCF Done:  E(UM062X) =  -80.6161167954     A.U. after   11 cycles
 SCF Done:  E(UM062X) =  -80.6131932887     A.U. after   15 cycles
 SCF Done:  E(UM062X) =  -80.6233355833     A.U. after   13 cycles
 SCF Done:  E(UM062X) =  -80.6234954448     A.U. after   12 cycles
 SCF Done:  E(UM062X) =  -80.6238264359     A.U. after   12 cycles
 SCF Done:  E(UM062X) =  -80.6235785485     A.U. after   12 cycles
 SCF Done:  E(UM062X) =  -80.6239302837     A.U. after   12 cycles
 SCF Done:  E(UM062X) =  -80.6239775717     A.U. after   11 cycles
 SCF Done:  E(UM062X) =  -80.6240079619     A.U. after   11 cycles
 SCF Done:  E(UM062X) =  -80.6240081190     A.U. after    9 cycles
 SCF Done:  E(UM062X) =  -80.6240081169     A.U. after    8 cycles
 Optimization completed.
    -- Stationary point found.

                          Input orientation:
 ---------------------------------------------------------------------
 Center     Atomic      Atomic             Coordinates (Angstroms)
 Number     Number       Type             X           Y           Z
 ---------------------------------------------------------------------
      1          5           0       -0.892066   -0.000000    0.000000
      2          7           0        0.892066    0.000000   -0.000000
      3          1           0       -2.053317   -0.023516   -0.195113
      4          1           0        1.052664    0.121672    1.012430
 ---------------------------------------------------------------------

 Alpha  occ. eigenvalues --  -14.76698  -7.18172  -0.86617  -0.59742  -0.45421
 Alpha  occ. eigenvalues --   -0.36321  -0.29502
 Alpha virt. eigenvalues --   -0.06122  -0.04190   0.00611   0.01155   0.04439
 Alpha virt. eigenvalues --    0.04985   0.08533   0.13878   0.16109   0.18686
 Alpha virt. eigenvalues --    0.20464   0.23933   0.26665   0.37949   0.39042

  Beta  occ. eigenvalues --  -14.76698  -7.18172  -0.86617  -0.59742  -0.45421
  Beta  occ. eigenvalues --   -0.36321  -0.29502
  Beta virt. eigenvalues --   -0.06122  -0.04190   0.00611   0.01155   0.04439
  Beta virt. eigenvalues --    0.04985   0.08533   0.13878   0.16109   0.18686
  Beta virt. eigenvalues --    0.20464   0.23933   0.26665   0.37949   0.39042

 Mulliken charges and spin densities:
               1          2
     1  B    0.204461   0.000000
     2  N   -0.476291   0.000000
     3  H    0.070174  -0.000000
     4  H    0.201656   0.000000
 Sum of Mulliken charges =  -0.00000   0.00000

 Dipole moment (field-independent basis, Debye):
    X=             -3.5306    Y=              0.1510    Z=              1.2567  Tot=              3.7506
 Quadrupole moment (field-independent basis, Debye-Ang):
   XX=            -11.6480   YY=            -15.0800   ZZ=            -11.7784
   XY=              0.2345   XZ=              1.9511   YZ=              0.4026

 Normal termination of Gaussian 16 at Mon Apr 21 21:05:59 2025.
