 Gaussian 16, Revision A.03,
 Gaussian 16:  ES64L-G16RevA.03 25-Dec-2016

 --------------------------------------------
 #p opt UM062X/6-311+G** nosymm int=superfine
 --------------------------------------------

 -------------------
 Title Card Required
 -------------------
 Symbolic Z-matrix:
 Charge =  0 Multiplicity = 1

 SCF Done:  E(UM062X) =  -684.909717853     A.U. after   11 cycles
 SCF Done:  E(UM062X) =  -684.910337990     A.U. after   10 cycles
 SCF Done:  E(UM062X) =  -684.910708608     A.U. after   10 cycles
 SCF Done:  E(UM062X) =  -684.911212149     A.U. after   13 cycles
 SCF Done:  E(UM062X) =  -684.911418339     A.U. after   12 cycles
 SCF Done:  E(UM062X) =  -684.911531990     A.U. after   12 cycles
 SCF Done:  E(UM062X) =  -684.911547568     A.U. after   11 cycles
 SCF Done:  E(UM062X) =  -684.911559691     A.U. after   11 cycles
 SCF Done:  E(UM062X) =  -684.911582532     A.U. after   12 cycles
 SCF Done:  E(UM062X) =  -684.911610052     A.U. after   13 cycles
 SCF Done:  E(UM062X) =  -684.911671518     A.U. after   11 cycles
 SCF Done:  E(UM062X) =  -684.911695582     A.U. after   12 cycles
 SCF Done:  E(UM062X) =  -684.911721499     A.U. after   13 cycles
 SCF Done:  E(UM062X) =  -684.911729332     A.U. after   12 cycles
 SCF Done:  E(UM062X) =  -684.904101517     A.U. after   13 cycles
 SCF Done:  E(UM062X) =  -684.911730581     A.U. after   13 cycles
 SCF Done:  E(UM062X) =  -684.911738984     A.U. after   13 cycles
 SCF Done:  E(UM062X) =  -684.911739288     A.U. after    9 cycles
 SCF Done:  E(UM062X) =  -684.911739199     A.U. after   10 cycles
 SCF Done:  E(UM062X) =  -684.911739387     A.U. after   11 cycles
 Optimization completed.
    -- Stationary point found.

                          Input orientation:
 ---------------------------------------------------------------------
 Center     Atomic      Atomic             Coordinates (Angstroms)
 Number     Number       Type             X           Y           Z
 ---------------------------------------------------------------------
      1         15           0       -2.342217    0.000000    0.000000
      2         15           0        2.342217    0.000000    0.000000
      3          1           0        2.231259   -1.024413    0.975318
      4          1           0       -2.229493    1.099396    0.889839
      5          1           0        2.235488   -0.935398   -1.061703
      6          1           0       -2.232387    0.846874   -1.133132
 ---------------------------------------------------------------------

 Alpha  occ. eigenvalues --  -78.04980 -78.04980  -6.87393  -6.87392  -4.98939
 Alpha  occ. eigenvalues --   -4.98938  -4.98817  -4.98817  -4.98635  -4.98635
 Alpha  occ. eigenvalues --   -0.71189  -0.70941  -0.45132  -0.45046  -0.36277
 Alpha  occ. eigenvalues --   -0.36189  -0.23925
 Alpha virt. eigenvalues --   -0.15597   0.01550   0.02845   0.03193   0.04008
 Alpha virt. eigenvalues --    0.04829   0.05870   0.06074   0.06078   0.06141
 Alpha virt. eigenvalues --    0.07880   0.12891   0.18288   0.28982   0.29708

  Beta  occ. eigenvalues --  -78.04980 -78.04980  -6.87393  -6.87392  -4.98939
  Beta  occ. eigenvalues --   -4.98938  -4.98817  -4.98817  -4.98635  -4.98635
  Beta  occ. eigenvalues --   -0.71189  -0.70941  -0.45132  -0.45046  -0.36277
  Beta  occ. eigenvalues --   -0.36189  -0.23925
  Beta virt. eigenvalues --   -0.15597   0.01550   0.02845   0.03193   0.04008
  Beta virt. eigenvalues --    0.04829   0.05870   0.06074   0.06078   0.06141
  Beta virt. eigenvalues --    0.07880   0.12891   0.18288   0.28982   0.29708

 Mulliken charges and spin densities:
               1          2
     1  P    0.006256   0.000000
     2  P    0.005982  -0.000000
     3  H   -0.002627   0.000000
     4  H   -0.002634  -0.000000
     5  H   -0.003488   0.000000
     6  H   -0.003489  -0.000000
 Sum of Mulliken charges =  -0.00000  -0.00000

 Dipole moment (field-independent basis, Debye):
    X=              0.0011    Y=             -0.0059    Z=             -0.1504  Tot=              0.1505
 Quadrupole moment (field-independent basis, Debye-Ang):
   XX=            -28.9734   YY=            -31.2393   ZZ=            -28.5496
   XY=             -4.6000   XZ=              0.1845   YZ=              0.1082

 Normal termination of Gaussian 16 at Mon Apr 21 21:00:57 2025.
