 Gaussian 16, Revision A.03,
 Gaussian 16:  ES64L-G16RevA.03 25-Dec-2016

 --------------------------------------------
 #p opt UM062X/6-311+G** nosymm int=superfine
 --------------------------------------------

 -------------------
 Title Card Required
 -------------------
 Symbolic Z-matrix:
 Charge =  1 Multiplicity = 2

 SCF Done:  E(UM062X) =  -76.8481764442     A.U. after   10 cycles
 SCF Done:  E(UM062X) =  -76.8664356293     A.U. after   11 cycles
 SCF Done:  E(UM062X) =  -76.8671192316     A.U. after    9 cycles
 Optimization completed.
    -- Stationary point found.

                          Input orientation:
 ---------------------------------------------------------------------
 Center     Atomic      Atomic             Coordinates (Angstroms)
 Number     Number       Type             X           Y           Z
 ---------------------------------------------------------------------
      1          6           0       -0.702117    0.000000    0.000000
      2          6           0        0.702117    0.000000    0.000000
      3          1           0       -1.787772    0.000001   -0.000001
      4          1           0        1.787773    0.000001   -0.000001
 ---------------------------------------------------------------------

 Alpha  occ. eigenvalues --  -10.96779 -10.96689  -1.17342  -0.98072  -0.88101
 Alpha  occ. eigenvalues --   -0.68856  -0.66438
 Alpha virt. eigenvalues --   -0.31270  -0.29249  -0.18210  -0.14389  -0.11221
 Alpha virt. eigenvalues --   -0.09820  -0.09561  -0.08873  -0.05078  -0.04700
 Alpha virt. eigenvalues --    0.02119   0.04409   0.12273   0.20112   0.30651

  Beta  occ. eigenvalues --  -10.96541 -10.96470  -1.12882  -0.96430  -0.87536
  Beta  occ. eigenvalues --   -0.64116
  Beta virt. eigenvalues --   -0.43915  -0.27568  -0.24100  -0.16644  -0.15532
  Beta virt. eigenvalues --   -0.11455  -0.10116  -0.09871  -0.08729  -0.04728
  Beta virt. eigenvalues --   -0.04258   0.01629   0.04580   0.12852   0.21023

 Mulliken charges and spin densities:
               1          2
     1  C    0.167721   0.519916
     2  C    0.167721   0.519916
     3  H    0.332279  -0.019916
     4  H    0.332279  -0.019916
 Sum of Mulliken charges =   1.00000   1.00000

 Dipole moment (field-independent basis, Debye):
    X=              0.0000    Y=              0.0000    Z=             -0.0000  Tot=              0.0000
 Quadrupole moment (field-independent basis, Debye-Ang):
   XX=              0.6822   YY=            -11.9665   ZZ=            -10.0405
   XY=              0.0000   XZ=              0.0000   YZ=              0.0053

 Normal termination of Gaussian 16 at Tue Nov 19 13:04:50 2024.
