 Gaussian 16, Revision A.03,
 Gaussian 16:  ES64L-G16RevA.03 25-Dec-2016

 --------------------------------------------
 #p opt UM062X/6-311+G** nosymm int=superfine
 --------------------------------------------

 -------------------
 Title Card Required
 -------------------
 Symbolic Z-matrix:
 Charge =  1 Multiplicity = 2

 SCF Done:  E(UM062X) =  -379.319497170     A.U. after   61 cycles
 SCF Done:  E(UM062X) =  -379.319938995     A.U. after   81 cycles
 Optimization completed.
    -- Stationary point found.

                          Input orientation:
 ---------------------------------------------------------------------
 Center     Atomic      Atomic             Coordinates (Angstroms)
 Number     Number       Type             X           Y           Z
 ---------------------------------------------------------------------
      1          6           0       -1.494427    0.000000    0.000000
      2         15           0        1.494427    0.000000    0.000000
      3          1           0       -2.605623    0.000006    0.000000
 ---------------------------------------------------------------------

 Alpha  occ. eigenvalues --  -78.37812 -10.95163  -7.19243  -5.31138  -5.30908
 Alpha  occ. eigenvalues --   -5.29500  -0.99603  -0.88174  -0.66109  -0.51193
 Alpha  occ. eigenvalues --   -0.49157
 Alpha virt. eigenvalues --   -0.40205  -0.37814  -0.35754  -0.12758  -0.10353
 Alpha virt. eigenvalues --   -0.08569  -0.08249  -0.07134  -0.05278  -0.05148
 Alpha virt. eigenvalues --   -0.00955   0.02252   0.14704   0.14943   0.15035

  Beta  occ. eigenvalues --  -78.37668 -10.94693  -7.19259  -5.30909  -5.30186
  Beta  occ. eigenvalues --   -5.30065  -0.95932  -0.86616  -0.64131  -0.51298
  Beta virt. eigenvalues --   -0.35026  -0.34987  -0.31473  -0.30459  -0.14095
  Beta virt. eigenvalues --   -0.10797  -0.08544  -0.08476  -0.07656  -0.05036
  Beta virt. eigenvalues --   -0.04738  -0.02856   0.04295   0.12381   0.14206

 Mulliken charges and spin densities:
               1          2
     1  C    0.061294   0.761003
     2  P    0.665757   0.262667
     3  H    0.272948  -0.023670
 Sum of Mulliken charges =   1.00000   1.00000

 Dipole moment (field-independent basis, Debye):
    X=             -0.0616    Y=              0.0000    Z=             -0.0000  Tot=              0.0616
 Quadrupole moment (field-independent basis, Debye-Ang):
   XX=              4.4045   YY=            -19.7468   ZZ=            -16.3275
   XY=              0.0000   XZ=             -0.0000   YZ=              0.3007

 Normal termination of Gaussian 16 at Mon Apr 21 19:26:21 2025.
