 Gaussian 16, Revision A.03,
 Gaussian 16:  ES64L-G16RevA.03 25-Dec-2016

 --------------------------------------------
 #p opt UM062X/6-311+G** nosymm int=superfine
 --------------------------------------------

 -------------------
 Title Card Required
 -------------------
 Symbolic Z-matrix:
 Charge =  1 Multiplicity = 2

 SCF Done:  E(UM062X) =  -580.875477450     A.U. after   14 cycles
 SCF Done:  E(UM062X) =  -580.882604402     A.U. after   12 cycles
 SCF Done:  E(UM062X) =  -580.884571479     A.U. after   12 cycles
 SCF Done:  E(UM062X) =  -580.884573969     A.U. after   10 cycles
 Optimization completed.
    -- Stationary point found.

                          Input orientation:
 ---------------------------------------------------------------------
 Center     Atomic      Atomic             Coordinates (Angstroms)
 Number     Number       Type             X           Y           Z
 ---------------------------------------------------------------------
      1         14           0       -1.966295    0.000000    0.000000
      2         14           0        1.966295    0.000000    0.000000
      3          1           0       -2.860784   -1.191055   -0.000119
      4          1           0        2.860784    1.191055    0.000912
      5          1           0       -2.860799    1.191044   -0.000257
      6          1           0        2.860799   -1.191044   -0.001288
 ---------------------------------------------------------------------

 Alpha  occ. eigenvalues --  -67.24558 -67.24558  -5.79046  -5.79044  -4.10318
 Alpha  occ. eigenvalues --   -4.10318  -4.09988  -4.09987  -4.09651  -4.09651
 Alpha  occ. eigenvalues --   -0.78722  -0.78364  -0.60411  -0.60315  -0.51227
 Alpha  occ. eigenvalues --   -0.46511
 Alpha virt. eigenvalues --   -0.27876  -0.26626  -0.13615  -0.12109  -0.09298
 Alpha virt. eigenvalues --   -0.08077  -0.07678  -0.07628  -0.06852  -0.06385
 Alpha virt. eigenvalues --   -0.06166  -0.05681  -0.05645  -0.03383   0.12816

  Beta  occ. eigenvalues --  -67.24206 -67.24206  -5.78769  -5.78767  -4.10212
  Beta  occ. eigenvalues --   -4.10212  -4.09535  -4.09535  -4.09203  -4.09202
  Beta  occ. eigenvalues --   -0.76895  -0.76383  -0.59233  -0.59118  -0.45406
  Beta virt. eigenvalues --   -0.31599  -0.26672  -0.25213  -0.12597  -0.11692
  Beta virt. eigenvalues --   -0.09404  -0.07605  -0.07465  -0.06542  -0.06515
  Beta virt. eigenvalues --   -0.06088  -0.05793  -0.05365  -0.05038  -0.02997

 Mulliken charges and spin densities:
               1          2
     1  Si   0.555008   0.384968
     2  Si   0.555008   0.384968
     3  H   -0.027504   0.057516
     4  H   -0.027504   0.057516
     5  H   -0.027504   0.057516
     6  H   -0.027504   0.057516
 Sum of Mulliken charges =   1.00000   1.00000

 Dipole moment (field-independent basis, Debye):
    X=              0.0000    Y=              0.0000    Z=             -0.0001  Tot=              0.0001
 Quadrupole moment (field-independent basis, Debye-Ang):
   XX=             -2.5686   YY=            -25.7770   ZZ=            -20.7986
   XY=             -0.0000   XZ=              0.0000   YZ=             -0.0022

 Normal termination of Gaussian 16 at Mon Apr 21 20:20:18 2025.
