 Gaussian 16, Revision A.03,
 Gaussian 16:  ES64L-G16RevA.03 25-Dec-2016

 --------------------------------------------
 #p opt UM062X/6-311+G** nosymm int=superfine
 --------------------------------------------

 -------------------
 Title Card Required
 -------------------
 Symbolic Z-matrix:
 Charge =  0 Multiplicity = 1

 SCF Done:  E(UM062X) =  -381.139572187     A.U. after   12 cycles
 SCF Done:  E(UM062X) =  -381.140778391     A.U. after   10 cycles
 SCF Done:  E(UM062X) =  -381.140562049     A.U. after   10 cycles
 SCF Done:  E(UM062X) =  -381.140184677     A.U. after   11 cycles
 SCF Done:  E(UM062X) =  -381.139957810     A.U. after   11 cycles
 SCF Done:  E(UM062X) =  -381.140857611     A.U. after    8 cycles
 SCF Done:  E(UM062X) =  -381.139758408     A.U. after   11 cycles
 SCF Done:  E(UM062X) =  -381.140944797     A.U. after    9 cycles
 SCF Done:  E(UM062X) =  -381.140947791     A.U. after    9 cycles
 Optimization completed.
    -- Stationary point found.

                          Input orientation:
 ---------------------------------------------------------------------
 Center     Atomic      Atomic             Coordinates (Angstroms)
 Number     Number       Type             X           Y           Z
 ---------------------------------------------------------------------
      1          6           0       -1.005452    0.000000    0.000000
      2         15           0        1.005452    0.000000    0.000000
      3          1           0       -1.556741   -0.931964    0.001011
      4          1           0        1.052317   -1.418837    0.002016
      5          1           0       -1.522335    0.951317   -0.001063
 ---------------------------------------------------------------------

 Alpha  occ. eigenvalues --  -78.04848 -10.60014  -6.86920  -4.98412  -4.98394
 Alpha  occ. eigenvalues --   -4.98203  -0.78059  -0.65466  -0.51436  -0.41390
 Alpha  occ. eigenvalues --   -0.35063  -0.28872
 Alpha virt. eigenvalues --   -0.07242   0.00808   0.02490   0.04238   0.05206
 Alpha virt. eigenvalues --    0.06015   0.07614   0.08333   0.10695   0.11908
 Alpha virt. eigenvalues --    0.15241   0.19237   0.21275   0.30548   0.32994

  Beta  occ. eigenvalues --  -78.04848 -10.60014  -6.86920  -4.98412  -4.98394
  Beta  occ. eigenvalues --   -4.98203  -0.78059  -0.65466  -0.51436  -0.41390
  Beta  occ. eigenvalues --   -0.35063  -0.28872
  Beta virt. eigenvalues --   -0.07242   0.00808   0.02490   0.04238   0.05206
  Beta virt. eigenvalues --    0.06015   0.07614   0.08333   0.10695   0.11908
  Beta virt. eigenvalues --    0.15241   0.19237   0.21275   0.30548   0.32994

 Mulliken charges and spin densities:
               1          2
     1  C   -0.453195  -0.000000
     2  P    0.104184   0.000000
     3  H    0.187258   0.000000
     4  H   -0.025789  -0.000000
     5  H    0.187543   0.000000
 Sum of Mulliken charges =  -0.00000   0.00000

 Dipole moment (field-independent basis, Debye):
    X=             -0.6654    Y=             -0.5703    Z=              0.0007  Tot=              0.8764
 Quadrupole moment (field-independent basis, Debye-Ang):
   XX=            -19.4785   YY=            -19.9926   ZZ=            -23.3466
   XY=             -1.1711   XZ=              0.0015   YZ=             -0.0041

 Normal termination of Gaussian 16 at Mon Apr 21 19:12:45 2025.
