 Gaussian 16, Revision A.03,
 Gaussian 16:  ES64L-G16RevA.03 25-Dec-2016

 --------------------------------------------
 #p opt UM062X/6-311+G** nosymm int=superfine
 --------------------------------------------

 -------------------
 Title Card Required
 -------------------
 Symbolic Z-matrix:
 Charge =  1 Multiplicity = 2

 SCF Done:  E(UM062X) =  -290.261149280     A.U. after   11 cycles
 SCF Done:  E(UM062X) =  -290.261305784     A.U. after    9 cycles
 SCF Done:  E(UM062X) =  -290.261308431     A.U. after    7 cycles
 SCF Done:  E(UM062X) =  -290.261308558     A.U. after    6 cycles
 Optimization completed.
    -- Stationary point found.

                          Input orientation:
 ---------------------------------------------------------------------
 Center     Atomic      Atomic             Coordinates (Angstroms)
 Number     Number       Type             X           Y           Z
 ---------------------------------------------------------------------
      1         14           0       -1.102597    0.000002    0.000001
      2          1           0       -1.851616   -1.278083   -0.000000
      3          1           0       -1.851636    1.278076   -0.000096
 ---------------------------------------------------------------------

 Alpha  occ. eigenvalues --  -67.36246  -5.90511  -4.21848  -4.21742  -4.20996
 Alpha  occ. eigenvalues --   -0.88549  -0.70996  -0.58260
 Alpha virt. eigenvalues --   -0.35572  -0.17361  -0.15582  -0.14087  -0.10907
 Alpha virt. eigenvalues --   -0.10386  -0.10175   0.09475   0.11247   0.11620
 Alpha virt. eigenvalues --    0.15182   0.18824   0.21384   0.27315   0.27811

  Beta  occ. eigenvalues --  -67.35625  -5.90064  -4.21550  -4.20805  -4.20342
  Beta  occ. eigenvalues --   -0.84775  -0.69073
  Beta virt. eigenvalues --   -0.37782  -0.34135  -0.17486  -0.14369  -0.14290
  Beta virt. eigenvalues --   -0.10059  -0.08344  -0.07178   0.08706   0.08844
  Beta virt. eigenvalues --    0.10131   0.15011   0.18528   0.19964   0.29558

 Mulliken charges and spin densities:
               1          2
     1  Si   0.910448   0.822628
     2  H    0.044776   0.088686
     3  H    0.044776   0.088686
 Sum of Mulliken charges =   1.00000   1.00000

 Dipole moment (field-independent basis, Debye):
    X=             -5.6561    Y=              0.0000    Z=             -0.0000  Tot=              5.6561
 Quadrupole moment (field-independent basis, Debye-Ang):
   XX=             -4.1590   YY=            -10.0223   ZZ=             -8.7892
   XY=             -0.0000   XZ=             -0.0001   YZ=              0.0000

 Normal termination of Gaussian 16 at Wed Apr 16 08:54:14 2025.
