 Gaussian 16, Revision A.03,
 Gaussian 16:  ES64L-G16RevA.03 25-Dec-2016

 --------------------------------------------
 #p opt UM062X/6-311+G** nosymm int=superfine
 --------------------------------------------

 -------------------
 Title Card Required
 -------------------
 Symbolic Z-matrix:
 Charge =  0 Multiplicity = 1

 SCF Done:  E(UM062X) =  -79.5846453532     A.U. after   10 cycles
 SCF Done:  E(UM062X) =  -79.5878483374     A.U. after    9 cycles
 SCF Done:  E(UM062X) =  -79.5890297794     A.U. after    9 cycles
 SCF Done:  E(UM062X) =  -79.5890347938     A.U. after    8 cycles
 Optimization completed.
    -- Stationary point found.

                          Input orientation:
 ---------------------------------------------------------------------
 Center     Atomic      Atomic             Coordinates (Angstroms)
 Number     Number       Type             X           Y           Z
 ---------------------------------------------------------------------
      1          6           0       -1.796675    0.000000    0.000000
      2          6           0        1.796800    0.000000    0.000000
      3          1           0        1.874592   -0.932388    0.539523
      4          1           0       -1.874454   -0.933441   -0.537703
      5          1           0        1.874582    0.933441    0.537702
      6          1           0        1.874576   -0.001051   -1.077236
      7          1           0       -1.874467    0.932389   -0.539523
      8          1           0       -1.874455    0.001050    1.077236
 ---------------------------------------------------------------------

 Alpha  occ. eigenvalues --  -10.57169 -10.57168  -0.77035  -0.76518  -0.49092
 Alpha  occ. eigenvalues --   -0.49092  -0.48852  -0.48852  -0.22503
 Alpha virt. eigenvalues --   -0.10240   0.03082   0.05193   0.05330   0.05330
 Alpha virt. eigenvalues --    0.07557   0.07557   0.11411   0.12494   0.18551
 Alpha virt. eigenvalues --    0.18551   0.20557   0.20557   0.23056   0.24993

  Beta  occ. eigenvalues --  -10.57169 -10.57168  -0.77035  -0.76518  -0.49092
  Beta  occ. eigenvalues --   -0.49092  -0.48852  -0.48852  -0.22503
  Beta virt. eigenvalues --   -0.10240   0.03082   0.05193   0.05330   0.05330
  Beta virt. eigenvalues --    0.07557   0.07557   0.11411   0.12494   0.18551
  Beta virt. eigenvalues --    0.18551   0.20557   0.20557   0.23056   0.24993

 Mulliken charges and spin densities:
               1          2
     1  C   -0.526412  -0.000000
     2  C   -0.526412   0.000000
     3  H    0.175470  -0.000000
     4  H    0.175471   0.000000
     5  H    0.175471  -0.000000
     6  H    0.175471  -0.000000
     7  H    0.175470   0.000000
     8  H    0.175471   0.000000
 Sum of Mulliken charges =  -0.00000  -0.00000

 Dipole moment (field-independent basis, Debye):
    X=              0.0000    Y=             -0.0000    Z=             -0.0000  Tot=              0.0000
 Quadrupole moment (field-independent basis, Debye-Ang):
   XX=            -15.4955   YY=            -14.8462   ZZ=            -14.8463
   XY=             -0.0000   XZ=              0.0000   YZ=              0.0000

 Normal termination of Gaussian 16 at Tue Dec  3 10:05:01 2024.
