 Gaussian 16, Revision A.03,
 Gaussian 16:  ES64L-G16RevA.03 25-Dec-2016

 --------------------------------------------
 #p opt UM062X/6-311+G** nosymm int=superfine
 --------------------------------------------

 -------------------
 Title Card Required
 -------------------
 Symbolic Z-matrix:
 Charge =  0 Multiplicity = 1

 SCF Done:  E(UM062X) =  -382.417676277     A.U. after   11 cycles
 SCF Done:  E(UM062X) =  -382.418164849     A.U. after    9 cycles
 SCF Done:  E(UM062X) =  -382.418203823     A.U. after    9 cycles
 SCF Done:  E(UM062X) =  -382.418204523     A.U. after    7 cycles
 Optimization completed.
    -- Stationary point found.

                          Input orientation:
 ---------------------------------------------------------------------
 Center     Atomic      Atomic             Coordinates (Angstroms)
 Number     Number       Type             X           Y           Z
 ---------------------------------------------------------------------
      1          6           0       -1.006264    0.000000    0.000000
      2         15           0        1.006264    0.000000    0.000000
      3          1           0        1.138362   -1.410452    0.009170
      4          1           0       -1.333039    1.016421    0.210316
      5          1           0        1.138353    0.100503    1.406892
      6          1           0       -1.333073   -0.288916   -0.996918
      7          1           0       -1.394122   -0.689371    0.745414
 ---------------------------------------------------------------------

 Alpha  occ. eigenvalues --  -78.01792 -10.54486  -6.84309  -4.95872  -4.95866
 Alpha  occ. eigenvalues --   -4.95613  -0.80271  -0.67925  -0.48779  -0.48198
 Alpha  occ. eigenvalues --   -0.42274  -0.38954  -0.30946
 Alpha virt. eigenvalues --    0.00548   0.02233   0.03916   0.04472   0.06453
 Alpha virt. eigenvalues --    0.06568   0.08107   0.08352   0.08994   0.13610
 Alpha virt. eigenvalues --    0.18067   0.18416   0.19126   0.28095   0.30182

  Beta  occ. eigenvalues --  -78.01792 -10.54486  -6.84309  -4.95872  -4.95866
  Beta  occ. eigenvalues --   -4.95613  -0.80271  -0.67925  -0.48779  -0.48198
  Beta  occ. eigenvalues --   -0.42274  -0.38954  -0.30946
  Beta virt. eigenvalues --    0.00548   0.02233   0.03916   0.04472   0.06453
  Beta virt. eigenvalues --    0.06568   0.08107   0.08352   0.08994   0.13610
  Beta virt. eigenvalues --    0.18067   0.18416   0.19126   0.28095   0.30182

 Mulliken charges and spin densities:
               1          2
     1  C   -0.576613  -0.000000
     2  P    0.022656   0.000000
     3  H    0.006297   0.000000
     4  H    0.180039   0.000000
     5  H    0.006295   0.000000
     6  H    0.180038   0.000000
     7  H    0.181289   0.000000
 Sum of Mulliken charges =  -0.00000  -0.00000

 Dipole moment (field-independent basis, Debye):
    X=             -0.7911    Y=             -0.4994    Z=              0.5399  Tot=              1.0802
 Quadrupole moment (field-independent basis, Debye-Ang):
   XX=            -23.2938   YY=            -21.9906   ZZ=            -22.1119
   XY=             -1.1301   XZ=              1.2217   YZ=              0.7781

 Normal termination of Gaussian 16 at Mon Apr 21 18:58:16 2025.
