 Gaussian 16, Revision A.03,
 Gaussian 16:  ES64L-G16RevA.03 25-Dec-2016

 --------------------------------------------
 #p opt UM062X/6-311+G** nosymm int=superfine
 --------------------------------------------

 -------------------
 Title Card Required
 -------------------
 Symbolic Z-matrix:
 Charge =  0 Multiplicity = 1

 SCF Done:  E(UM062X) =  -51.7741325269     A.U. after   10 cycles
 SCF Done:  E(UM062X) =  -51.7796891439     A.U. after    9 cycles
 SCF Done:  E(UM062X) =  -51.7831947683     A.U. after   11 cycles
 SCF Done:  E(UM062X) =  -51.7831984869     A.U. after   11 cycles
 SCF Done:  E(UM062X) =  -51.7831982937     A.U. after    8 cycles
 SCF Done:  E(UM062X) =  -51.7831984942     A.U. after   10 cycles
 Optimization completed.
    -- Stationary point found.

                          Input orientation:
 ---------------------------------------------------------------------
 Center     Atomic      Atomic             Coordinates (Angstroms)
 Number     Number       Type             X           Y           Z
 ---------------------------------------------------------------------
      1          5           0       -2.295607    0.000000    0.000000
      2          5           0        2.295607    0.000000    0.000000
      3          1           0       -2.745873   -1.090167   -0.000006
      4          1           0        2.745873    1.090151   -0.005874
      5          1           0       -2.745875    1.090166    0.000000
      6          1           0        2.745875   -1.090150    0.005868
 ---------------------------------------------------------------------

 Alpha  occ. eigenvalues --   -7.11676  -7.11675  -0.58094  -0.57926  -0.45527
 Alpha  occ. eigenvalues --   -0.45495  -0.19004
 Alpha virt. eigenvalues --   -0.08959  -0.05168  -0.04509   0.02218   0.03022
 Alpha virt. eigenvalues --    0.03831   0.05299   0.06096   0.07118   0.08396
 Alpha virt. eigenvalues --    0.09934   0.15010   0.15614   0.17298   0.22921

  Beta  occ. eigenvalues --   -7.11676  -7.11675  -0.58094  -0.57926  -0.45527
  Beta  occ. eigenvalues --   -0.45495  -0.19004
  Beta virt. eigenvalues --   -0.08959  -0.05168  -0.04509   0.02218   0.03022
  Beta virt. eigenvalues --    0.03831   0.05299   0.06096   0.07118   0.08396
  Beta virt. eigenvalues --    0.09934   0.15010   0.15614   0.17298   0.22921

 Mulliken charges and spin densities:
               1          2
     1  B   -0.065268  -0.000000
     2  B   -0.065268   0.000000
     3  H    0.032634  -0.000000
     4  H    0.032634   0.000000
     5  H    0.032634  -0.000000
     6  H    0.032634   0.000000
 Sum of Mulliken charges =  -0.00000  -0.00000

 Dipole moment (field-independent basis, Debye):
    X=              0.0000    Y=             -0.0000    Z=             -0.0000  Tot=              0.0000
 Quadrupole moment (field-independent basis, Debye-Ang):
   XX=             -9.7374   YY=            -16.9852   ZZ=            -14.6871
   XY=             -0.0000   XZ=              0.0000   YZ=              0.0062

 Normal termination of Gaussian 16 at Mon Apr 21 17:19:31 2025.
