 Gaussian 16, Revision A.03,
 Gaussian 16:  ES64L-G16RevA.03 25-Dec-2016

 ---------------------------------------------------
 #p UM062X/6-311+G** force int=superfine pop=saveNBO
 ---------------------------------------------------

 -------------------
 Title Card Required
 -------------------
 Symbolic Z-matrix:
 Charge =  0 Multiplicity = 1

                         Standard orientation:
 ---------------------------------------------------------------------
 Center     Atomic      Atomic             Coordinates (Angstroms)
 Number     Number       Type             X           Y           Z
 ---------------------------------------------------------------------
      1          8           0        0.000000    0.000000   -2.526757
      2         16           0        0.000000    0.000000    1.263379
 ---------------------------------------------------------------------

 SCF Done:  E(UM062X) =  -473.005191184     A.U. after   18 cycles

 Unable to determine electronic state:  partially filled degenerate orbitals.
 Alpha  occ. eigenvalues --  -89.97498 -19.76344  -8.33537  -6.26330  -6.24749
 Alpha  occ. eigenvalues --   -6.24716  -1.06108  -0.77496  -0.44992  -0.44973
 Alpha  occ. eigenvalues --   -0.34731  -0.34623
 Alpha virt. eigenvalues --   -0.19829  -0.19136   0.03542   0.04745   0.05646
 Alpha virt. eigenvalues --    0.05760   0.15018   0.18137   0.18348   0.22681
 Alpha virt. eigenvalues --    0.33533   0.34747   0.35592   0.58612   0.77117

  Beta  occ. eigenvalues --  -89.97498 -19.76344  -8.33537  -6.26330  -6.24749
  Beta  occ. eigenvalues --   -6.24716  -1.06108  -0.77496  -0.44992  -0.44973
  Beta  occ. eigenvalues --   -0.34731  -0.34623
  Beta virt. eigenvalues --   -0.19829  -0.19136   0.03542   0.04745   0.05646
  Beta virt. eigenvalues --    0.05760   0.15018   0.18137   0.18348   0.22681
  Beta virt. eigenvalues --    0.33533   0.34747   0.35592   0.58612   0.77117

 Mulliken charges and spin densities:
               1          2
     1  O   -0.022388  -0.000000
     2  S    0.022388   0.000000
 Sum of Mulliken charges =  -0.00000   0.00000

 Dipole moment (field-independent basis, Debye):
    X=              0.0000    Y=              0.0000    Z=              0.5196  Tot=              0.5196
 Quadrupole moment (field-independent basis, Debye-Ang):
   XX=            -21.1179   YY=            -15.6810   ZZ=            -19.2305
   XY=              0.0000   XZ=              0.0000   YZ=              0.0000

 Summary of Natural Population Analysis:

                                       Natural Population
                Natural  -----------------------------------------------
    Atom  No    Charge         Core      Valence    Rydberg      Total
 -----------------------------------------------------------------------
      O    1   -0.01273      1.00000     3.01261    0.00012     4.01273
      S    2    0.01273      4.99999     2.98683    0.00045     7.98727
 =======================================================================
   * Total *   -0.00000      5.99999     5.99944    0.00057    12.00000

 Normal termination of Gaussian 16 at Mon Apr 21 19:58:15 2025.
