 Gaussian 16, Revision A.03,
 Gaussian 16:  ES64L-G16RevA.03 25-Dec-2016

 ---------------------------------------
 #p UM062X/6-311+G** force int=superfine
 ---------------------------------------

 -------------------
 Title Card Required
 -------------------
 Symbolic Z-matrix:
 Charge =  0 Multiplicity = 1

                         Standard orientation:
 ---------------------------------------------------------------------
 Center     Atomic      Atomic             Coordinates (Angstroms)
 Number     Number       Type             X           Y           Z
 ---------------------------------------------------------------------
      1          6           0       -0.012009   -0.116749    1.147026
      2          6           0        0.012009    0.116749   -1.147026
      3          1           0        0.447959   -0.819062   -1.473362
      4          1           0       -0.632534   -0.992905    1.286993
      5          1           0        0.632532    0.992906   -1.286996
      6          1           0       -1.037151    0.247617   -1.380325
      7          1           0       -0.447960    0.819062    1.473361
      8          1           0        1.037150   -0.247618    1.380329
 ---------------------------------------------------------------------

 SCF Done:  E(UM062X) =  -79.6999887698     A.U. after    8 cycles

 The electronic state is 1-A.
 Alpha  occ. eigenvalues --  -10.55415 -10.55409  -0.77789  -0.73716  -0.48260
 Alpha  occ. eigenvalues --   -0.48260  -0.45798  -0.45798  -0.29625
 Alpha virt. eigenvalues --   -0.00137   0.02471   0.05567   0.05567   0.07674
 Alpha virt. eigenvalues --    0.08318   0.08318   0.09920   0.13151   0.18161
 Alpha virt. eigenvalues --    0.18161   0.22089   0.22089   0.24364   0.26402

  Beta  occ. eigenvalues --  -10.55415 -10.55409  -0.77789  -0.73716  -0.48260
  Beta  occ. eigenvalues --   -0.48260  -0.45798  -0.45798  -0.29625
  Beta virt. eigenvalues --   -0.00137   0.02471   0.05567   0.05567   0.07674
  Beta virt. eigenvalues --    0.08318   0.08318   0.09920   0.13151   0.18161
  Beta virt. eigenvalues --    0.18161   0.22089   0.22089   0.24364   0.26402

 Mulliken charges and spin densities:
               1          2
     1  C   -0.506973   0.000000
     2  C   -0.506974  -0.000000
     3  H    0.168991   0.000000
     4  H    0.168991   0.000000
     5  H    0.168991   0.000000
     6  H    0.168991  -0.000000
     7  H    0.168991  -0.000000
     8  H    0.168991   0.000000
 Sum of Mulliken charges =  -0.00000  -0.00000

 Dipole moment (field-independent basis, Debye):
    X=             -0.0000    Y=             -0.0000    Z=              0.0000  Tot=              0.0000
 Quadrupole moment (field-independent basis, Debye-Ang):
   XX=            -14.8225   YY=            -14.8297   ZZ=            -15.5366
   XY=             -0.0008   XZ=              0.0075   YZ=              0.0727

 Normal termination of Gaussian 16 at Tue Nov 19 12:55:17 2024.
