 Gaussian 16, Revision A.03,
 Gaussian 16:  ES64L-G16RevA.03 25-Dec-2016

 ---------------------------------------
 #p UM062X/6-311+G** force int=superfine
 ---------------------------------------

 -------------------
 Title Card Required
 -------------------
 Symbolic Z-matrix:
 Charge =  0 Multiplicity = 1

                         Standard orientation:
 ---------------------------------------------------------------------
 Center     Atomic      Atomic             Coordinates (Angstroms)
 Number     Number       Type             X           Y           Z
 ---------------------------------------------------------------------
      1          6           0        0.000000    0.901506    0.000000
      2          6           0       -0.000000   -0.901506    0.000000
      3          1           0        0.959667    1.393831    0.000000
      4          1           0       -0.959551    1.393866    0.000000
      5          1           0       -0.959667   -1.393831    0.000000
      6          1           0        0.959551   -1.393866    0.000000
 ---------------------------------------------------------------------

 SCF Done:  E(UM062X) =  -78.4424768815     A.U. after    8 cycles

 The electronic state is 1-AG.
 Alpha  occ. eigenvalues --  -10.59629 -10.59608  -0.78912  -0.70207  -0.52972
 Alpha  occ. eigenvalues --   -0.48101  -0.41005  -0.27640
 Alpha virt. eigenvalues --   -0.04322   0.03166   0.03366   0.05387   0.07535
 Alpha virt. eigenvalues --    0.08788   0.09783   0.11627   0.15168   0.15862
 Alpha virt. eigenvalues --    0.16634   0.21062   0.22053   0.28807   0.40530

  Beta  occ. eigenvalues --  -10.59629 -10.59608  -0.78912  -0.70207  -0.52972
  Beta  occ. eigenvalues --   -0.48101  -0.41005  -0.27640
  Beta virt. eigenvalues --   -0.04322   0.03166   0.03366   0.05387   0.07535
  Beta virt. eigenvalues --    0.08788   0.09783   0.11627   0.15168   0.15862
  Beta virt. eigenvalues --    0.16634   0.21062   0.22053   0.28807   0.40530

 Mulliken charges and spin densities:
               1          2
     1  C   -0.345283  -0.000000
     2  C   -0.345283  -0.000000
     3  H    0.172640   0.000000
     4  H    0.172642   0.000000
     5  H    0.172640   0.000000
     6  H    0.172642   0.000000
 Sum of Mulliken charges =  -0.00000  -0.00000

 Dipole moment (field-independent basis, Debye):
    X=              0.0000    Y=             -0.0000    Z=              0.0000  Tot=              0.0000
 Quadrupole moment (field-independent basis, Debye-Ang):
   XX=            -12.1720   YY=            -11.6136   ZZ=            -17.6352
   XY=             -0.0001   XZ=             -0.0000   YZ=             -0.0000

 Normal termination of Gaussian 16 at Tue Nov 19 11:48:02 2024.
