 Gaussian 16, Revision A.03,
 Gaussian 16:  ES64L-G16RevA.03 25-Dec-2016

 --------------------------------------------
 #p opt UM062X/6-311+G** nosymm int=superfine
 --------------------------------------------

 -------------------
 Title Card Required
 -------------------
 Symbolic Z-matrix:
 Charge =  0 Multiplicity = 1

 SCF Done:  E(UM062X) =  -83.1704371635     A.U. after   10 cycles
 SCF Done:  E(UM062X) =  -83.1741217543     A.U. after    9 cycles
 SCF Done:  E(UM062X) =  -83.1742640260     A.U. after    8 cycles
 SCF Done:  E(UM062X) =  -83.1742673290     A.U. after    7 cycles
 SCF Done:  E(UM062X) =  -83.1742685375     A.U. after    7 cycles
 Optimization completed.
    -- Stationary point found.

                          Input orientation:
 ---------------------------------------------------------------------
 Center     Atomic      Atomic             Coordinates (Angstroms)
 Number     Number       Type             X           Y           Z
 ---------------------------------------------------------------------
      1          5           0       -1.027429    0.000000    0.000000
      2          7           0        1.027429    0.000000    0.000000
      3          1           0        1.368697   -0.954111   -0.000003
      4          1           0       -1.210353   -0.591553    1.024585
      5          1           0        1.368505    0.477142   -0.826316
      6          1           0        1.368500    0.477134    0.826322
      7          1           0       -1.210299    1.183103    0.000010
      8          1           0       -1.210356   -0.591537   -1.024594
 ---------------------------------------------------------------------

 Alpha  occ. eigenvalues --  -14.79130  -6.99573  -1.01637  -0.59437  -0.59436
 Alpha  occ. eigenvalues --   -0.55824  -0.39697  -0.35703  -0.35703
 Alpha virt. eigenvalues --   -0.00596   0.04190   0.04600   0.04600   0.08382
 Alpha virt. eigenvalues --    0.10998   0.10998   0.12956   0.15812   0.15813
 Alpha virt. eigenvalues --    0.16311   0.20989   0.20989   0.24118   0.30910

  Beta  occ. eigenvalues --  -14.79130  -6.99573  -1.01637  -0.59437  -0.59436
  Beta  occ. eigenvalues --   -0.55824  -0.39697  -0.35703  -0.35703
  Beta virt. eigenvalues --   -0.00596   0.04190   0.04600   0.04600   0.08382
  Beta virt. eigenvalues --    0.10998   0.10998   0.12956   0.15812   0.15813
  Beta virt. eigenvalues --    0.16311   0.20989   0.20989   0.24118   0.30910

 Mulliken charges and spin densities:
               1          2
     1  B   -0.081346  -0.000000
     2  N   -0.665220   0.000000
     3  H    0.288433  -0.000000
     4  H   -0.039579  -0.000000
     5  H    0.288438  -0.000000
     6  H    0.288439  -0.000000
     7  H   -0.039587   0.000000
     8  H   -0.039579   0.000000
 Sum of Mulliken charges =  -0.00000  -0.00000

 Dipole moment (field-independent basis, Debye):
    X=              4.2994    Y=              0.0002    Z=              0.0000  Tot=              4.2994
 Quadrupole moment (field-independent basis, Debye-Ang):
   XX=            -14.7079   YY=            -15.9959   ZZ=            -15.9960
   XY=             -0.0001   XZ=             -0.0000   YZ=              0.0000

 Normal termination of Gaussian 16 at Mon Apr 21 17:31:32 2025.
