 Gaussian 16, Revision A.03,
 Gaussian 16:  ES64L-G16RevA.03 25-Dec-2016

 --------------------------------------------
 #p opt UM062X/6-311+G** nosymm int=superfine
 --------------------------------------------

 -------------------
 Title Card Required
 -------------------
 Symbolic Z-matrix:
 Charge =  1 Multiplicity = 2

 SCF Done:  E(UM062X) =  -582.160990004     A.U. after   11 cycles
 SCF Done:  E(UM062X) =  -582.161287466     A.U. after    9 cycles
 SCF Done:  E(UM062X) =  -582.161313686     A.U. after    8 cycles
 Optimization completed.
    -- Stationary point found.

                          Input orientation:
 ---------------------------------------------------------------------
 Center     Atomic      Atomic             Coordinates (Angstroms)
 Number     Number       Type             X           Y           Z
 ---------------------------------------------------------------------
      1         14           0       -1.751292    0.000000    0.000000
      2         14           0        1.751292    0.000000    0.000000
      3          1           0        1.908146   -1.456540    0.000004
      4          1           0       -1.907863   -0.728164    1.261488
      5          1           0        1.908354    0.728303   -1.261345
      6          1           0        1.907704    0.728255    1.261456
      7          1           0       -1.908171    1.456538   -0.000103
      8          1           0       -1.908170   -0.728401   -1.261312
 ---------------------------------------------------------------------

 Alpha  occ. eigenvalues --  -67.23554 -67.23554  -5.78387  -5.78386  -4.10071
 Alpha  occ. eigenvalues --   -4.10070  -4.09262  -4.09262  -4.09262  -4.09262
 Alpha  occ. eigenvalues --   -0.82968  -0.81297  -0.62765  -0.62765  -0.62145
 Alpha  occ. eigenvalues --   -0.62145  -0.46425
 Alpha virt. eigenvalues --   -0.26751  -0.14206  -0.11979  -0.11087  -0.11086
 Alpha virt. eigenvalues --   -0.09876  -0.09875  -0.09864  -0.08311  -0.08311
 Alpha virt. eigenvalues --   -0.07791  -0.06424  -0.06424  -0.03965   0.00827

  Beta  occ. eigenvalues --  -67.23295 -67.23295  -5.78315  -5.78314  -4.09446
  Beta  occ. eigenvalues --   -4.09446  -4.09175  -4.09175  -4.09175  -4.09175
  Beta  occ. eigenvalues --   -0.80771  -0.79823  -0.62491  -0.62491  -0.61946
  Beta  occ. eigenvalues --   -0.61946
  Beta virt. eigenvalues --   -0.29668  -0.21306  -0.14488  -0.11938  -0.11938
  Beta virt. eigenvalues --   -0.10984  -0.10163  -0.10162  -0.09767  -0.07736
  Beta virt. eigenvalues --   -0.07736  -0.06494  -0.06184  -0.06184  -0.03835

 Mulliken charges and spin densities:
               1          2
     1  Si   0.499634   0.552203
     2  Si   0.499634   0.552203
     3  H    0.000124  -0.017407
     4  H    0.000117  -0.017397
     5  H    0.000130  -0.017402
     6  H    0.000112  -0.017394
     7  H    0.000125  -0.017408
     8  H    0.000125  -0.017398
 Sum of Mulliken charges =   1.00000   1.00000

 Dipole moment (field-independent basis, Debye):
    X=              0.0000    Y=              0.0000    Z=              0.0000  Tot=              0.0000
 Quadrupole moment (field-independent basis, Debye-Ang):
   XX=             -6.1766   YY=            -25.9760   ZZ=            -25.9761
   XY=              0.0000   XZ=              0.0000   YZ=              0.0000

 Normal termination of Gaussian 16 at Mon Apr 21 20:13:47 2025.
