 Gaussian 16, Revision A.03,
 Gaussian 16:  ES64L-G16RevA.03 25-Dec-2016

 --------------------------------------------
 #p opt UM062X/6-311+G** nosymm int=superfine
 --------------------------------------------

 -------------------
 Title Card Required
 -------------------
 Symbolic Z-matrix:
 Charge =  0 Multiplicity = 1

 SCF Done:  E(UM062X) =  -382.408714910     A.U. after   11 cycles
 SCF Done:  E(UM062X) =  -382.409916326     A.U. after    9 cycles
 SCF Done:  E(UM062X) =  -382.410033045     A.U. after    9 cycles
 SCF Done:  E(UM062X) =  -382.410035503     A.U. after    7 cycles
 Optimization completed.
    -- Stationary point found.

                          Input orientation:
 ---------------------------------------------------------------------
 Center     Atomic      Atomic             Coordinates (Angstroms)
 Number     Number       Type             X           Y           Z
 ---------------------------------------------------------------------
      1          6           0       -1.056264    0.000000    0.000000
      2         15           0        1.056264    0.000000    0.000000
      3          1           0        1.160679   -1.412879    0.013870
      4          1           0       -1.365490    1.019410    0.215387
      5          1           0        1.160720    0.095974    1.409674
      6          1           0       -1.365505   -0.294329   -0.999471
      7          1           0       -1.414707   -0.695895    0.752549
 ---------------------------------------------------------------------

 Alpha  occ. eigenvalues --  -78.02149 -10.54898  -6.84597  -4.96151  -4.96140
 Alpha  occ. eigenvalues --   -4.95900  -0.79360  -0.68232  -0.48498  -0.48029
 Alpha  occ. eigenvalues --   -0.42628  -0.37799  -0.31106
 Alpha virt. eigenvalues --    0.00412   0.01855   0.03948   0.04495   0.06501
 Alpha virt. eigenvalues --    0.06506   0.07752   0.08043   0.08207   0.13573
 Alpha virt. eigenvalues --    0.18105   0.18711   0.18855   0.27642   0.30226

  Beta  occ. eigenvalues --  -78.02149 -10.54898  -6.84597  -4.96151  -4.96140
  Beta  occ. eigenvalues --   -4.95900  -0.79360  -0.68232  -0.48498  -0.48029
  Beta  occ. eigenvalues --   -0.42628  -0.37799  -0.31106
  Beta virt. eigenvalues --    0.00412   0.01855   0.03948   0.04495   0.06501
  Beta virt. eigenvalues --    0.06506   0.07752   0.08043   0.08207   0.13573
  Beta virt. eigenvalues --    0.18105   0.18711   0.18855   0.27642   0.30226

 Mulliken charges and spin densities:
               1          2
     1  C   -0.573879   0.000000
     2  P    0.015612   0.000000
     3  H    0.009834  -0.000000
     4  H    0.179154  -0.000000
     5  H    0.009833  -0.000000
     6  H    0.179153  -0.000000
     7  H    0.180293  -0.000000
 Sum of Mulliken charges =  -0.00000  -0.00000

 Dipole moment (field-independent basis, Debye):
    X=             -0.7150    Y=             -0.4971    Z=              0.5373  Tot=              1.0232
 Quadrupole moment (field-independent basis, Debye-Ang):
   XX=            -23.2527   YY=            -22.0071   ZZ=            -22.1252
   XY=             -1.1143   XZ=              1.2047   YZ=              0.7581

 Normal termination of Gaussian 16 at Mon Apr 21 19:03:25 2025.
