 Gaussian 16, Revision A.03,
 Gaussian 16:  ES64L-G16RevA.03 25-Dec-2016

 --------------------------------------------
 #p opt UM062X/6-311+G** nosymm int=superfine
 --------------------------------------------

 -------------------
 Title Card Required
 -------------------
 Symbolic Z-matrix:
 Charge =  0 Multiplicity = 1

 SCF Done:  E(UM062X) =  -581.141866309     A.U. after    9 cycles
 SCF Done:  E(UM062X) =  -581.161670669     A.U. after    8 cycles
 SCF Done:  E(UM062X) =  -581.173853481     A.U. after    8 cycles
 SCF Done:  E(UM062X) =  -581.173873464     A.U. after    7 cycles
 Optimization completed.
    -- Stationary point found.

                          Input orientation:
 ---------------------------------------------------------------------
 Center     Atomic      Atomic             Coordinates (Angstroms)
 Number     Number       Type             X           Y           Z
 ---------------------------------------------------------------------
      1         14           0       -2.237518    0.000000    0.000000
      2         14           0        2.237518    0.000000    0.000000
      3          1           0       -3.301904   -1.083597    0.000077
      4          1           0        3.301904    1.083597   -0.000509
      5          1           0       -3.301908    1.083593    0.000301
      6          1           0        3.301908   -1.083593    0.000886
 ---------------------------------------------------------------------

 Alpha  occ. eigenvalues --  -67.01217 -67.01217  -5.55942  -5.55941  -3.87186
 Alpha  occ. eigenvalues --   -3.87186  -3.86645  -3.86645  -3.86505  -3.86505
 Alpha  occ. eigenvalues --   -0.57221  -0.57115  -0.37773  -0.37733  -0.29310
 Alpha  occ. eigenvalues --   -0.26909
 Alpha virt. eigenvalues --   -0.08232  -0.07443   0.02088   0.02365   0.03068
 Alpha virt. eigenvalues --    0.04570   0.05734   0.06096   0.06363   0.07015
 Alpha virt. eigenvalues --    0.08440   0.09179   0.11412   0.14098   0.29045

  Beta  occ. eigenvalues --  -67.01217 -67.01217  -5.55942  -5.55941  -3.87186
  Beta  occ. eigenvalues --   -3.87186  -3.86645  -3.86645  -3.86505  -3.86505
  Beta  occ. eigenvalues --   -0.57221  -0.57115  -0.37773  -0.37733  -0.29310
  Beta  occ. eigenvalues --   -0.26909
  Beta virt. eigenvalues --   -0.08232  -0.07443   0.02088   0.02365   0.03068
  Beta virt. eigenvalues --    0.04570   0.05734   0.06096   0.06363   0.07015
  Beta virt. eigenvalues --    0.08440   0.09179   0.11412   0.14098   0.29045

 Mulliken charges and spin densities:
               1          2
     1  Si   0.321668  -0.000000
     2  Si   0.321668  -0.000000
     3  H   -0.160834   0.000000
     4  H   -0.160834  -0.000000
     5  H   -0.160834   0.000000
     6  H   -0.160834  -0.000000
 Sum of Mulliken charges =  -0.00000  -0.00000

 Dipole moment (field-independent basis, Debye):
    X=              0.0000    Y=              0.0000    Z=              0.0001  Tot=              0.0001
 Quadrupole moment (field-independent basis, Debye-Ang):
   XX=            -35.8224   YY=            -32.7578   ZZ=            -24.3942
   XY=             -0.0000   XZ=              0.0000   YZ=              0.0023

 Normal termination of Gaussian 16 at Mon Apr 21 20:34:24 2025.
