 Gaussian 16, Revision A.03,
 Gaussian 16:  ES64L-G16RevA.03 25-Dec-2016

 --------------------------------------------
 #p opt UM062X/6-311+G** nosymm int=superfine
 --------------------------------------------

 -------------------
 Title Card Required
 -------------------
 Symbolic Z-matrix:
 Charge = -1 Multiplicity = 2

 SCF Done:  E(UM062X) =  -51.8740015494     A.U. after   11 cycles
 SCF Done:  E(UM062X) =  -51.8788268219     A.U. after   10 cycles
 SCF Done:  E(UM062X) =  -51.8811996442     A.U. after   11 cycles
 SCF Done:  E(UM062X) =  -51.8812251027     A.U. after   14 cycles
 SCF Done:  E(UM062X) =  -51.8812227754     A.U. after   11 cycles
 SCF Done:  E(UM062X) =  -51.8812217549     A.U. after   13 cycles
 SCF Done:  E(UM062X) =  -51.8812248964     A.U. after   16 cycles
 SCF Done:  E(UM062X) =  -51.8812251548     A.U. after   10 cycles
 Optimization completed.
    -- Stationary point found.

                          Input orientation:
 ---------------------------------------------------------------------
 Center     Atomic      Atomic             Coordinates (Angstroms)
 Number     Number       Type             X           Y           Z
 ---------------------------------------------------------------------
      1          5           0       -1.547274    0.000000    0.000000
      2          5           0        1.547274    0.000000    0.000000
      3          1           0       -2.067822   -1.071467    0.000202
      4          1           0        2.067822    1.071467   -0.000310
      5          1           0       -2.067822    1.071467   -0.000323
      6          1           0        2.067823   -1.071467    0.000202
 ---------------------------------------------------------------------

 Alpha  occ. eigenvalues --   -6.88618  -6.88615  -0.37998  -0.36854  -0.23760
 Alpha  occ. eigenvalues --   -0.23255  -0.03630   0.01451
 Alpha virt. eigenvalues --    0.12069   0.14523   0.16402   0.18621   0.19072
 Alpha virt. eigenvalues --    0.19553   0.22221   0.22495   0.23642   0.25571
 Alpha virt. eigenvalues --    0.32250   0.34016   0.34055   0.41179   0.49190

  Beta  occ. eigenvalues --   -6.88579  -6.88578  -0.36428  -0.35532  -0.23675
  Beta  occ. eigenvalues --   -0.23218  -0.02341
  Beta virt. eigenvalues --    0.10741   0.13027   0.13729   0.13807   0.16076
  Beta virt. eigenvalues --    0.17187   0.18166   0.19897   0.21525   0.21930
  Beta virt. eigenvalues --    0.23806   0.31384   0.32872   0.34132   0.40835

 Mulliken charges and spin densities:
               1          2
     1  B   -0.426159   0.546366
     2  B   -0.426159   0.546368
     3  H   -0.036920  -0.023184
     4  H   -0.036920  -0.023184
     5  H   -0.036920  -0.023184
     6  H   -0.036920  -0.023184
 Sum of Mulliken charges =  -1.00000   1.00000

 Dipole moment (field-independent basis, Debye):
    X=              0.0000    Y=             -0.0000    Z=             -0.0001  Tot=              0.0001
 Quadrupole moment (field-independent basis, Debye-Ang):
   XX=            -33.1349   YY=            -23.5970   ZZ=            -26.1814
   XY=             -0.0000   XZ=             -0.0000   YZ=             -0.0006

 Normal termination of Gaussian 16 at Mon Apr 21 17:24:18 2025.
