 Gaussian 16, Revision A.03,
 Gaussian 16:  ES64L-G16RevA.03 25-Dec-2016

 ---------------------------------------
 #p UM062X/6-311+G** force int=superfine
 ---------------------------------------

 -------------------
 Title Card Required
 -------------------
 Symbolic Z-matrix:
 Charge =  1 Multiplicity = 2

                         Standard orientation:
 ---------------------------------------------------------------------
 Center     Atomic      Atomic             Coordinates (Angstroms)
 Number     Number       Type             X           Y           Z
 ---------------------------------------------------------------------
      1          6           0        0.000000    0.000000    0.689690
      2          6           0        0.000000    0.000000   -0.689690
      3          1           0        0.000000    0.000000    1.774933
      4          1           0        0.000000    0.000000   -1.774933
 ---------------------------------------------------------------------

 SCF Done:  E(UM062X) =  -76.8757407771     A.U. after    9 cycles

 Unable to determine electronic state:  an orbital has unidentified symmetry.
 Alpha  occ. eigenvalues --  -10.96409 -10.96308  -1.18128  -0.97927  -0.88349
 Alpha  occ. eigenvalues --   -0.69422  -0.66966
 Alpha virt. eigenvalues --   -0.30718  -0.28697  -0.17649  -0.14404  -0.11277
 Alpha virt. eigenvalues --   -0.09876  -0.09635  -0.08511  -0.05042  -0.04656
 Alpha virt. eigenvalues --    0.02152   0.04437   0.12813   0.19887   0.30482

  Beta  occ. eigenvalues --  -10.96171 -10.96089  -1.13617  -0.96294  -0.87797
  Beta  occ. eigenvalues --   -0.64613
  Beta virt. eigenvalues --   -0.44244  -0.27024  -0.23658  -0.16202  -0.15550
  Beta virt. eigenvalues --   -0.11495  -0.10182  -0.09930  -0.08291  -0.04657
  Beta virt. eigenvalues --   -0.04166   0.01702   0.04618   0.13398   0.20788

 Mulliken charges and spin densities:
               1          2
     1  C    0.170872   0.519798
     2  C    0.170872   0.519798
     3  H    0.329128  -0.019798
     4  H    0.329128  -0.019798
 Sum of Mulliken charges =   1.00000   1.00000

 Dipole moment (field-independent basis, Debye):
    X=              0.0000    Y=             -0.0000    Z=              0.0000  Tot=              0.0000
 Quadrupole moment (field-independent basis, Debye-Ang):
   XX=             -9.9786   YY=            -11.8876   ZZ=              0.4931
   XY=              0.0000   XZ=             -0.0000   YZ=              0.0000

 Normal termination of Gaussian 16 at Tue Nov 19 13:32:41 2024.
