 Gaussian 16, Revision A.03,
 Gaussian 16:  ES64L-G16RevA.03 25-Dec-2016

 --------------------------------
 #p UM062X/6-311+G** Pop=NBO Read
 --------------------------------

 ------------
 NBO Analysis
 ------------
 Symbolic Z-matrix:
 Charge =  0 Multiplicity = 1

                         Standard orientation:
 ---------------------------------------------------------------------
 Center     Atomic      Atomic             Coordinates (Angstroms)
 Number     Number       Type             X           Y           Z
 ---------------------------------------------------------------------
      1          5           0       -0.000000    0.000000    0.692951
      2          7           0        0.000000   -0.000000   -0.541181
      3          1           0        0.000000    0.000000    1.858842
      4          1           0        0.000000   -0.000000   -1.535334
 ---------------------------------------------------------------------

 SCF Done:  E(UM062X) =  -80.7711473603     A.U. after    9 cycles

 The electronic state is 1-SG.
 Alpha  occ. eigenvalues --  -14.74283  -7.05621  -0.92913  -0.62354  -0.51235
 Alpha  occ. eigenvalues --   -0.36335  -0.36335
 Alpha virt. eigenvalues --    0.01404   0.02791   0.02791   0.03367   0.10073
 Alpha virt. eigenvalues --    0.10073   0.11704   0.17073   0.19418   0.19418
 Alpha virt. eigenvalues --    0.25020   0.31418   0.52269   0.58020   0.58020

  Beta  occ. eigenvalues --  -14.74283  -7.05621  -0.92913  -0.62354  -0.51235
  Beta  occ. eigenvalues --   -0.36335  -0.36335
  Beta virt. eigenvalues --    0.01404   0.02791   0.02791   0.03367   0.10073
  Beta virt. eigenvalues --    0.10073   0.11704   0.17073   0.19418   0.19418
  Beta virt. eigenvalues --    0.25020   0.31418   0.52269   0.58020   0.58020

 Mulliken charges and spin densities:
               1          2
     1  B    0.176420   0.000000
     2  N   -0.440477  -0.000000
     3  H    0.011509  -0.000000
     4  H    0.252547   0.000000
 Sum of Mulliken charges =   0.00000  -0.00000

 Dipole moment (field-independent basis, Debye):
    X=             -0.0000    Y=             -0.0000    Z=              0.1018  Tot=              0.1018
 Quadrupole moment (field-independent basis, Debye-Ang):
   XX=            -13.2440   YY=            -13.2440   ZZ=             -7.9320
   XY=              0.0000   XZ=             -0.0000   YZ=             -0.0000

 Summary of Natural Population Analysis:

                                       Natural Population
                Natural  -----------------------------------------------
    Atom  No    Charge         Core      Valence    Rydberg      Total
 -----------------------------------------------------------------------
      B    1    0.34101      0.99931     1.15632    0.00337     2.15899
      N    2   -0.53598      0.99959     3.03401    0.00237     4.03598
      H    3   -0.02853      0.00000     0.52794    0.00060     0.52853
      H    4    0.22350      0.00000     0.27507    0.00143     0.27650
 =======================================================================
   * Total *    0.00000      1.99890     4.99334    0.00777     7.00000

 Normal termination of Gaussian 16 at Wed Apr 16 01:34:28 2025.
