 Gaussian 16, Revision A.03,
 Gaussian 16:  ES64L-G16RevA.03 25-Dec-2016

 ---------------------------------------------------
 #p UM062X/6-311+G** force int=superfine pop=saveNBO
 ---------------------------------------------------

 -------------------
 Title Card Required
 -------------------
 Symbolic Z-matrix:
 Charge =  0 Multiplicity = 1

                         Standard orientation:
 ---------------------------------------------------------------------
 Center     Atomic      Atomic             Coordinates (Angstroms)
 Number     Number       Type             X           Y           Z
 ---------------------------------------------------------------------
      1          6           0        0.000000    0.000000   -2.155522
      2          8           0        0.000000    0.000000    1.616642
 ---------------------------------------------------------------------

 SCF Done:  E(UM062X) =  -112.638272905     A.U. after   55 cycles

 The electronic state is 1-SG.
 Alpha  occ. eigenvalues --  -19.69253 -10.83156  -0.99180  -0.72463  -0.37991
 Alpha  occ. eigenvalues --   -0.30208  -0.30208
 Alpha virt. eigenvalues --   -0.22546  -0.22546  -0.18253   0.02313   0.06003
 Alpha virt. eigenvalues --    0.06003   0.07273   0.18662   0.21265   0.21265
 Alpha virt. eigenvalues --    0.25045   0.50900   0.50900   0.51858   0.60902

  Beta  occ. eigenvalues --  -19.69253 -10.83156  -0.99180  -0.72463  -0.37991
  Beta  occ. eigenvalues --   -0.30208  -0.30208
  Beta virt. eigenvalues --   -0.22546  -0.22546  -0.18253   0.02313   0.06003
  Beta virt. eigenvalues --    0.06003   0.07273   0.18662   0.21265   0.21265
  Beta virt. eigenvalues --    0.25045   0.50900   0.50900   0.51858   0.60902

 Mulliken charges and spin densities:
               1          2
     1  C    0.298880   0.000000
     2  O   -0.298880  -0.000000
 Sum of Mulliken charges =  -0.00000  -0.00000

 Dipole moment (field-independent basis, Debye):
    X=              0.0000    Y=              0.0000    Z=             -5.3779  Tot=              5.3779
 Quadrupole moment (field-independent basis, Debye-Ang):
   XX=            -12.3814   YY=            -12.3814   ZZ=             -8.0665
   XY=              0.0000   XZ=              0.0000   YZ=              0.0000

 Summary of Natural Population Analysis:

                                       Natural Population
                Natural  -----------------------------------------------
    Atom  No    Charge         Core      Valence    Rydberg      Total
 -----------------------------------------------------------------------
      C    1    0.15462      1.00000     1.84528    0.00010     2.84538
      O    2   -0.15462      1.00000     3.15398    0.00064     4.15462
 =======================================================================
   * Total *   -0.00000      2.00000     4.99926    0.00074     7.00000

 Normal termination of Gaussian 16 at Mon Apr 21 19:32:07 2025.
