 Gaussian 16, Revision A.03,
 Gaussian 16:  ES64L-G16RevA.03 25-Dec-2016

 --------------------------------------------
 #p opt UM062X/6-311+G** nosymm int=superfine
 --------------------------------------------

 -------------------
 Title Card Required
 -------------------
 Symbolic Z-matrix:
 Charge =  1 Multiplicity = 2

 SCF Done:  E(UM062X) =  -580.858447088     A.U. after   15 cycles
 SCF Done:  E(UM062X) =  -580.866107102     A.U. after    9 cycles
 SCF Done:  E(UM062X) =  -580.868287966     A.U. after   13 cycles
 SCF Done:  E(UM062X) =  -580.868290940     A.U. after    7 cycles
 Optimization completed.
    -- Stationary point found.

                          Input orientation:
 ---------------------------------------------------------------------
 Center     Atomic      Atomic             Coordinates (Angstroms)
 Number     Number       Type             X           Y           Z
 ---------------------------------------------------------------------
      1         14           0       -2.566295    0.000000    0.000000
      2         14           0        2.566295    0.000000    0.000000
      3          1           0       -3.468243   -1.188955    0.000045
      4          1           0        3.468243    1.188955    0.001072
      5          1           0       -3.468259    1.188944   -0.000036
      6          1           0        3.468259   -1.188943   -0.001063
 ---------------------------------------------------------------------

 Alpha  occ. eigenvalues --  -67.23540 -67.23540  -5.78040  -5.78040  -4.09308
 Alpha  occ. eigenvalues --   -4.09308  -4.08987  -4.08987  -4.08647  -4.08647
 Alpha  occ. eigenvalues --   -0.77573  -0.77538  -0.59378  -0.59369  -0.48409
 Alpha  occ. eigenvalues --   -0.47517
 Alpha virt. eigenvalues --   -0.26349  -0.26065  -0.11873  -0.11592  -0.09163
 Alpha virt. eigenvalues --   -0.08586  -0.07615  -0.06716  -0.06702  -0.05896
 Alpha virt. eigenvalues --   -0.05341  -0.05271  -0.05255  -0.03319   0.13453

  Beta  occ. eigenvalues --  -67.23213 -67.23213  -5.77798  -5.77798  -4.09207
  Beta  occ. eigenvalues --   -4.09207  -4.08541  -4.08541  -4.08222  -4.08222
  Beta  occ. eigenvalues --   -0.75775  -0.75617  -0.58212  -0.58197  -0.41423
  Beta virt. eigenvalues --   -0.33600  -0.25196  -0.24823  -0.11188  -0.10426
  Beta virt. eigenvalues --   -0.09229  -0.07084  -0.07019  -0.06247  -0.06228
  Beta virt. eigenvalues --   -0.05946  -0.05174  -0.05026  -0.04557  -0.02961

 Mulliken charges and spin densities:
               1          2
     1  Si   0.566666   0.390571
     2  Si   0.566666   0.390571
     3  H   -0.033333   0.054714
     4  H   -0.033333   0.054714
     5  H   -0.033333   0.054715
     6  H   -0.033333   0.054715
 Sum of Mulliken charges =   1.00000   1.00000

 Dipole moment (field-independent basis, Debye):
    X=             -0.0000    Y=              0.0000    Z=              0.0000  Tot=              0.0000
 Quadrupole moment (field-independent basis, Debye-Ang):
   XX=             11.7403   YY=            -25.9604   ZZ=            -20.8849
   XY=             -0.0000   XZ=              0.0000   YZ=             -0.0022

 Normal termination of Gaussian 16 at Mon Apr 21 20:28:53 2025.
