 Gaussian 16, Revision A.03,
 Gaussian 16:  ES64L-G16RevA.03 25-Dec-2016

 --------------------------------------------
 #p opt UM062X/6-311+G** nosymm int=superfine
 --------------------------------------------

 -------------------
 Title Card Required
 -------------------
 Symbolic Z-matrix:
 Charge =  0 Multiplicity = 1

 SCF Done:  E(UM062X) =  -474.503983646     A.U. after   13 cycles
 SCF Done:  E(UM062X) =  -474.527101728     A.U. after   12 cycles
 SCF Done:  E(UM062X) =  -474.557234050     A.U. after   12 cycles
 SCF Done:  E(UM062X) =  -474.563062166     A.U. after   12 cycles
 SCF Done:  E(UM062X) =  -474.562845521     A.U. after   12 cycles
 SCF Done:  E(UM062X) =  -474.562998750     A.U. after   12 cycles
 SCF Done:  E(UM062X) =  -474.563626274     A.U. after    8 cycles
 SCF Done:  E(UM062X) =  -474.563948222     A.U. after   11 cycles
 SCF Done:  E(UM062X) =  -474.563955093     A.U. after   10 cycles
 SCF Done:  E(UM062X) =  -474.563956028     A.U. after    9 cycles
 Optimization completed.
    -- Stationary point found.

                          Input orientation:
 ---------------------------------------------------------------------
 Center     Atomic      Atomic             Coordinates (Angstroms)
 Number     Number       Type             X           Y           Z
 ---------------------------------------------------------------------
      1          8           0       -0.837946    0.055106    0.021712
      2         16           0        0.839987    0.041349   -0.029913
      3          1           0       -1.116550   -0.299305    0.871544
      4          1           0        0.988124   -1.154352   -0.631760
 ---------------------------------------------------------------------

 Alpha  occ. eigenvalues --  -89.94212 -19.66537  -8.30497  -6.22760  -6.22341
 Alpha  occ. eigenvalues --   -6.21858  -1.17221  -0.81471  -0.59914  -0.52030
 Alpha  occ. eigenvalues --   -0.47513  -0.38483  -0.31234
 Alpha virt. eigenvalues --   -0.01158   0.01929   0.04594   0.05307   0.07799
 Alpha virt. eigenvalues --    0.10043   0.16047   0.18350   0.20002   0.23008
 Alpha virt. eigenvalues --    0.28474   0.32349   0.34316   0.36003   0.41470

  Beta  occ. eigenvalues --  -89.94212 -19.66537  -8.30497  -6.22760  -6.22341
  Beta  occ. eigenvalues --   -6.21858  -1.17221  -0.81471  -0.59914  -0.52030
  Beta  occ. eigenvalues --   -0.47513  -0.38483  -0.31234
  Beta virt. eigenvalues --   -0.01158   0.01929   0.04594   0.05307   0.07799
  Beta virt. eigenvalues --    0.10043   0.16047   0.18350   0.20002   0.23008
  Beta virt. eigenvalues --    0.28474   0.32349   0.34316   0.36003   0.41470

 Mulliken charges and spin densities:
               1          2
     1  O   -0.406631  -0.000000
     2  S    0.057378   0.000000
     3  H    0.288646   0.000000
     4  H    0.060607   0.000000
 Sum of Mulliken charges =  -0.00000  -0.00000

 Dipole moment (field-independent basis, Debye):
    X=              0.3125    Y=             -1.5899    Z=              1.0619  Tot=              1.9373
 Quadrupole moment (field-independent basis, Debye-Ang):
   XX=            -19.0548   YY=            -18.8960   ZZ=            -19.1546
   XY=             -0.2422   XZ=             -2.9786   YZ=              0.7581

 Normal termination of Gaussian 16 at Mon May 12 14:43:20 2025.
