 Gaussian 16, Revision A.03,
 Gaussian 16:  ES64L-G16RevA.03 25-Dec-2016

 --------------------------------------------
 #p opt UM062X/6-311+G** nosymm int=superfine
 --------------------------------------------

 -------------------
 Title Card Required
 -------------------
 Symbolic Z-matrix:
 Charge =  0 Multiplicity = 1

 SCF Done:  E(UM062X) =  -683.714553825     A.U. after   10 cycles
 SCF Done:  E(UM062X) =  -683.715765690     A.U. after   10 cycles
 SCF Done:  E(UM062X) =  -683.715871570     A.U. after   10 cycles
 Optimization completed.
    -- Stationary point found.

                          Input orientation:
 ---------------------------------------------------------------------
 Center     Atomic      Atomic             Coordinates (Angstroms)
 Number     Number       Type             X           Y           Z
 ---------------------------------------------------------------------
      1         15           0       -1.484490    0.000000    0.000000
      2         15           0        1.484490    0.000000    0.000000
      3          1           0       -1.436711   -1.421187    0.000000
      4          1           0        1.436711    1.421187    0.000000
 ---------------------------------------------------------------------

 Alpha  occ. eigenvalues --  -78.07957 -78.07957  -6.89913  -6.89912  -5.01352
 Alpha  occ. eigenvalues --   -5.01352  -5.01313  -5.01312  -5.01140  -5.01140
 Alpha  occ. eigenvalues --   -0.70051  -0.66367  -0.40836  -0.39820  -0.30028
 Alpha  occ. eigenvalues --   -0.26407
 Alpha virt. eigenvalues --   -0.14147  -0.08572   0.01933   0.03298   0.03833
 Alpha virt. eigenvalues --    0.04664   0.05023   0.06066   0.06718   0.08610
 Alpha virt. eigenvalues --    0.09009   0.12509   0.27947   0.29607   0.30628

  Beta  occ. eigenvalues --  -78.07957 -78.07957  -6.89913  -6.89912  -5.01352
  Beta  occ. eigenvalues --   -5.01352  -5.01313  -5.01312  -5.01140  -5.01140
  Beta  occ. eigenvalues --   -0.70051  -0.66367  -0.40836  -0.39820  -0.30028
  Beta  occ. eigenvalues --   -0.26407
  Beta virt. eigenvalues --   -0.14147  -0.08572   0.01933   0.03298   0.03833
  Beta virt. eigenvalues --    0.04664   0.05023   0.06066   0.06718   0.08610
  Beta virt. eigenvalues --    0.09009   0.12509   0.27947   0.29607   0.30628

 Mulliken charges and spin densities:
               1          2
     1  P    0.006350  -0.000000
     2  P    0.006350   0.000000
     3  H   -0.006350   0.000000
     4  H   -0.006350  -0.000000
 Sum of Mulliken charges =  -0.00000   0.00000

 Dipole moment (field-independent basis, Debye):
    X=              0.0000    Y=              0.0000    Z=              0.0000  Tot=              0.0000
 Quadrupole moment (field-independent basis, Debye-Ang):
   XX=            -27.7372   YY=            -28.1392   ZZ=            -30.4927
   XY=              2.7077   XZ=             -0.0000   YZ=             -0.0000

 Normal termination of Gaussian 16 at Mon Apr 21 21:11:38 2025.
