 Gaussian 16, Revision A.03,
 Gaussian 16:  ES64L-G16RevA.03 25-Dec-2016

 --------------------------------------------
 #p opt UM062X/6-311+G** nosymm int=superfine
 --------------------------------------------

 -------------------
 Title Card Required
 -------------------
 Symbolic Z-matrix:
 Charge =  0 Multiplicity = 1

 SCF Done:  E(UM062X) =  -79.7531441532     A.U. after    8 cycles
 SCF Done:  E(UM062X) =  -79.7667431574     A.U. after    8 cycles
 SCF Done:  E(UM062X) =  -79.7691117378     A.U. after    8 cycles
 Optimization completed.
    -- Stationary point found.

                          Input orientation:
 ---------------------------------------------------------------------
 Center     Atomic      Atomic             Coordinates (Angstroms)
 Number     Number       Type             X           Y           Z
 ---------------------------------------------------------------------
      1          6           0       -0.916256    0.000000    0.000000
      2          6           0        0.916350    0.000000    0.000000
      3          1           0        1.245692   -0.896128    0.518533
      4          1           0       -1.245610   -0.897130   -0.516781
      5          1           0        1.245706    0.897131    0.516780
      6          1           0        1.245658   -0.001011   -1.035345
      7          1           0       -1.245598    0.896128   -0.518533
      8          1           0       -1.245567    0.001010    1.035345
 ---------------------------------------------------------------------

 Alpha  occ. eigenvalues --  -10.53783 -10.53769  -0.80592  -0.71694  -0.48794
 Alpha  occ. eigenvalues --   -0.48794  -0.43055  -0.43054  -0.36468
 Alpha virt. eigenvalues --    0.02263   0.03534   0.05635   0.05635   0.08601
 Alpha virt. eigenvalues --    0.08601   0.09261   0.13343   0.17074   0.18350
 Alpha virt. eigenvalues --    0.18351   0.21815   0.21815   0.24254   0.27445

  Beta  occ. eigenvalues --  -10.53783 -10.53769  -0.80592  -0.71694  -0.48794
  Beta  occ. eigenvalues --   -0.48794  -0.43055  -0.43054  -0.36468
  Beta virt. eigenvalues --    0.02263   0.03534   0.05635   0.05635   0.08601
  Beta virt. eigenvalues --    0.08601   0.09261   0.13343   0.17074   0.18350
  Beta virt. eigenvalues --    0.18351   0.21815   0.21815   0.24254   0.27445

 Mulliken charges and spin densities:
               1          2
     1  C   -0.489817  -0.000000
     2  C   -0.489817   0.000000
     3  H    0.163273  -0.000000
     4  H    0.163273   0.000000
     5  H    0.163273  -0.000000
     6  H    0.163272  -0.000000
     7  H    0.163273   0.000000
     8  H    0.163272   0.000000
 Sum of Mulliken charges =  -0.00000  -0.00000

 Dipole moment (field-independent basis, Debye):
    X=             -0.0000    Y=             -0.0000    Z=             -0.0000  Tot=              0.0000
 Quadrupole moment (field-independent basis, Debye-Ang):
   XX=            -15.5928   YY=            -14.9245   ZZ=            -14.9246
   XY=              0.0000   XZ=              0.0001   YZ=             -0.0000

 Normal termination of Gaussian 16 at Tue Nov 19 12:00:42 2024.
