 Gaussian 16, Revision A.03,
 Gaussian 16:  ES64L-G16RevA.03 25-Dec-2016

 --------------------------------------------
 #p opt UM062X/6-311+G** nosymm int=superfine
 --------------------------------------------

 -------------------
 Title Card Required
 -------------------
 Symbolic Z-matrix:
 Charge =  1 Multiplicity = 2

 SCF Done:  E(UM062X) =  -580.953156302     A.U. after   10 cycles
 SCF Done:  E(UM062X) =  -580.953325439     A.U. after    8 cycles
 SCF Done:  E(UM062X) =  -580.953378085     A.U. after   10 cycles
 SCF Done:  E(UM062X) =  -580.953111085     A.U. after   10 cycles
 SCF Done:  E(UM062X) =  -580.953381666     A.U. after    7 cycles
 SCF Done:  E(UM062X) =  -580.953381665     A.U. after    7 cycles
 SCF Done:  E(UM062X) =  -580.953381715     A.U. after    7 cycles
 Optimization completed.
    -- Stationary point found.

                          Input orientation:
 ---------------------------------------------------------------------
 Center     Atomic      Atomic             Coordinates (Angstroms)
 Number     Number       Type             X           Y           Z
 ---------------------------------------------------------------------
      1         14           0       -1.341295    0.000000    0.000000
      2         14           0        1.341295    0.000000    0.000000
      3          1           0       -2.041863   -1.288893   -0.000564
      4          1           0        2.041862    1.288893    0.000565
      5          1           0       -2.041865    1.288892    0.000683
      6          1           0        2.041865   -1.288892   -0.000683
 ---------------------------------------------------------------------

 Alpha  occ. eigenvalues --  -67.26475 -67.26475  -5.80894  -5.80892  -4.12563
 Alpha  occ. eigenvalues --   -4.12561  -4.11845  -4.11832  -4.11729  -4.11728
 Alpha  occ. eigenvalues --   -0.83506  -0.78996  -0.64605  -0.63308  -0.56207
 Alpha  occ. eigenvalues --   -0.44732
 Alpha virt. eigenvalues --   -0.29158  -0.23834  -0.15112  -0.13484  -0.11193
 Alpha virt. eigenvalues --   -0.11096  -0.09367  -0.08937  -0.08144  -0.07423
 Alpha virt. eigenvalues --   -0.06956  -0.05737  -0.01429   0.03349   0.10580

  Beta  occ. eigenvalues --  -67.26186 -67.26186  -5.80810  -5.80809  -4.11851
  Beta  occ. eigenvalues --   -4.11849  -4.11780  -4.11766  -4.11623  -4.11622
  Beta  occ. eigenvalues --   -0.81468  -0.77604  -0.64527  -0.63407  -0.55525
  Beta virt. eigenvalues --   -0.30126  -0.24053  -0.21498  -0.15155  -0.14364
  Beta virt. eigenvalues --   -0.12065  -0.11001  -0.09213  -0.09213  -0.07697
  Beta virt. eigenvalues --   -0.06969  -0.06656  -0.03891  -0.02951   0.03219

 Mulliken charges and spin densities:
               1          2
     1  Si   0.435232   0.553670
     2  Si   0.435232   0.553670
     3  H    0.032384  -0.026835
     4  H    0.032384  -0.026835
     5  H    0.032384  -0.026835
     6  H    0.032384  -0.026835
 Sum of Mulliken charges =   1.00000   1.00000

 Dipole moment (field-independent basis, Debye):
    X=             -0.0000    Y=             -0.0000    Z=             -0.0000  Tot=              0.0000
 Quadrupole moment (field-independent basis, Debye-Ang):
   XX=            -11.2005   YY=            -23.5366   ZZ=            -24.2671
   XY=             -0.0000   XZ=              0.0001   YZ=              0.0004

 Normal termination of Gaussian 16 at Mon Apr 21 20:23:39 2025.
