 Gaussian 16, Revision A.03,
 Gaussian 16:  ES64L-G16RevA.03 25-Dec-2016

 ---------------------------------------
 #p UM062X/6-311+G** force int=superfine
 ---------------------------------------

 -------------------
 Title Card Required
 -------------------
 Symbolic Z-matrix:
 Charge =  1 Multiplicity = 2

                         Standard orientation:
 ---------------------------------------------------------------------
 Center     Atomic      Atomic             Coordinates (Angstroms)
 Number     Number       Type             X           Y           Z
 ---------------------------------------------------------------------
      1          6           0        0.000000    1.102752    0.000000
      2          6           0       -0.000000   -1.102752    0.000000
      3          1           0       -0.992140    1.542491    0.000000
      4          1           0        0.992293    1.542453    0.000000
      5          1           0        0.992140   -1.542491    0.000000
      6          1           0       -0.992293   -1.542453    0.000000
 ---------------------------------------------------------------------

 SCF Done:  E(UM062X) =  -78.0208655837     A.U. after    9 cycles

 The electronic state is 2-AU.
 Alpha  occ. eigenvalues --  -10.92368 -10.92357  -1.05341  -1.00435  -0.80276
 Alpha  occ. eigenvalues --   -0.78045  -0.64312  -0.54693
 Alpha virt. eigenvalues --   -0.37492  -0.28135  -0.13934  -0.10932  -0.10338
 Alpha virt. eigenvalues --   -0.08180  -0.07530  -0.07040  -0.04746  -0.03900
 Alpha virt. eigenvalues --   -0.03319   0.00001   0.01925   0.09251   0.17931

  Beta  occ. eigenvalues --  -10.92126 -10.92119  -1.02378  -0.98141  -0.79800
  Beta  occ. eigenvalues --   -0.77685  -0.62660
  Beta virt. eigenvalues --   -0.34384  -0.28439  -0.25886  -0.15152  -0.11209
  Beta virt. eigenvalues --   -0.10474  -0.07557  -0.07384  -0.07334  -0.04042
  Beta virt. eigenvalues --   -0.03827  -0.02812   0.00531   0.00997   0.10095

 Mulliken charges and spin densities:
               1          2
     1  C   -0.068117   0.541671
     2  C   -0.068117   0.541671
     3  H    0.284050  -0.020835
     4  H    0.284066  -0.020837
     5  H    0.284050  -0.020835
     6  H    0.284066  -0.020837
 Sum of Mulliken charges =   1.00000   1.00000

 Dipole moment (field-independent basis, Debye):
    X=             -0.0000    Y=             -0.0000    Z=              0.0000  Tot=              0.0000
 Quadrupole moment (field-independent basis, Debye-Ang):
   XX=             -8.0390   YY=             -0.7616   ZZ=            -12.6820
   XY=              0.0004   XZ=              0.0000   YZ=              0.0000

 Normal termination of Gaussian 16 at Tue Nov 19 11:57:16 2024.
