 Gaussian 16, Revision A.03,
 Gaussian 16:  ES64L-G16RevA.03 25-Dec-2016

 --------------------------------------------
 #p opt UM062X/6-311+G** nosymm int=superfine
 --------------------------------------------

 -------------------
 Title Card Required
 -------------------
 Symbolic Z-matrix:
 Charge =  1 Multiplicity = 2

 SCF Done:  E(UM062X) =  -75.1942302086     A.U. after    9 cycles
 SCF Done:  E(UM062X) =  -75.5336351809     A.U. after   11 cycles
 SCF Done:  E(UM062X) =  -75.7465512336     A.U. after   11 cycles
 SCF Done:  E(UM062X) =  -75.7529212977     A.U. after   63 cycles
 SCF Done:  E(UM062X) =  -75.7537738724     A.U. after    9 cycles
 Optimization completed.
    -- Stationary point found.

                          Input orientation:
 ---------------------------------------------------------------------
 Center     Atomic      Atomic             Coordinates (Angstroms)
 Number     Number       Type             X           Y           Z
 ---------------------------------------------------------------------
      1          6           0       -0.379019    0.000000    0.000000
      2          6           0        0.379019    0.000000    0.000000
      3          1           0       -1.442356    0.000000    0.000000
      4          1           0        1.442354   -0.000000   -0.000000
 ---------------------------------------------------------------------

 Alpha  occ. eigenvalues --  -10.99604 -10.88316  -1.32470  -0.95718  -0.93143
 Alpha  occ. eigenvalues --   -0.91876  -0.91234
 Alpha virt. eigenvalues --   -0.15170  -0.13187  -0.13153  -0.12614  -0.12194
 Alpha virt. eigenvalues --   -0.12124  -0.11535  -0.00347  -0.00021   0.00810
 Alpha virt. eigenvalues --    0.02869   0.03405   0.17441   0.21560   0.22583

  Beta  occ. eigenvalues --  -10.98897 -10.87835  -1.25034  -0.91616  -0.90719
  Beta  occ. eigenvalues --   -0.88332
  Beta virt. eigenvalues --   -0.60620  -0.15459  -0.12882  -0.12568  -0.12236
  Beta virt. eigenvalues --   -0.11669  -0.11487  -0.11418   0.00147   0.01460
  Beta virt. eigenvalues --    0.02477   0.03499   0.03989   0.17672   0.20702

 Mulliken charges and spin densities:
               1          2
     1  C    0.271609   0.525813
     2  C    0.271603   0.525812
     3  H    0.228395  -0.025813
     4  H    0.228393  -0.025813
 Sum of Mulliken charges =   1.00000   1.00000

 Dipole moment (field-independent basis, Debye):
    X=             -0.0000    Y=             -0.0000    Z=              0.0000  Tot=              0.0000
 Quadrupole moment (field-independent basis, Debye-Ang):
   XX=             -3.2141   YY=             -9.1523   ZZ=             -8.2375
   XY=             -0.0000   XZ=             -0.0000   YZ=              0.4292

 Normal termination of Gaussian 16 at Tue Nov 19 12:33:25 2024.
