 Gaussian 16, Revision A.03,
 Gaussian 16:  ES64L-G16RevA.03 25-Dec-2016

 --------------------------------------------
 #p opt UM062X/6-311+G** nosymm int=superfine
 --------------------------------------------

 -------------------
 Title Card Required
 -------------------
 Symbolic Z-matrix:
 Charge =  0 Multiplicity = 1

 SCF Done:  E(UM062X) =  -114.112243321     A.U. after   15 cycles
 SCF Done:  E(UM062X) =  -114.113175597     A.U. after   10 cycles
 SCF Done:  E(UM062X) =  -114.113427365     A.U. after    9 cycles
 SCF Done:  E(UM062X) =  -114.113434765     A.U. after   13 cycles
 Optimization completed.
    -- Stationary point found.

                          Input orientation:
 ---------------------------------------------------------------------
 Center     Atomic      Atomic             Coordinates (Angstroms)
 Number     Number       Type             X           Y           Z
 ---------------------------------------------------------------------
      1          6           0       -1.373311    0.000000    0.000000
      2          8           0        1.373311    0.000000    0.000000
      3          1           0       -2.012413   -0.894401   -0.000035
      4          1           0       -2.012418    0.894398   -0.000035
 ---------------------------------------------------------------------

 Alpha  occ. eigenvalues --  -19.69008 -10.67040  -0.99422  -0.80046  -0.53453
 Alpha  occ. eigenvalues --   -0.38130  -0.38122  -0.35573
 Alpha virt. eigenvalues --   -0.12557  -0.12134   0.00901   0.05323   0.07110
 Alpha virt. eigenvalues --    0.07582   0.15525   0.16503   0.19056   0.21950
 Alpha virt. eigenvalues --    0.24819   0.30314   0.41994   0.44560   0.55326

  Beta  occ. eigenvalues --  -19.69008 -10.67040  -0.99422  -0.80046  -0.53453
  Beta  occ. eigenvalues --   -0.38130  -0.38122  -0.35573
  Beta virt. eigenvalues --   -0.12557  -0.12134   0.00901   0.05323   0.07110
  Beta virt. eigenvalues --    0.07582   0.15525   0.16503   0.19056   0.21950
  Beta virt. eigenvalues --    0.24819   0.30314   0.41994   0.44560   0.55326

 Mulliken charges and spin densities:
               1          2
     1  C   -0.209300  -0.000000
     2  O   -0.132852   0.000000
     3  H    0.171076  -0.000000
     4  H    0.171076  -0.000000
 Sum of Mulliken charges =  -0.00000  -0.00000

 Dipole moment (field-independent basis, Debye):
    X=             -4.2822    Y=             -0.0000    Z=             -0.0001  Tot=              4.2822
 Quadrupole moment (field-independent basis, Debye-Ang):
   XX=             -7.1339   YY=            -12.7051   ZZ=            -12.5109
   XY=             -0.0000   XZ=             -0.0000   YZ=             -0.0000

 Normal termination of Gaussian 16 at Mon Apr 21 18:44:51 2025.
