 Gaussian 16, Revision A.03,
 Gaussian 16:  ES64L-G16RevA.03 25-Dec-2016

 ---------------------------------------------------
 #p UM062X/6-311+G** force int=superfine pop=saveNBO
 ---------------------------------------------------

 -------------------
 Title Card Required
 -------------------
 Symbolic Z-matrix:
 Charge =  0 Multiplicity = 1

                         Standard orientation:
 ---------------------------------------------------------------------
 Center     Atomic      Atomic             Coordinates (Angstroms)
 Number     Number       Type             X           Y           Z
 ---------------------------------------------------------------------
      1          6           0        0.000000    0.000000   -0.698379
      2          8           0        0.000000    0.000000    0.523785
 ---------------------------------------------------------------------

 SCF Done:  E(UM062X) =  -113.290531072     A.U. after    9 cycles

 The electronic state is 1-SG.
 Alpha  occ. eigenvalues --  -19.74001 -10.69682  -1.24408  -0.67284  -0.52485
 Alpha  occ. eigenvalues --   -0.52485  -0.46056
 Alpha virt. eigenvalues --   -0.01990  -0.01990   0.03526   0.06209   0.07359
 Alpha virt. eigenvalues --    0.07359   0.19369   0.22493   0.22493   0.28724
 Alpha virt. eigenvalues --    0.39145   0.55878   0.55878   0.64115   0.84890

  Beta  occ. eigenvalues --  -19.74001 -10.69682  -1.24408  -0.67284  -0.52485
  Beta  occ. eigenvalues --   -0.52485  -0.46056
  Beta virt. eigenvalues --   -0.01990  -0.01990   0.03526   0.06209   0.07359
  Beta virt. eigenvalues --    0.07359   0.19369   0.22493   0.22493   0.28724
  Beta virt. eigenvalues --    0.39145   0.55878   0.55878   0.64115   0.84890

 Mulliken charges and spin densities:
               1          2
     1  C    0.072549   0.000000
     2  O   -0.072549  -0.000000
 Sum of Mulliken charges =   0.00000  -0.00000

 Dipole moment (field-independent basis, Debye):
    X=              0.0000    Y=              0.0000    Z=             -0.4108  Tot=              0.4108
 Quadrupole moment (field-independent basis, Debye-Ang):
   XX=            -10.4968   YY=            -10.4968   ZZ=            -12.3607
   XY=              0.0000   XZ=              0.0000   YZ=              0.0000

 Summary of Natural Population Analysis:

                                       Natural Population
                Natural  -----------------------------------------------
    Atom  No    Charge         Core      Valence    Rydberg      Total
 -----------------------------------------------------------------------
      C    1    0.27005      0.99993     1.70585    0.02416     2.72995
      O    2   -0.27005      0.99992     3.26282    0.00731     4.27005
 =======================================================================
   * Total *   -0.00000      1.99985     4.96867    0.03148     7.00000

 Normal termination of Gaussian 16 at Mon Apr 21 19:31:10 2025.
