 Gaussian 16, Revision A.03,
 Gaussian 16:  ES64L-G16RevA.03 25-Dec-2016

 ---------------------------------------
 #p UM062X/6-311+G** force int=superfine
 ---------------------------------------

 -------------------
 Title Card Required
 -------------------
 Symbolic Z-matrix:
 Charge =  1 Multiplicity = 2

                         Standard orientation:
 ---------------------------------------------------------------------
 Center     Atomic      Atomic             Coordinates (Angstroms)
 Number     Number       Type             X           Y           Z
 ---------------------------------------------------------------------
      1          6           0        0.000000    0.968442    0.000000
      2          6           0       -0.000000   -0.968442    0.000000
      3          1           0        0.975941    1.441334    0.000000
      4          1           0       -0.975840    1.441381   -0.000000
      5          1           0       -0.975941   -1.441334    0.000000
      6          1           0        0.975840   -1.441381   -0.000000
 ---------------------------------------------------------------------

 SCF Done:  E(UM062X) =  -78.0836931713     A.U. after    9 cycles

 The electronic state is 2-AU.
 Alpha  occ. eigenvalues --  -10.92027 -10.92009  -1.07832  -0.99823  -0.81056
 Alpha  occ. eigenvalues --   -0.77090  -0.68962  -0.57413
 Alpha virt. eigenvalues --   -0.35799  -0.21691  -0.14230  -0.11112  -0.09786
 Alpha virt. eigenvalues --   -0.08535  -0.07415  -0.07261  -0.04744  -0.04268
 Alpha virt. eigenvalues --   -0.02384  -0.00853   0.02275   0.09475   0.18106

  Beta  occ. eigenvalues --  -10.91795 -10.91783  -1.04658  -0.97631  -0.80463
  Beta  occ. eigenvalues --   -0.76738  -0.67513
  Beta virt. eigenvalues --   -0.36161  -0.27288  -0.19279  -0.15639  -0.11471
  Beta virt. eigenvalues --   -0.09681  -0.08124  -0.07755  -0.07361  -0.04307
  Beta virt. eigenvalues --   -0.03965  -0.01950  -0.00251   0.01530   0.10139

 Mulliken charges and spin densities:
               1          2
     1  C   -0.066108   0.540857
     2  C   -0.066108   0.540857
     3  H    0.283057  -0.020429
     4  H    0.283051  -0.020428
     5  H    0.283057  -0.020429
     6  H    0.283051  -0.020428
 Sum of Mulliken charges =   1.00000   1.00000

 Dipole moment (field-independent basis, Debye):
    X=             -0.0000    Y=              0.0000    Z=              0.0000  Tot=              0.0000
 Quadrupole moment (field-independent basis, Debye-Ang):
   XX=             -8.1974   YY=             -2.6506   ZZ=            -12.3967
   XY=              0.0001   XZ=             -0.0000   YZ=             -0.0000

 Normal termination of Gaussian 16 at Tue Nov 19 11:56:10 2024.
