 Gaussian 16, Revision A.03,
 Gaussian 16:  ES64L-G16RevA.03 25-Dec-2016

 --------------------------------------------
 #p opt UM062X/6-311+G** nosymm int=superfine
 --------------------------------------------

 -------------------
 Title Card Required
 -------------------
 Symbolic Z-matrix:
 Charge =  1 Multiplicity = 2

 SCF Done:  E(UM062X) =  -579.679430990     A.U. after   14 cycles
 SCF Done:  E(UM062X) =  -579.681156554     A.U. after   12 cycles
 SCF Done:  E(UM062X) =  -579.684281196     A.U. after   14 cycles
 SCF Done:  E(UM062X) =  -579.685354554     A.U. after   14 cycles
 SCF Done:  E(UM062X) =  -579.685740716     A.U. after   14 cycles
 SCF Done:  E(UM062X) =  -579.685821862     A.U. after   12 cycles
 SCF Done:  E(UM062X) =  -579.685836435     A.U. after   12 cycles
 SCF Done:  E(UM062X) =  -579.685845201     A.U. after   12 cycles
 SCF Done:  E(UM062X) =  -579.685851905     A.U. after   12 cycles
 SCF Done:  E(UM062X) =  -579.685860951     A.U. after   10 cycles
 SCF Done:  E(UM062X) =  -579.685868640     A.U. after   12 cycles
 SCF Done:  E(UM062X) =  -579.685868733     A.U. after    9 cycles
 Optimization completed.
    -- Stationary point found.

                          Input orientation:
 ---------------------------------------------------------------------
 Center     Atomic      Atomic             Coordinates (Angstroms)
 Number     Number       Type             X           Y           Z
 ---------------------------------------------------------------------
      1         14           0       -2.052975    0.000000    0.000000
      2         14           0        2.052975    0.000000    0.000000
      3          1           0       -2.142836   -1.505325    0.000000
      4          1           0        2.142902    1.505328    0.000000
 ---------------------------------------------------------------------

 Alpha  occ. eigenvalues --  -67.26672 -67.26672  -5.80838  -5.80837  -4.11934
 Alpha  occ. eigenvalues --   -4.11934  -4.11854  -4.11854  -4.11203  -4.11202
 Alpha  occ. eigenvalues --   -0.75920  -0.75128  -0.52472  -0.52276  -0.41248
 Alpha virt. eigenvalues --   -0.28711  -0.27909  -0.26751  -0.10980  -0.09644
 Alpha virt. eigenvalues --   -0.08638  -0.08351  -0.07813  -0.06791  -0.05621
 Alpha virt. eigenvalues --   -0.05569  -0.05022  -0.02701   0.13297   0.13353

  Beta  occ. eigenvalues --  -67.26420 -67.26420  -5.80766  -5.80763  -4.11793
  Beta  occ. eigenvalues --   -4.11793  -4.11263  -4.11263  -4.11093  -4.11092
  Beta  occ. eigenvalues --   -0.74000  -0.73514  -0.51854  -0.51523
  Beta virt. eigenvalues --   -0.28021  -0.27677  -0.26318  -0.23304  -0.13590
  Beta virt. eigenvalues --   -0.10542  -0.09036  -0.08568  -0.08389  -0.06689
  Beta virt. eigenvalues --   -0.05522  -0.05389  -0.05259  -0.02745   0.12092

 Mulliken charges and spin densities:
               1          2
     1  Si   0.580647   0.509779
     2  Si   0.580643   0.509782
     3  H   -0.080646  -0.009781
     4  H   -0.080644  -0.009780
 Sum of Mulliken charges =   1.00000   1.00000

 Dipole moment (field-independent basis, Debye):
    X=              0.0000    Y=             -0.0000    Z=              0.0000  Tot=              0.0000
 Quadrupole moment (field-independent basis, Debye-Ang):
   XX=              1.0107   YY=            -27.6783   ZZ=            -19.9179
   XY=              2.2482   XZ=              0.0000   YZ=             -0.0000

 Normal termination of Gaussian 16 at Mon Apr 21 20:42:28 2025.
