 Gaussian 16, Revision A.03,
 Gaussian 16:  ES64L-G16RevA.03 25-Dec-2016

 --------------------------------------------
 #p opt UM062X/6-311+G** nosymm int=superfine
 --------------------------------------------

 -------------------
 Title Card Required
 -------------------
 Symbolic Z-matrix:
 Charge =  0 Multiplicity = 1

 SCF Done:  E(UM062X) =  -684.967852460     A.U. after   11 cycles
 SCF Done:  E(UM062X) =  -684.969676093     A.U. after   11 cycles
 SCF Done:  E(UM062X) =  -684.970732038     A.U. after   11 cycles
 SCF Done:  E(UM062X) =  -684.970836167     A.U. after   10 cycles
 SCF Done:  E(UM062X) =  -684.970876035     A.U. after   10 cycles
 SCF Done:  E(UM062X) =  -684.970896605     A.U. after    9 cycles
 SCF Done:  E(UM062X) =  -684.970919040     A.U. after   10 cycles
 SCF Done:  E(UM062X) =  -684.970959501     A.U. after   10 cycles
 SCF Done:  E(UM062X) =  -684.970996491     A.U. after   10 cycles
 SCF Done:  E(UM062X) =  -684.971040623     A.U. after   10 cycles
 SCF Done:  E(UM062X) =  -684.971017966     A.U. after   10 cycles
 SCF Done:  E(UM062X) =  -684.971070065     A.U. after   11 cycles
 SCF Done:  E(UM062X) =  -684.971096456     A.U. after   10 cycles
 SCF Done:  E(UM062X) =  -684.971109674     A.U. after   11 cycles
 SCF Done:  E(UM062X) =  -684.971112940     A.U. after    9 cycles
 SCF Done:  E(UM062X) =  -684.971114344     A.U. after    9 cycles
 SCF Done:  E(UM062X) =  -684.971114223     A.U. after    8 cycles
 SCF Done:  E(UM062X) =  -684.971114422     A.U. after    8 cycles
 SCF Done:  E(UM062X) =  -684.971114464     A.U. after    7 cycles
 Optimization completed.
    -- Stationary point found.

                          Input orientation:
 ---------------------------------------------------------------------
 Center     Atomic      Atomic             Coordinates (Angstroms)
 Number     Number       Type             X           Y           Z
 ---------------------------------------------------------------------
      1         15           0       -1.717217    0.000000    0.000000
      2         15           0        1.717217    0.000000    0.000000
      3          1           0        1.668837   -0.944647    1.057085
      4          1           0       -1.671112    1.023159    0.981522
      5          1           0        1.671391   -1.022688   -0.982026
      6          1           0       -1.668687    0.944133   -1.057536
 ---------------------------------------------------------------------

 Alpha  occ. eigenvalues --  -78.04813 -78.04813  -6.87157  -6.87156  -4.98707
 Alpha  occ. eigenvalues --   -4.98707  -4.98594  -4.98593  -4.98408  -4.98407
 Alpha  occ. eigenvalues --   -0.71511  -0.70088  -0.45146  -0.44437  -0.36304
 Alpha  occ. eigenvalues --   -0.35705  -0.27240
 Alpha virt. eigenvalues --   -0.11290   0.01630   0.03038   0.03299   0.04138
 Alpha virt. eigenvalues --    0.04769   0.05632   0.06113   0.06220   0.06649
 Alpha virt. eigenvalues --    0.08580   0.15957   0.18703   0.28148   0.28384

  Beta  occ. eigenvalues --  -78.04813 -78.04813  -6.87157  -6.87156  -4.98707
  Beta  occ. eigenvalues --   -4.98707  -4.98594  -4.98593  -4.98408  -4.98407
  Beta  occ. eigenvalues --   -0.71511  -0.70088  -0.45146  -0.44437  -0.36304
  Beta  occ. eigenvalues --   -0.35705  -0.27240
  Beta virt. eigenvalues --   -0.11290   0.01630   0.03038   0.03299   0.04138
  Beta virt. eigenvalues --    0.04769   0.05632   0.06113   0.06220   0.06649
  Beta virt. eigenvalues --    0.08580   0.15957   0.18703   0.28148   0.28384

 Mulliken charges and spin densities:
               1          2
     1  P   -0.032067   0.000000
     2  P   -0.032103  -0.000000
     3  H    0.016062   0.000000
     4  H    0.016028  -0.000000
     5  H    0.016022   0.000000
     6  H    0.016058  -0.000000
 Sum of Mulliken charges =  -0.00000   0.00000

 Dipole moment (field-independent basis, Debye):
    X=              0.0000    Y=              0.0000    Z=             -0.0004  Tot=              0.0004
 Quadrupole moment (field-independent basis, Debye-Ang):
   XX=            -29.2167   YY=            -31.1638   ZZ=            -28.4021
   XY=             -3.8057   XZ=              0.1424   YZ=              0.1056

 Normal termination of Gaussian 16 at Mon Apr 21 20:50:49 2025.
