 Gaussian 16, Revision A.03,
 Gaussian 16:  ES64L-G16RevA.03 25-Dec-2016

 ---------------------------------------
 #p UM062X/6-311+G** force int=superfine
 ---------------------------------------

 -------------------
 Title Card Required
 -------------------
 Symbolic Z-matrix:
 Charge =  0 Multiplicity = 1

                         Standard orientation:
 ---------------------------------------------------------------------
 Center     Atomic      Atomic             Coordinates (Angstroms)
 Number     Number       Type             X           Y           Z
 ---------------------------------------------------------------------
      1          6           0        0.010568   -0.111816   -1.193557
      2          6           0       -0.010568    0.111815    1.193557
      3          1           0        0.430146    1.091597    1.324650
      4          1           0       -0.600382    0.728575   -1.496664
      5          1           0        0.600380   -0.728574    1.496668
      6          1           0       -1.068012    0.033417    1.410493
      7          1           0       -0.430146   -1.091597   -1.324649
      8          1           0        1.068010   -0.033417   -1.410496
 ---------------------------------------------------------------------

 SCF Done:  E(UM062X) =  -79.6880075710     A.U. after    8 cycles

 The electronic state is 1-A.
 Alpha  occ. eigenvalues --  -10.55642 -10.55637  -0.77539  -0.74035  -0.48273
 Alpha  occ. eigenvalues --   -0.48272  -0.46182  -0.46182  -0.28686
 Alpha virt. eigenvalues --   -0.01226   0.02522   0.05536   0.05536   0.07145
 Alpha virt. eigenvalues --    0.08260   0.08260   0.10061   0.13029   0.18163
 Alpha virt. eigenvalues --    0.18163   0.22047   0.22047   0.24364   0.26215

  Beta  occ. eigenvalues --  -10.55642 -10.55637  -0.77539  -0.74035  -0.48273
  Beta  occ. eigenvalues --   -0.48272  -0.46182  -0.46182  -0.28686
  Beta virt. eigenvalues --   -0.01226   0.02522   0.05536   0.05536   0.07145
  Beta virt. eigenvalues --    0.08260   0.08260   0.10061   0.13029   0.18163
  Beta virt. eigenvalues --    0.18163   0.22047   0.22047   0.24364   0.26215

 Mulliken charges and spin densities:
               1          2
     1  C   -0.509541  -0.000000
     2  C   -0.509540   0.000000
     3  H    0.169847  -0.000000
     4  H    0.169847   0.000000
     5  H    0.169847  -0.000000
     6  H    0.169847  -0.000000
     7  H    0.169847   0.000000
     8  H    0.169847   0.000000
 Sum of Mulliken charges =  -0.00000  -0.00000

 Dipole moment (field-independent basis, Debye):
    X=             -0.0000    Y=              0.0000    Z=              0.0000  Tot=              0.0000
 Quadrupole moment (field-independent basis, Debye-Ang):
   XX=            -14.8097   YY=            -14.8159   ZZ=            -15.5281
   XY=              0.0006   XZ=              0.0064   YZ=             -0.0673

 Normal termination of Gaussian 16 at Tue Nov 19 12:56:47 2024.
