 Gaussian 16, Revision A.03,
 Gaussian 16:  ES64L-G16RevA.03 25-Dec-2016

 --------------------------------------------
 #p opt UM062X/6-311+G** nosymm int=superfine
 --------------------------------------------

 -------------------
 Title Card Required
 -------------------
 Symbolic Z-matrix:
 Charge =  0 Multiplicity = 1

 SCF Done:  E(UM062X) =  -77.1751483758     A.U. after    9 cycles
 SCF Done:  E(UM062X) =  -77.2101020863     A.U. after    9 cycles
 SCF Done:  E(UM062X) =  -77.2258990829     A.U. after    9 cycles
 SCF Done:  E(UM062X) =  -77.2259478242     A.U. after    8 cycles
 Optimization completed.
    -- Stationary point found.

                          Input orientation:
 ---------------------------------------------------------------------
 Center     Atomic      Atomic             Coordinates (Angstroms)
 Number     Number       Type             X           Y           Z
 ---------------------------------------------------------------------
      1          6           0       -0.730189    0.000000    0.000000
      2          6           0        0.730189    0.000000    0.000000
      3          1           0       -1.800429   -0.000014   -0.000014
      4          1           0        1.800423   -0.000009   -0.000009
 ---------------------------------------------------------------------

 Alpha  occ. eigenvalues --  -10.61629 -10.61566  -0.80451  -0.67732  -0.55490
 Alpha  occ. eigenvalues --   -0.32312  -0.32312
 Alpha virt. eigenvalues --   -0.00339  -0.00339   0.02027   0.02422   0.08091
 Alpha virt. eigenvalues --    0.08091   0.09367   0.11688   0.11986   0.11986
 Alpha virt. eigenvalues --    0.18310   0.23459   0.32553   0.45952   0.58583

  Beta  occ. eigenvalues --  -10.61629 -10.61566  -0.80451  -0.67732  -0.55490
  Beta  occ. eigenvalues --   -0.32312  -0.32312
  Beta virt. eigenvalues --   -0.00339  -0.00339   0.02027   0.02422   0.08091
  Beta virt. eigenvalues --    0.08091   0.09367   0.11688   0.11986   0.11986
  Beta virt. eigenvalues --    0.18310   0.23459   0.32553   0.45952   0.58583

 Mulliken charges and spin densities:
               1          2
     1  C   -0.218777  -0.000000
     2  C   -0.218777   0.000000
     3  H    0.218778  -0.000000
     4  H    0.218776   0.000000
 Sum of Mulliken charges =  -0.00000   0.00000

 Dipole moment (field-independent basis, Debye):
    X=             -0.0000    Y=             -0.0000    Z=             -0.0000  Tot=              0.0000
 Quadrupole moment (field-independent basis, Debye-Ang):
   XX=             -5.9260   YY=            -14.9533   ZZ=            -14.9533
   XY=              0.0000   XZ=              0.0000   YZ=              0.0000

 Normal termination of Gaussian 16 at Tue Dec  3 20:08:20 2024.
