 Gaussian 16, Revision A.03,
 Gaussian 16:  ES64L-G16RevA.03 25-Dec-2016

 ---------------------------------------
 #p UM062X/6-311+G** force int=superfine
 ---------------------------------------

 -------------------
 Title Card Required
 -------------------
 Symbolic Z-matrix:
 Charge =  0 Multiplicity = 1

                         Standard orientation:
 ---------------------------------------------------------------------
 Center     Atomic      Atomic             Coordinates (Angstroms)
 Number     Number       Type             X           Y           Z
 ---------------------------------------------------------------------
      1          6           0        0.595597    0.000006   -0.000002
      2          6           0       -0.595598   -0.000006    0.000001
      3          1           0       -1.071657   -0.989305    0.103140
      4          1           0        1.071671   -0.405329    0.908326
      5          1           0       -1.071672    0.405330   -0.908326
      6          1           0       -1.071676    0.583978    0.805180
      7          1           0        1.071657    0.989305   -0.103138
      8          1           0        1.071677   -0.583978   -0.805179
 ---------------------------------------------------------------------

 SCF Done:  E(UM062X) =  -79.6921510059     A.U. after    8 cycles

 The electronic state is 1-A.
 Alpha  occ. eigenvalues --  -10.50116 -10.49838  -0.93296  -0.68043  -0.54050
 Alpha  occ. eigenvalues --   -0.54050  -0.50370  -0.35788  -0.35788
 Alpha virt. eigenvalues --    0.02077   0.04197   0.04881   0.04881   0.08654
 Alpha virt. eigenvalues --    0.08955   0.08955   0.14238   0.19260   0.19261
 Alpha virt. eigenvalues --    0.19749   0.19749   0.24033   0.27918   0.38258

  Beta  occ. eigenvalues --  -10.50116 -10.49838  -0.93296  -0.68043  -0.54050
  Beta  occ. eigenvalues --   -0.54050  -0.50370  -0.35788  -0.35788
  Beta virt. eigenvalues --    0.02077   0.04197   0.04881   0.04881   0.08654
  Beta virt. eigenvalues --    0.08955   0.08955   0.14238   0.19260   0.19261
  Beta virt. eigenvalues --    0.19749   0.19749   0.24033   0.27918   0.38258

 Mulliken charges and spin densities:
               1          2
     1  C   -0.432300  -0.000000
     2  C   -0.432300   0.000000
     3  H    0.144101  -0.000000
     4  H    0.144099  -0.000000
     5  H    0.144099  -0.000000
     6  H    0.144100  -0.000000
     7  H    0.144101   0.000000
     8  H    0.144100   0.000000
 Sum of Mulliken charges =  -0.00000  -0.00000

 Dipole moment (field-independent basis, Debye):
    X=              0.0000    Y=              0.0000    Z=              0.0000  Tot=              0.0000
 Quadrupole moment (field-independent basis, Debye-Ang):
   XX=            -15.6428   YY=            -14.9491   ZZ=            -14.9493
   XY=             -0.0000   XZ=             -0.0000   YZ=              0.0000

 Normal termination of Gaussian 16 at Tue Nov 19 12:38:31 2024.
