 Gaussian 16, Revision A.03,
 Gaussian 16:  ES64L-G16RevA.03 25-Dec-2016

 --------------------------------------------
 #p opt UM062X/6-311+G** nosymm int=superfine
 --------------------------------------------

 -------------------
 Title Card Required
 -------------------
 Symbolic Z-matrix:
 Charge =  1 Multiplicity = 2

 SCF Done:  E(UM062X) =  -76.5847380121     A.U. after   79 cycles
 SCF Done:  E(UM062X) =  -76.5850751192     A.U. after   66 cycles
 Optimization completed.
    -- Stationary point found.

                          Input orientation:
 ---------------------------------------------------------------------
 Center     Atomic      Atomic             Coordinates (Angstroms)
 Number     Number       Type             X           Y           Z
 ---------------------------------------------------------------------
      1          6           0       -1.907160    0.000000    0.000000
      2          6           0        1.907160    0.000000    0.000000
      3          1           0       -3.024795    0.000000    0.000000
      4          1           0        3.024794    0.000000    0.000000
 ---------------------------------------------------------------------

 Alpha  occ. eigenvalues --  -10.94447 -10.94446  -0.98132  -0.97996  -0.64008
 Alpha  occ. eigenvalues --   -0.62706  -0.48046
 Alpha virt. eigenvalues --   -0.40573  -0.33309  -0.32960  -0.12286  -0.11340
 Alpha virt. eigenvalues --   -0.07691  -0.07247  -0.05410  -0.04753  -0.04408
 Alpha virt. eigenvalues --   -0.01590  -0.00508   0.05847   0.25527   0.29718

  Beta  occ. eigenvalues --  -10.94035 -10.94035  -0.95738  -0.95678  -0.62673
  Beta  occ. eigenvalues --   -0.61293
  Beta virt. eigenvalues --   -0.31481  -0.31038  -0.29890  -0.29383  -0.12761
  Beta virt. eigenvalues --   -0.11265  -0.07081  -0.06302  -0.06082  -0.04012
  Beta virt. eigenvalues --   -0.03080  -0.02066   0.01055   0.07470   0.24707

 Mulliken charges and spin densities:
               1          2
     1  C    0.269023   0.516458
     2  C    0.269023   0.516458
     3  H    0.230977  -0.016458
     4  H    0.230977  -0.016458
 Sum of Mulliken charges =   1.00000   1.00000

 Dipole moment (field-independent basis, Debye):
    X=             -0.0000    Y=              0.0000    Z=              0.0000  Tot=              0.0000
 Quadrupole moment (field-independent basis, Debye-Ang):
   XX=             22.4162   YY=             -9.9345   ZZ=            -11.0464
   XY=             -0.0000   XZ=             -0.0000   YZ=              0.8356

 Normal termination of Gaussian 16 at Tue Dec  3 11:33:23 2024.
