 Gaussian 16, Revision A.03,
 Gaussian 16:  ES64L-G16RevA.03 25-Dec-2016

 ---------------------------------------
 #p UM062X/6-311+G** force int=superfine
 ---------------------------------------

 -------------------
 Title Card Required
 -------------------
 Symbolic Z-matrix:
 Charge =  0 Multiplicity = 1

                         Standard orientation:
 ---------------------------------------------------------------------
 Center     Atomic      Atomic             Coordinates (Angstroms)
 Number     Number       Type             X           Y           Z
 ---------------------------------------------------------------------
      1          6           0       -0.000000    0.735788    0.000000
      2          6           0       -0.000000   -0.735788    0.000000
      3          1           0       -0.935610    1.278611    0.000000
      4          1           0        0.935565    1.278688    0.000000
      5          1           0        0.935610   -1.278611    0.000000
      6          1           0       -0.935565   -1.278688    0.000000
 ---------------------------------------------------------------------

 SCF Done:  E(UM062X) =  -78.5446861259     A.U. after    8 cycles

 The electronic state is 1-AG.
 Alpha  occ. eigenvalues --  -10.56034 -10.55978  -0.83171  -0.67628  -0.53596
 Alpha  occ. eigenvalues --   -0.46392  -0.44141  -0.31255
 Alpha virt. eigenvalues --    0.00380   0.03391   0.03923   0.05259   0.07967
 Alpha virt. eigenvalues --    0.08086   0.09716   0.12537   0.15954   0.17088
 Alpha virt. eigenvalues --    0.20457   0.22176   0.30409   0.31436   0.42736

  Beta  occ. eigenvalues --  -10.56034 -10.55978  -0.83171  -0.67628  -0.53596
  Beta  occ. eigenvalues --   -0.46392  -0.44141  -0.31255
  Beta virt. eigenvalues --    0.00380   0.03391   0.03923   0.05259   0.07967
  Beta virt. eigenvalues --    0.08086   0.09716   0.12537   0.15954   0.17088
  Beta virt. eigenvalues --    0.20457   0.22176   0.30409   0.31436   0.42736

 Mulliken charges and spin densities:
               1          2
     1  C   -0.312846  -0.000000
     2  C   -0.312846  -0.000000
     3  H    0.156420   0.000000
     4  H    0.156426  -0.000000
     5  H    0.156420   0.000000
     6  H    0.156426  -0.000000
 Sum of Mulliken charges =  -0.00000  -0.00000

 Dipole moment (field-independent basis, Debye):
    X=             -0.0000    Y=              0.0000    Z=              0.0000  Tot=              0.0000
 Quadrupole moment (field-independent basis, Debye-Ang):
   XX=            -12.2797   YY=            -12.0995   ZZ=            -16.5015
   XY=              0.0002   XZ=              0.0000   YZ=              0.0000

 Normal termination of Gaussian 16 at Tue Nov 19 11:45:21 2024.
