 Gaussian 16, Revision A.03,
 Gaussian 16:  ES64L-G16RevA.03 25-Dec-2016

 --------------------------------------------
 #p opt UM062X/6-311+G** nosymm int=superfine
 --------------------------------------------

 -------------------
 Title Card Required
 -------------------
 Symbolic Z-matrix:
 Charge =  0 Multiplicity = 1

 SCF Done:  E(UM062X) =  -579.891078220     A.U. after   10 cycles
 SCF Done:  E(UM062X) =  -579.894116460     A.U. after    9 cycles
 SCF Done:  E(UM062X) =  -579.894123612     A.U. after    8 cycles
 Optimization completed.
    -- Stationary point found.

                          Input orientation:
 ---------------------------------------------------------------------
 Center     Atomic      Atomic             Coordinates (Angstroms)
 Number     Number       Type             X           Y           Z
 ---------------------------------------------------------------------
      1         14           0       -1.878705    0.000000    0.000000
      2         14           0        1.878705    0.000000    0.000000
      3          1           0       -3.406865   -0.000022    0.000000
      4          1           0        3.406865    0.000045   -0.000000
 ---------------------------------------------------------------------

 Alpha  occ. eigenvalues --  -67.04472 -67.04472  -5.58889  -5.58887  -3.89988
 Alpha  occ. eigenvalues --   -3.89987  -3.89540  -3.89540  -3.89406  -3.89405
 Alpha  occ. eigenvalues --   -0.55071  -0.54433  -0.34595  -0.30407  -0.18552
 Alpha virt. eigenvalues --   -0.09964  -0.09595  -0.07840   0.02302   0.02951
 Alpha virt. eigenvalues --    0.04556   0.05567   0.05750   0.06007   0.07090
 Alpha virt. eigenvalues --    0.07767   0.09225   0.18572   0.29219   0.29515

  Beta  occ. eigenvalues --  -67.04472 -67.04472  -5.58889  -5.58887  -3.89988
  Beta  occ. eigenvalues --   -3.89987  -3.89540  -3.89540  -3.89406  -3.89405
  Beta  occ. eigenvalues --   -0.55071  -0.54433  -0.34595  -0.30407  -0.18552
  Beta virt. eigenvalues --   -0.09964  -0.09595  -0.07840   0.02302   0.02951
  Beta virt. eigenvalues --    0.04556   0.05567   0.05750   0.06007   0.07090
  Beta virt. eigenvalues --    0.07767   0.09225   0.18572   0.29219   0.29515

 Mulliken charges and spin densities:
               1          2
     1  Si   0.144466   0.000000
     2  Si   0.144466  -0.000000
     3  H   -0.144466  -0.000000
     4  H   -0.144466   0.000000
 Sum of Mulliken charges =  -0.00000   0.00000

 Dipole moment (field-independent basis, Debye):
    X=             -0.0000    Y=              0.0000    Z=              0.0000  Tot=              0.0000
 Quadrupole moment (field-independent basis, Debye-Ang):
   XX=            -31.0454   YY=            -24.2499   ZZ=            -35.6130
   XY=             -0.0002   XZ=              0.0000   YZ=             -0.0007

 Normal termination of Gaussian 16 at Mon Apr 21 21:24:53 2025.
