 Gaussian 16, Revision A.03,
 Gaussian 16:  ES64L-G16RevA.03 25-Dec-2016

 --------------------------------------------
 #p opt UM062X/6-311+G** nosymm int=superfine
 --------------------------------------------

 -------------------
 Title Card Required
 -------------------
 Symbolic Z-matrix:
 Charge =  0 Multiplicity = 1

 SCF Done:  E(UM062X) =  -51.8805353557     A.U. after    8 cycles
 SCF Done:  E(UM062X) =  -51.8836020653     A.U. after    8 cycles
 SCF Done:  E(UM062X) =  -51.8848961426     A.U. after    9 cycles
 SCF Done:  E(UM062X) =  -51.8848943999     A.U. after    8 cycles
 SCF Done:  E(UM062X) =  -51.8848932252     A.U. after    9 cycles
 SCF Done:  E(UM062X) =  -51.8848966144     A.U. after    8 cycles
 Optimization completed.
    -- Stationary point found.

                          Input orientation:
 ---------------------------------------------------------------------
 Center     Atomic      Atomic             Coordinates (Angstroms)
 Number     Number       Type             X           Y           Z
 ---------------------------------------------------------------------
      1          5           0       -1.420607    0.000000    0.000000
      2          5           0        1.420607    0.000000    0.000000
      3          1           0       -1.939642   -1.062170   -0.001644
      4          1           0        1.939642    1.062147   -0.007264
      5          1           0       -1.939643    1.062169    0.002269
      6          1           0        1.939643   -1.062142    0.007896
 ---------------------------------------------------------------------

 Alpha  occ. eigenvalues --   -7.09884  -7.09881  -0.57528  -0.56035  -0.43639
 Alpha  occ. eigenvalues --   -0.42889  -0.25000
 Alpha virt. eigenvalues --   -0.05647  -0.01942  -0.00027   0.02307   0.03938
 Alpha virt. eigenvalues --    0.04616   0.05923   0.06213   0.07382   0.07928
 Alpha virt. eigenvalues --    0.10680   0.15924   0.17343   0.17960   0.26047

  Beta  occ. eigenvalues --   -7.09884  -7.09881  -0.57528  -0.56035  -0.43639
  Beta  occ. eigenvalues --   -0.42889  -0.25000
  Beta virt. eigenvalues --   -0.05647  -0.01942  -0.00027   0.02307   0.03938
  Beta virt. eigenvalues --    0.04616   0.05923   0.06213   0.07382   0.07928
  Beta virt. eigenvalues --    0.10680   0.15924   0.17343   0.17960   0.26047

 Mulliken charges and spin densities:
               1          2
     1  B   -0.045709   0.000000
     2  B   -0.045710   0.000000
     3  H    0.022855  -0.000000
     4  H    0.022855  -0.000000
     5  H    0.022855   0.000000
     6  H    0.022855   0.000000
 Sum of Mulliken charges =  -0.00000   0.00000

 Dipole moment (field-independent basis, Debye):
    X=             -0.0000    Y=             -0.0000    Z=             -0.0000  Tot=              0.0000
 Quadrupole moment (field-independent basis, Debye-Ang):
   XX=            -14.8848   YY=            -16.8733   ZZ=            -13.8120
   XY=             -0.0000   XZ=             -0.0000   YZ=              0.0081

 Normal termination of Gaussian 16 at Mon Apr 21 17:09:16 2025.
