 Gaussian 16, Revision A.03,
 Gaussian 16:  ES64L-G16RevA.03 25-Dec-2016

 --------------------------------------------
 #p opt UM062X/6-311+G** nosymm int=superfine
 --------------------------------------------

 -------------------
 Title Card Required
 -------------------
 Symbolic Z-matrix:
 Charge =  0 Multiplicity = 1

 SCF Done:  E(UM062X) =  -582.353515130     A.U. after   10 cycles
 SCF Done:  E(UM062X) =  -582.355785950     A.U. after    9 cycles
 SCF Done:  E(UM062X) =  -582.356517602     A.U. after    9 cycles
 SCF Done:  E(UM062X) =  -582.356518137     A.U. after    8 cycles
 Optimization completed.
    -- Stationary point found.

                          Input orientation:
 ---------------------------------------------------------------------
 Center     Atomic      Atomic             Coordinates (Angstroms)
 Number     Number       Type             X           Y           Z
 ---------------------------------------------------------------------
      1         14           0       -2.669819    0.000000    0.000000
      2         14           0        2.669819    0.000000    0.000000
      3          1           0        3.067527   -1.421818   -0.000053
      4          1           0       -3.067286   -0.710887    1.231424
      5          1           0        3.067435    0.711064   -1.231274
      6          1           0        3.067296    0.710940    1.231390
      7          1           0       -3.067531    1.421816   -0.000109
      8          1           0       -3.067441   -0.711119   -1.231241
 ---------------------------------------------------------------------

 Alpha  occ. eigenvalues --  -67.01860 -67.01860  -5.56803  -5.56802  -3.88038
 Alpha  occ. eigenvalues --   -3.88038  -3.87787  -3.87787  -3.87787  -3.87787
 Alpha  occ. eigenvalues --   -0.61193  -0.61044  -0.42217  -0.42216  -0.42199
 Alpha  occ. eigenvalues --   -0.42198  -0.20569
 Alpha virt. eigenvalues --   -0.12445   0.01906   0.02998   0.02998   0.03155
 Alpha virt. eigenvalues --    0.04843   0.04843   0.06409   0.06654   0.07674
 Alpha virt. eigenvalues --    0.07674   0.08232   0.08233   0.10659   0.15007

  Beta  occ. eigenvalues --  -67.01860 -67.01860  -5.56803  -5.56802  -3.88038
  Beta  occ. eigenvalues --   -3.88038  -3.87787  -3.87787  -3.87787  -3.87787
  Beta  occ. eigenvalues --   -0.61193  -0.61044  -0.42217  -0.42216  -0.42199
  Beta  occ. eigenvalues --   -0.42198  -0.20569
  Beta virt. eigenvalues --   -0.12445   0.01906   0.02998   0.02998   0.03155
  Beta virt. eigenvalues --    0.04843   0.04843   0.06409   0.06654   0.07674
  Beta virt. eigenvalues --    0.07674   0.08232   0.08233   0.10659   0.15007

 Mulliken charges and spin densities:
               1          2
     1  Si   0.262127   0.000000
     2  Si   0.262127  -0.000000
     3  H   -0.087373  -0.000000
     4  H   -0.087377   0.000000
     5  H   -0.087377  -0.000000
     6  H   -0.087376  -0.000000
     7  H   -0.087373   0.000000
     8  H   -0.087377   0.000000
 Sum of Mulliken charges =  -0.00000  -0.00000

 Dipole moment (field-independent basis, Debye):
    X=              0.0000    Y=             -0.0000    Z=              0.0000  Tot=              0.0000
 Quadrupole moment (field-independent basis, Debye-Ang):
   XX=            -27.9200   YY=            -32.2461   ZZ=            -32.2463
   XY=             -0.0008   XZ=              0.0000   YZ=              0.0000

 Normal termination of Gaussian 16 at Mon Apr 21 20:19:50 2025.
