 Gaussian 16, Revision A.03,
 Gaussian 16:  ES64L-G16RevA.03 25-Dec-2016

 --------------------------------------------
 #p opt UM062X/6-311+G** nosymm int=superfine
 --------------------------------------------

 -------------------
 Title Card Required
 -------------------
 Symbolic Z-matrix:
 Charge = -1 Multiplicity = 2

 SCF Done:  E(UM062X) =  -53.2337081506     A.U. after   11 cycles
 SCF Done:  E(UM062X) =  -53.2338859733     A.U. after    9 cycles
 SCF Done:  E(UM062X) =  -53.2339146826     A.U. after    9 cycles
 Optimization completed.
    -- Stationary point found.

                          Input orientation:
 ---------------------------------------------------------------------
 Center     Atomic      Atomic             Coordinates (Angstroms)
 Number     Number       Type             X           Y           Z
 ---------------------------------------------------------------------
      1          5           0       -1.190672    0.000000    0.000000
      2          5           0        1.190672    0.000000    0.000000
      3          1           0        1.370930   -1.190495   -0.000003
      4          1           0       -1.370887   -0.595251    1.031004
      5          1           0        1.371010    0.595258   -1.030980
      6          1           0        1.370844    0.595237    1.031019
      7          1           0       -1.370936    1.190494    0.000008
      8          1           0       -1.370961   -0.595246   -1.030995
 ---------------------------------------------------------------------

 Alpha  occ. eigenvalues --   -6.80893  -6.80885  -0.39931  -0.34579  -0.20285
 Alpha  occ. eigenvalues --   -0.20285  -0.17123  -0.17122  -0.02981
 Alpha virt. eigenvalues --    0.16075   0.17231   0.17644   0.17644   0.19279
 Alpha virt. eigenvalues --    0.19279   0.20791   0.23362   0.28568   0.33111
 Alpha virt. eigenvalues --    0.33111   0.37672   0.37673   0.38938   0.41811

  Beta  occ. eigenvalues --   -6.80805  -6.80804  -0.37302  -0.32865  -0.19714
  Beta  occ. eigenvalues --   -0.19714  -0.16787  -0.16787
  Beta virt. eigenvalues --    0.13260   0.15172   0.17540   0.17540   0.18037
  Beta virt. eigenvalues --    0.18806   0.18806   0.22384   0.24388   0.33138
  Beta virt. eigenvalues --    0.33138   0.33556   0.37955   0.37956   0.39368

 Mulliken charges and spin densities:
               1          2
     1  B   -0.271319   0.584095
     2  B   -0.271319   0.584095
     3  H   -0.076222  -0.028024
     4  H   -0.076227  -0.028035
     5  H   -0.076235  -0.028037
     6  H   -0.076224  -0.028033
     7  H   -0.076223  -0.028024
     8  H   -0.076232  -0.028036
 Sum of Mulliken charges =  -1.00000   1.00000

 Dipole moment (field-independent basis, Debye):
    X=              0.0000    Y=              0.0000    Z=             -0.0000  Tot=              0.0000
 Quadrupole moment (field-independent basis, Debye-Ang):
   XX=            -32.1431   YY=            -23.9709   ZZ=            -23.9710
   XY=             -0.0001   XZ=              0.0000   YZ=              0.0000

 Normal termination of Gaussian 16 at Mon Apr 21 16:51:52 2025.
