 Gaussian 16, Revision A.03,
 Gaussian 16:  ES64L-G16RevA.03 25-Dec-2016

 ---------------------------------------
 #p UM062X/6-311+G** force int=superfine
 ---------------------------------------

 -------------------
 Title Card Required
 -------------------
 Symbolic Z-matrix:
 Charge =  1 Multiplicity = 2

                         Standard orientation:
 ---------------------------------------------------------------------
 Center     Atomic      Atomic             Coordinates (Angstroms)
 Number     Number       Type             X           Y           Z
 ---------------------------------------------------------------------
      1          6           0        0.000000    0.000000    0.664836
      2          6           0        0.000000    0.000000   -0.664836
      3          1           0        0.000000    0.000000    1.748571
      4          1           0        0.000000    0.000000   -1.748571
 ---------------------------------------------------------------------

 SCF Done:  E(UM062X) =  -76.8899409966     A.U. after    9 cycles

 Unable to determine electronic state:  an orbital has unidentified symmetry.
 Alpha  occ. eigenvalues --  -10.95633 -10.95502  -1.19784  -0.97648  -0.88836
 Alpha  occ. eigenvalues --   -0.70627  -0.68085
 Alpha virt. eigenvalues --   -0.29562  -0.27542  -0.16684  -0.14446  -0.11387
 Alpha virt. eigenvalues --   -0.10060  -0.09794  -0.07721  -0.04958  -0.04555
 Alpha virt. eigenvalues --    0.02209   0.04495   0.13910   0.19425   0.30067

  Beta  occ. eigenvalues --  -10.95392 -10.95283  -1.15172  -0.96033  -0.88297
  Beta  occ. eigenvalues --   -0.65673
  Beta virt. eigenvalues --   -0.44945  -0.25889  -0.22738  -0.15586  -0.15472
  Beta virt. eigenvalues --   -0.11562  -0.10325  -0.10054  -0.07363  -0.04498
  Beta virt. eigenvalues --   -0.03961   0.01843   0.04699   0.14494   0.20317

 Mulliken charges and spin densities:
               1          2
     1  C    0.177851   0.519574
     2  C    0.177851   0.519574
     3  H    0.322149  -0.019574
     4  H    0.322149  -0.019574
 Sum of Mulliken charges =   1.00000   1.00000

 Dipole moment (field-independent basis, Debye):
    X=              0.0000    Y=             -0.0000    Z=              0.0000  Tot=              0.0000
 Quadrupole moment (field-independent basis, Debye-Ang):
   XX=            -11.7225   YY=             -9.8496   ZZ=              0.1143
   XY=              0.0000   XZ=             -0.0000   YZ=             -0.0000

 Normal termination of Gaussian 16 at Tue Nov 19 13:31:57 2024.
