 Gaussian 16, Revision A.03,
 Gaussian 16:  ES64L-G16RevA.03 25-Dec-2016

 --------------------------------------------
 #p opt UM062X/6-311+G** nosymm int=superfine
 --------------------------------------------

 -------------------
 Title Card Required
 -------------------
 Symbolic Z-matrix:
 Charge =  1 Multiplicity = 2

 SCF Done:  E(UM062X) =  -581.572355463     A.U. after   11 cycles
 SCF Done:  E(UM062X) =  -581.802381434     A.U. after    9 cycles
 SCF Done:  E(UM062X) =  -582.067172398     A.U. after   11 cycles
 SCF Done:  E(UM062X) =  -582.169694846     A.U. after   11 cycles
 SCF Done:  E(UM062X) =  -582.173115443     A.U. after    9 cycles
 SCF Done:  E(UM062X) =  -582.173337455     A.U. after    8 cycles
 SCF Done:  E(UM062X) =  -582.173415886     A.U. after    8 cycles
 SCF Done:  E(UM062X) =  -582.173419010     A.U. after    7 cycles
 Optimization completed.
    -- Stationary point found.

                          Input orientation:
 ---------------------------------------------------------------------
 Center     Atomic      Atomic             Coordinates (Angstroms)
 Number     Number       Type             X           Y           Z
 ---------------------------------------------------------------------
      1         14           0       -1.376253   -0.000113    0.000041
      2         14           0        1.376331    0.000143   -0.000009
      3          1           0        1.574541   -1.258321    0.728279
      4          1           0       -1.573551   -1.260110   -0.725860
      5          1           0        1.574241    1.260157    0.725684
      6          1           0        1.573446   -0.001332   -1.454179
      7          1           0       -1.574495    1.258364   -0.728215
      8          1           0       -1.573951    0.001162    1.454127
 ---------------------------------------------------------------------

 Alpha  occ. eigenvalues --  -67.24204 -67.24204  -5.79126  -5.79125  -4.10865
 Alpha  occ. eigenvalues --   -4.10854  -4.10014  -4.10014  -4.10014  -4.10014
 Alpha  occ. eigenvalues --   -0.86490  -0.81110  -0.64661  -0.64659  -0.62521
 Alpha  occ. eigenvalues --   -0.62521  -0.52793
 Alpha virt. eigenvalues --   -0.21102  -0.16531  -0.12049  -0.12045  -0.11490
 Alpha virt. eigenvalues --   -0.11488  -0.11369  -0.10138  -0.09452  -0.09451
 Alpha virt. eigenvalues --   -0.06593  -0.06593  -0.06590  -0.03279   0.00451

  Beta  occ. eigenvalues --  -67.23918 -67.23918  -5.79052  -5.79050  -4.10122
  Beta  occ. eigenvalues --   -4.10113  -4.09922  -4.09922  -4.09922  -4.09922
  Beta  occ. eigenvalues --   -0.83665  -0.79414  -0.64056  -0.64055  -0.62083
  Beta  occ. eigenvalues --   -0.62082
  Beta virt. eigenvalues --   -0.34400  -0.17825  -0.15554  -0.11262  -0.11261
  Beta virt. eigenvalues --   -0.11228  -0.11224  -0.10523  -0.09871  -0.08802
  Beta virt. eigenvalues --   -0.08801  -0.06229  -0.06228  -0.03814  -0.02213

 Mulliken charges and spin densities:
               1          2
     1  Si   0.478499   0.512159
     2  Si   0.478499   0.512160
     3  H    0.007180  -0.004081
     4  H    0.007157  -0.004039
     5  H    0.007173  -0.004062
     6  H    0.007149  -0.004017
     7  H    0.007180  -0.004082
     8  H    0.007164  -0.004038
 Sum of Mulliken charges =   1.00000   1.00000

 Dipole moment (field-independent basis, Debye):
    X=              0.0002    Y=              0.0001    Z=              0.0001  Tot=              0.0003
 Quadrupole moment (field-independent basis, Debye-Ang):
   XX=            -12.4234   YY=            -25.5587   ZZ=            -25.5584
   XY=              0.0012   XZ=             -0.0005   YZ=             -0.0000

 Normal termination of Gaussian 16 at Wed Apr 16 05:25:45 2025.
