 Gaussian 16, Revision A.03,
 Gaussian 16:  ES64L-G16RevA.03 25-Dec-2016

 --------------------------------------------
 #p opt UM062X/6-311+G** nosymm int=superfine
 --------------------------------------------

 -------------------
 Title Card Required
 -------------------
 Symbolic Z-matrix:
 Charge =  1 Multiplicity = 2

 SCF Done:  E(UM062X) =  -580.866036440     A.U. after   15 cycles
 SCF Done:  E(UM062X) =  -580.873280266     A.U. after    9 cycles
 SCF Done:  E(UM062X) =  -580.875311949     A.U. after   12 cycles
 SCF Done:  E(UM062X) =  -580.875314587     A.U. after    6 cycles
 Optimization completed.
    -- Stationary point found.

                          Input orientation:
 ---------------------------------------------------------------------
 Center     Atomic      Atomic             Coordinates (Angstroms)
 Number     Number       Type             X           Y           Z
 ---------------------------------------------------------------------
      1         14           0       -2.241295    0.000000    0.000000
      2         14           0        2.241295    0.000000    0.000000
      3          1           0       -3.137982   -1.190867    0.000051
      4          1           0        3.137982    1.190867    0.001082
      5          1           0       -3.137997    1.190856   -0.000046
      6          1           0        3.137997   -1.190856   -0.001077
 ---------------------------------------------------------------------

 Alpha  occ. eigenvalues --  -67.24137 -67.24137  -5.78624  -5.78623  -4.09896
 Alpha  occ. eigenvalues --   -4.09896  -4.09573  -4.09573  -4.09230  -4.09230
 Alpha  occ. eigenvalues --   -0.78159  -0.78032  -0.59951  -0.59918  -0.49567
 Alpha  occ. eigenvalues --   -0.47319
 Alpha virt. eigenvalues --   -0.27062  -0.26439  -0.12581  -0.12019  -0.09254
 Alpha virt. eigenvalues --   -0.08211  -0.07895  -0.07169  -0.06718  -0.05911
 Alpha virt. eigenvalues --   -0.05835  -0.05828  -0.05481  -0.03455   0.12885

  Beta  occ. eigenvalues --  -67.23796 -67.23796  -5.78364  -5.78364  -4.09791
  Beta  occ. eigenvalues --   -4.09791  -4.09119  -4.09118  -4.08792  -4.08791
  Beta  occ. eigenvalues --   -0.76339  -0.76062  -0.58773  -0.58729  -0.43201
  Beta virt. eigenvalues --   -0.32821  -0.25880  -0.25097  -0.11480  -0.11449
  Beta virt. eigenvalues --   -0.09313  -0.07368  -0.06848  -0.06641  -0.06346
  Beta virt. eigenvalues --   -0.05811  -0.05608  -0.05285  -0.05065  -0.03022

 Mulliken charges and spin densities:
               1          2
     1  Si   0.560118   0.387851
     2  Si   0.560118   0.387851
     3  H   -0.030059   0.056075
     4  H   -0.030059   0.056075
     5  H   -0.030059   0.056075
     6  H   -0.030059   0.056075
 Sum of Mulliken charges =   1.00000   1.00000

 Dipole moment (field-independent basis, Debye):
    X=              0.0000    Y=              0.0000    Z=              0.0000  Tot=              0.0000
 Quadrupole moment (field-independent basis, Debye-Ang):
   XX=              3.8368   YY=            -25.8681   ZZ=            -20.8717
   XY=             -0.0000   XZ=              0.0000   YZ=             -0.0022

 Normal termination of Gaussian 16 at Mon Apr 21 20:27:56 2025.
