 Gaussian 16, Revision A.03,
 Gaussian 16:  ES64L-G16RevA.03 25-Dec-2016

 --------------------------------------------
 #p opt UM062X/6-311+G** nosymm int=superfine
 --------------------------------------------

 -------------------
 Title Card Required
 -------------------
 Symbolic Z-matrix:
 Charge = -1 Multiplicity = 2

 SCF Done:  E(UM062X) =  -53.2131767900     A.U. after   11 cycles
 SCF Done:  E(UM062X) =  -53.2158259311     A.U. after   10 cycles
 SCF Done:  E(UM062X) =  -53.2163926378     A.U. after   10 cycles
 SCF Done:  E(UM062X) =  -53.2163938052     A.U. after    8 cycles
 Optimization completed.
    -- Stationary point found.

                          Input orientation:
 ---------------------------------------------------------------------
 Center     Atomic      Atomic             Coordinates (Angstroms)
 Number     Number       Type             X           Y           Z
 ---------------------------------------------------------------------
      1          5           0       -1.690672    0.000000    0.000000
      2          5           0        1.690672    0.000000    0.000000
      3          1           0        1.784218   -1.195912   -0.000013
      4          1           0       -1.784006   -0.597960    1.035707
      5          1           0        1.784149    0.597979   -1.035684
      6          1           0        1.783957    0.597946    1.035718
      7          1           0       -1.784225    1.195911    0.000000
      8          1           0       -1.784093   -0.597966   -1.035696
 ---------------------------------------------------------------------

 Alpha  occ. eigenvalues --   -6.83362  -6.83360  -0.39326  -0.38021  -0.20946
 Alpha  occ. eigenvalues --   -0.20946  -0.20238  -0.20238   0.00345
 Alpha virt. eigenvalues --    0.13859   0.17156   0.17693   0.17694   0.18734
 Alpha virt. eigenvalues --    0.18734   0.20891   0.22739   0.23038   0.32946
 Alpha virt. eigenvalues --    0.32946   0.35712   0.35713   0.38512   0.39616

  Beta  occ. eigenvalues --   -6.83320  -6.83319  -0.37324  -0.36493  -0.20692
  Beta  occ. eigenvalues --   -0.20692  -0.20076  -0.20076
  Beta virt. eigenvalues --    0.13181   0.14279   0.15758   0.16235   0.16235
  Beta virt. eigenvalues --    0.18301   0.18301   0.22957   0.23543   0.26786
  Beta virt. eigenvalues --    0.32185   0.32185   0.35391   0.35392   0.38438

 Mulliken charges and spin densities:
               1          2
     1  B   -0.311998   0.587759
     2  B   -0.311998   0.587759
     3  H   -0.062681  -0.029263
     4  H   -0.062659  -0.029248
     5  H   -0.062665  -0.029248
     6  H   -0.062656  -0.029248
     7  H   -0.062681  -0.029263
     8  H   -0.062662  -0.029248
 Sum of Mulliken charges =  -1.00000   1.00000

 Dipole moment (field-independent basis, Debye):
    X=              0.0000    Y=             -0.0000    Z=              0.0001  Tot=              0.0001
 Quadrupole moment (field-independent basis, Debye-Ang):
   XX=            -38.5136   YY=            -24.1880   ZZ=            -24.1878
   XY=              0.0001   XZ=              0.0000   YZ=              0.0000

 Normal termination of Gaussian 16 at Mon Apr 21 16:53:19 2025.
