 Gaussian 16, Revision A.03,
 Gaussian 16:  ES64L-G16RevA.03 25-Dec-2016

 ---------------------------------------------------
 #p UM062X/6-311+G** force int=superfine pop=saveNBO
 ---------------------------------------------------

 -------------------
 Title Card Required
 -------------------
 Symbolic Z-matrix:
 Charge =  0 Multiplicity = 1

                         Standard orientation:
 ---------------------------------------------------------------------
 Center     Atomic      Atomic             Coordinates (Angstroms)
 Number     Number       Type             X           Y           Z
 ---------------------------------------------------------------------
      1          8           0        0.000000    0.000000    2.093562
      2          8           0        0.000000    0.000000   -2.093562
 ---------------------------------------------------------------------

 SCF Done:  E(UM062X) =  -149.757699781     A.U. after   10 cycles

 Unable to determine electronic state:  partially filled degenerate orbitals.
 Alpha  occ. eigenvalues --  -19.81923 -19.81922  -1.09838  -1.09669  -0.48192
 Alpha  occ. eigenvalues --   -0.48151  -0.38793  -0.38495
 Alpha virt. eigenvalues --   -0.31709  -0.31352   0.08995   0.12302   0.14719
 Alpha virt. eigenvalues --    0.14817   0.15980   0.18220   0.18428   0.26247
 Alpha virt. eigenvalues --    0.99477   1.00759   1.01608   1.01710   1.02925

  Beta  occ. eigenvalues --  -19.81923 -19.81922  -1.09838  -1.09669  -0.48192
  Beta  occ. eigenvalues --   -0.48151  -0.38793  -0.38495
  Beta virt. eigenvalues --   -0.31709  -0.31352   0.08995   0.12302   0.14719
  Beta virt. eigenvalues --    0.14817   0.15980   0.18220   0.18428   0.26247
  Beta virt. eigenvalues --    0.99477   1.00759   1.01608   1.01710   1.02925

 Mulliken charges and spin densities:
               1          2
     1  O   -0.000000  -0.000000
     2  O   -0.000000  -0.000000
 Sum of Mulliken charges =  -0.00000  -0.00000

 Dipole moment (field-independent basis, Debye):
    X=             -0.0000    Y=             -0.0000    Z=              0.0000  Tot=              0.0000
 Quadrupole moment (field-independent basis, Debye-Ang):
   XX=            -10.1356   YY=            -12.0413   ZZ=             -9.5996
   XY=             -0.0000   XZ=             -0.0000   YZ=              0.0000

 Summary of Natural Population Analysis:

                                       Natural Population
                Natural  -----------------------------------------------
    Atom  No    Charge         Core      Valence    Rydberg      Total
 -----------------------------------------------------------------------
      O    1   -0.00000      1.00000     2.99890    0.00110     4.00000
      O    2   -0.00000      1.00000     2.99890    0.00110     4.00000
 =======================================================================
   * Total *   -0.00000      2.00000     5.99779    0.00221     8.00000

 Normal termination of Gaussian 16 at Mon Apr 21 19:48:59 2025.
