 Gaussian 16, Revision A.03,
 Gaussian 16:  ES64L-G16RevA.03 25-Dec-2016

 --------------------------------------------
 #p opt UM062X/6-311+G** nosymm int=superfine
 --------------------------------------------

 -------------------
 Title Card Required
 -------------------
 Symbolic Z-matrix:
 Charge =  0 Multiplicity = 1

 SCF Done:  E(UM062X) =  -111.635210382     A.U. after   16 cycles
 SCF Done:  E(UM062X) =  -111.645790607     A.U. after   16 cycles
 SCF Done:  E(UM062X) =  -111.653007642     A.U. after   15 cycles
 SCF Done:  E(UM062X) =  -111.655052382     A.U. after   14 cycles
 SCF Done:  E(UM062X) =  -111.656401578     A.U. after   15 cycles
 SCF Done:  E(UM062X) =  -111.656908679     A.U. after   14 cycles
 SCF Done:  E(UM062X) =  -111.657501915     A.U. after   15 cycles
 SCF Done:  E(UM062X) =  -111.657604105     A.U. after   12 cycles
 SCF Done:  E(UM062X) =  -111.657660688     A.U. after   13 cycles
 SCF Done:  E(UM062X) =  -111.657701237     A.U. after   13 cycles
 SCF Done:  E(UM062X) =  -111.657732365     A.U. after   14 cycles
 SCF Done:  E(UM062X) =  -111.657735570     A.U. after   10 cycles
 SCF Done:  E(UM062X) =  -111.657735613     A.U. after    8 cycles
 Optimization completed.
    -- Stationary point found.

                          Input orientation:
 ---------------------------------------------------------------------
 Center     Atomic      Atomic             Coordinates (Angstroms)
 Number     Number       Type             X           Y           Z
 ---------------------------------------------------------------------
      1          7           0       -1.586540    0.000000    0.000000
      2          7           0        1.586540    0.000000    0.000000
      3          1           0       -1.490881   -0.815542   -0.617747
      4          1           0        1.490693    0.410113   -0.937281
      5          1           0       -1.490944   -0.410521    0.937132
      6          1           0        1.490890    0.815787    0.617423
 ---------------------------------------------------------------------

 Alpha  occ. eigenvalues --  -14.80552 -14.80551  -0.95250  -0.94508  -0.55238
 Alpha  occ. eigenvalues --   -0.54754  -0.40914  -0.40285  -0.30002
 Alpha virt. eigenvalues --   -0.16627   0.04513   0.06466   0.08693   0.11481
 Alpha virt. eigenvalues --    0.12775   0.13842   0.15894   0.15968   0.18774
 Alpha virt. eigenvalues --    0.19735   0.26737   0.26929   0.51302   0.51539

  Beta  occ. eigenvalues --  -14.80552 -14.80551  -0.95250  -0.94508  -0.55238
  Beta  occ. eigenvalues --   -0.54754  -0.40914  -0.40285  -0.30002
  Beta virt. eigenvalues --   -0.16627   0.04513   0.06466   0.08693   0.11481
  Beta virt. eigenvalues --    0.12775   0.13842   0.15894   0.15968   0.18774
  Beta virt. eigenvalues --    0.19735   0.26737   0.26929   0.51302   0.51539

 Mulliken charges and spin densities:
               1          2
     1  N   -0.495978  -0.000018
     2  N   -0.495917   0.000018
     3  H    0.247969   0.000000
     4  H    0.247968  -0.000000
     5  H    0.247981   0.000000
     6  H    0.247977  -0.000000
 Sum of Mulliken charges =  -0.00000   0.00000

 Dipole moment (field-independent basis, Debye):
    X=             -0.0002    Y=             -0.0002    Z=             -0.0008  Tot=              0.0009
 Quadrupole moment (field-independent basis, Debye-Ang):
   XX=            -16.0744   YY=            -14.2822   ZZ=            -11.4875
   XY=              6.6602   XZ=             -1.7362   YZ=              0.7817

 Normal termination of Gaussian 16 at Thu May 15 14:51:12 2025.
