 Gaussian 16, Revision A.03,
 Gaussian 16:  ES64L-G16RevA.03 25-Dec-2016

 --------------------------------------------
 #p opt UM062X/6-311+G** nosymm int=superfine
 --------------------------------------------

 -------------------
 Title Card Required
 -------------------
 Symbolic Z-matrix:
 Charge =  0 Multiplicity = 1

 SCF Done:  E(UM062X) =  -382.423164709     A.U. after   11 cycles
 SCF Done:  E(UM062X) =  -382.423226296     A.U. after    8 cycles
 SCF Done:  E(UM062X) =  -382.423230744     A.U. after    8 cycles
 Optimization completed.
    -- Stationary point found.

                          Input orientation:
 ---------------------------------------------------------------------
 Center     Atomic      Atomic             Coordinates (Angstroms)
 Number     Number       Type             X           Y           Z
 ---------------------------------------------------------------------
      1          6           0       -0.956264    0.000000    0.000000
      2         15           0        0.956264    0.000000    0.000000
      3          1           0        1.119083   -1.407312    0.003525
      4          1           0       -1.298928    1.014148    0.203931
      5          1           0        1.119066    0.105905    1.403327
      6          1           0       -1.298953   -0.282252   -0.995191
      7          1           0       -1.376058   -0.681637    0.736929
 ---------------------------------------------------------------------

 Alpha  occ. eigenvalues --  -78.01338 -10.54087  -6.83956  -4.95529  -4.95526
 Alpha  occ. eigenvalues --   -4.95260  -0.81443  -0.67584  -0.49204  -0.48545
 Alpha  occ. eigenvalues --   -0.41850  -0.40224  -0.30609
 Alpha virt. eigenvalues --    0.00555   0.02559   0.03869   0.04448   0.06396
 Alpha virt. eigenvalues --    0.06652   0.08194   0.08529   0.10302   0.13675
 Alpha virt. eigenvalues --    0.17891   0.18032   0.19561   0.28504   0.30132

  Beta  occ. eigenvalues --  -78.01338 -10.54087  -6.83956  -4.95529  -4.95526
  Beta  occ. eigenvalues --   -4.95260  -0.81443  -0.67584  -0.49204  -0.48545
  Beta  occ. eigenvalues --   -0.41850  -0.40224  -0.30609
  Beta virt. eigenvalues --    0.00555   0.02559   0.03869   0.04448   0.06396
  Beta virt. eigenvalues --    0.06652   0.08194   0.08529   0.10302   0.13675
  Beta virt. eigenvalues --    0.17891   0.18032   0.19561   0.28504   0.30132

 Mulliken charges and spin densities:
               1          2
     1  C   -0.576934   0.000000
     2  P    0.028583  -0.000000
     3  H    0.001483  -0.000000
     4  H    0.181475  -0.000000
     5  H    0.001481  -0.000000
     6  H    0.181474  -0.000000
     7  H    0.182438  -0.000000
 Sum of Mulliken charges =  -0.00000  -0.00000

 Dipole moment (field-independent basis, Debye):
    X=             -0.9050    Y=             -0.5009    Z=              0.5415  Tot=              1.1676
 Quadrupole moment (field-independent basis, Debye-Ang):
   XX=            -23.3191   YY=            -21.9751   ZZ=            -22.1004
   XY=             -1.1459   XZ=              1.2387   YZ=              0.8036

 Normal termination of Gaussian 16 at Mon Apr 21 18:57:56 2025.
