 Gaussian 16, Revision A.03,
 Gaussian 16:  ES64L-G16RevA.03 25-Dec-2016

 --------------------------------------------
 #p opt UM062X/6-311+G** nosymm int=superfine
 --------------------------------------------

 -------------------
 Title Card Required
 -------------------
 Symbolic Z-matrix:
 Charge =  1 Multiplicity = 2

 SCF Done:  E(UM062X) =  -579.686423877     A.U. after   15 cycles
 SCF Done:  E(UM062X) =  -579.689768839     A.U. after   13 cycles
 SCF Done:  E(UM062X) =  -579.694720649     A.U. after   15 cycles
 SCF Done:  E(UM062X) =  -579.694996642     A.U. after   13 cycles
 SCF Done:  E(UM062X) =  -579.695066764     A.U. after   12 cycles
 SCF Done:  E(UM062X) =  -579.695092827     A.U. after   10 cycles
 SCF Done:  E(UM062X) =  -579.695146808     A.U. after   12 cycles
 SCF Done:  E(UM062X) =  -579.695162200     A.U. after   12 cycles
 SCF Done:  E(UM062X) =  -579.695162953     A.U. after    9 cycles
 Optimization completed.
    -- Stationary point found.

                          Input orientation:
 ---------------------------------------------------------------------
 Center     Atomic      Atomic             Coordinates (Angstroms)
 Number     Number       Type             X           Y           Z
 ---------------------------------------------------------------------
      1         14           0       -1.827975    0.000000    0.000000
      2         14           0        1.827975    0.000000    0.000000
      3          1           0       -1.972561   -1.499546    0.000001
      4          1           0        1.972323    1.499561    0.000001
 ---------------------------------------------------------------------

 Alpha  occ. eigenvalues --  -67.27045 -67.27045  -5.81213  -5.81212  -4.12318
 Alpha  occ. eigenvalues --   -4.12318  -4.12241  -4.12241  -4.11584  -4.11583
 Alpha  occ. eigenvalues --   -0.76769  -0.75332  -0.53151  -0.52801  -0.43112
 Alpha virt. eigenvalues --   -0.28832  -0.27273  -0.26839  -0.11500  -0.10067
 Alpha virt. eigenvalues --   -0.08875  -0.08587  -0.08070  -0.07141  -0.05707
 Alpha virt. eigenvalues --   -0.05693  -0.05458  -0.02911   0.12677   0.14250

  Beta  occ. eigenvalues --  -67.26783 -67.26783  -5.81131  -5.81129  -4.12176
  Beta  occ. eigenvalues --   -4.12176  -4.11645  -4.11645  -4.11445  -4.11445
  Beta  occ. eigenvalues --   -0.74777  -0.73636  -0.52627  -0.51708
  Beta virt. eigenvalues --   -0.28851  -0.28401  -0.26313  -0.22314  -0.13098
  Beta virt. eigenvalues --   -0.10350  -0.08909  -0.08863  -0.08277  -0.06858
  Beta virt. eigenvalues --   -0.05624  -0.05429  -0.05350  -0.02723   0.11526

 Mulliken charges and spin densities:
               1          2
     1  Si   0.575491   0.510934
     2  Si   0.575513   0.510906
     3  H   -0.075499  -0.010920
     4  H   -0.075505  -0.010920
 Sum of Mulliken charges =   1.00000   1.00000

 Dipole moment (field-independent basis, Debye):
    X=              0.0000    Y=              0.0000    Z=              0.0000  Tot=              0.0000
 Quadrupole moment (field-independent basis, Debye-Ang):
   XX=             -3.4189   YY=            -27.4280   ZZ=            -19.7655
   XY=              1.9077   XZ=              0.0000   YZ=             -0.0000

 Normal termination of Gaussian 16 at Mon Apr 21 20:40:09 2025.
