 Gaussian 16, Revision A.03,
 Gaussian 16:  ES64L-G16RevA.03 25-Dec-2016

 --------------------------------------------
 #p opt UM062X/6-311+G** nosymm int=superfine
 --------------------------------------------

 -------------------
 Title Card Required
 -------------------
 Symbolic Z-matrix:
 Charge =  0 Multiplicity = 1

 SCF Done:  E(UM062X) =  -474.361276772     A.U. after   24 cycles
 SCF Done:  E(UM062X) =  -474.361804767     A.U. after   22 cycles
 SCF Done:  E(UM062X) =  -474.362996770     A.U. after   22 cycles
 SCF Done:  E(UM062X) =  -474.363604541     A.U. after   24 cycles
 SCF Done:  E(UM062X) =  -474.363751751     A.U. after   21 cycles
 SCF Done:  E(UM062X) =  -474.363818262     A.U. after   21 cycles
 SCF Done:  E(UM062X) =  -474.363836032     A.U. after   25 cycles
 SCF Done:  E(UM062X) =  -474.363864274     A.U. after   22 cycles
 SCF Done:  E(UM062X) =  -474.363867082     A.U. after   20 cycles
 SCF Done:  E(UM062X) =  -474.363872523     A.U. after   33 cycles
 SCF Done:  E(UM062X) =  -474.363876187     A.U. after   18 cycles
 SCF Done:  E(UM062X) =  -474.363876446     A.U. after   21 cycles
 SCF Done:  E(UM062X) =  -474.363877310     A.U. after   18 cycles
 SCF Done:  E(UM062X) =  -474.363877683     A.U. after   19 cycles
 SCF Done:  E(UM062X) =  -474.363877752     A.U. after   26 cycles
 Optimization completed.
    -- Stationary point found.

                          Input orientation:
 ---------------------------------------------------------------------
 Center     Atomic      Atomic             Coordinates (Angstroms)
 Number     Number       Type             X           Y           Z
 ---------------------------------------------------------------------
      1          8           0       -1.864392    0.000000    0.000000
      2         16           0        1.864392    0.000000    0.000000
      3          1           0       -1.828634   -0.702404   -0.668237
      4          1           0        1.594807    0.792788    1.055380
 ---------------------------------------------------------------------

 Alpha  occ. eigenvalues --  -89.97809 -19.67145  -8.33992  -6.26199  -6.25840
 Alpha  occ. eigenvalues --   -6.25270  -1.08394  -0.83930  -0.52479  -0.49796
 Alpha  occ. eigenvalues --   -0.39704  -0.35843  -0.33352
 Alpha virt. eigenvalues --   -0.23258   0.01558   0.03866   0.04685   0.05348
 Alpha virt. eigenvalues --    0.06711   0.13023   0.19195   0.19797   0.21089
 Alpha virt. eigenvalues --    0.24687   0.30779   0.33956   0.34690   0.38956

  Beta  occ. eigenvalues --  -89.97809 -19.67145  -8.33992  -6.26199  -6.25840
  Beta  occ. eigenvalues --   -6.25270  -1.08394  -0.83930  -0.52479  -0.49796
  Beta  occ. eigenvalues --   -0.39704  -0.35843  -0.33352
  Beta virt. eigenvalues --   -0.23258   0.01558   0.03866   0.04685   0.05348
  Beta virt. eigenvalues --    0.06711   0.13023   0.19195   0.19797   0.21089
  Beta virt. eigenvalues --    0.24687   0.30779   0.33956   0.34690   0.38956

 Mulliken charges and spin densities:
               1          2
     1  O   -0.387727  -0.000000
     2  S    0.034277   0.000000
     3  H    0.245518   0.000000
     4  H    0.107932   0.000000
 Sum of Mulliken charges =  -0.00000   0.00000

 Dipole moment (field-independent basis, Debye):
    X=              2.3861    Y=             -0.5629    Z=             -0.2617  Tot=              2.4655
 Quadrupole moment (field-independent basis, Debye-Ang):
   XX=            -18.6738   YY=            -19.9591   ZZ=            -18.9367
   XY=              3.7029   XZ=              4.0082   YZ=              3.2187

 Normal termination of Gaussian 16 at Thu May 15 13:31:38 2025.
