 Gaussian 16, Revision A.03,
 Gaussian 16:  ES64L-G16RevA.03 25-Dec-2016

 ---------------------------------------------------
 #p UM062X/6-311+G** force int=superfine pop=saveNBO
 ---------------------------------------------------

 -------------------
 Title Card Required
 -------------------
 Symbolic Z-matrix:
 Charge =  0 Multiplicity = 1

                         Standard orientation:
 ---------------------------------------------------------------------
 Center     Atomic      Atomic             Coordinates (Angstroms)
 Number     Number       Type             X           Y           Z
 ---------------------------------------------------------------------
      1         15           0        0.000000    0.000000    2.138495
      2         15           0        0.000000    0.000000   -2.138495
 ---------------------------------------------------------------------

 SCF Done:  E(UM062X) =  -682.267358954     A.U. after    9 cycles

 The electronic state is 1-SGG.
 Alpha  occ. eigenvalues --  -78.11819 -78.11819  -6.93494  -6.93494  -5.04790
 Alpha  occ. eigenvalues --   -5.04790  -5.04777  -5.04777  -5.04777  -5.04777
 Alpha  occ. eigenvalues --   -0.64149  -0.63283  -0.26201  -0.24799  -0.24799
 Alpha virt. eigenvalues --   -0.17855  -0.17855  -0.16287   0.02282   0.03340
 Alpha virt. eigenvalues --    0.04400   0.04400   0.06329   0.06329   0.06366
 Alpha virt. eigenvalues --    0.10215   0.29068   0.29915   0.29915   0.32713

  Beta  occ. eigenvalues --  -78.11819 -78.11819  -6.93494  -6.93494  -5.04790
  Beta  occ. eigenvalues --   -5.04790  -5.04777  -5.04777  -5.04777  -5.04777
  Beta  occ. eigenvalues --   -0.64149  -0.63283  -0.26201  -0.24799  -0.24799
  Beta virt. eigenvalues --   -0.17855  -0.17855  -0.16287   0.02282   0.03340
  Beta virt. eigenvalues --    0.04400   0.04400   0.06329   0.06329   0.06366
  Beta virt. eigenvalues --    0.10215   0.29068   0.29915   0.29915   0.32713

 Mulliken charges and spin densities:
               1          2
     1  P   -0.000000  -0.000000
     2  P   -0.000000  -0.000000
 Sum of Mulliken charges =  -0.00000  -0.00000

 Dipole moment (field-independent basis, Debye):
    X=             -0.0000    Y=             -0.0000    Z=             -0.0000  Tot=              0.0000
 Quadrupole moment (field-independent basis, Debye-Ang):
   XX=            -29.4079   YY=            -29.4079   ZZ=            -24.5395
   XY=              0.0000   XZ=             -0.0000   YZ=              0.0000

 Summary of Natural Population Analysis:

                                       Natural Population
                Natural  -----------------------------------------------
    Atom  No    Charge         Core      Valence    Rydberg      Total
 -----------------------------------------------------------------------
      P    1   -0.00000      5.00000     2.49948    0.00052     7.50000
      P    2   -0.00000      5.00000     2.49948    0.00052     7.50000
 =======================================================================
   * Total *   -0.00000     10.00000     4.99897    0.00103    15.00000

 Normal termination of Gaussian 16 at Mon Apr 21 21:22:41 2025.
