 Gaussian 16, Revision A.03,
 Gaussian 16:  ES64L-G16RevA.03 25-Dec-2016

 --------------------------------------------
 #p opt UM062X/6-311+G** nosymm int=superfine
 --------------------------------------------

 -------------------
 Title Card Required
 -------------------
 Symbolic Z-matrix:
 Charge =  1 Multiplicity = 2

 SCF Done:  E(UM062X) =  -92.5785862427     A.U. after   24 cycles
 SCF Done:  E(UM062X) =  -92.5788515366     A.U. after   13 cycles
 Optimization completed.
    -- Stationary point found.

                          Input orientation:
 ---------------------------------------------------------------------
 Center     Atomic      Atomic             Coordinates (Angstroms)
 Number     Number       Type             X           Y           Z
 ---------------------------------------------------------------------
      1          6           0       -1.626540    0.000000    0.000000
      2          7           0        1.626540    0.000000    0.000000
      3          1           0       -2.741468    0.000000    0.000000
 ---------------------------------------------------------------------

 Alpha  occ. eigenvalues --  -15.25265 -10.96747  -1.20254  -0.98016  -0.75061
 Alpha  occ. eigenvalues --   -0.72562  -0.65100
 Alpha virt. eigenvalues --   -0.45284  -0.33763  -0.31945  -0.13658  -0.09902
 Alpha virt. eigenvalues --   -0.08008  -0.07312  -0.04667  -0.02719  -0.02139
 Alpha virt. eigenvalues --   -0.00860   0.07836   0.25457   0.35073   0.35211

  Beta  occ. eigenvalues --  -15.22472 -10.97240  -1.07342  -1.00685  -0.66841
  Beta  occ. eigenvalues --   -0.52312
  Beta virt. eigenvalues --   -0.43145  -0.41046  -0.36732  -0.35611  -0.13451
  Beta virt. eigenvalues --   -0.10673  -0.08486  -0.07972  -0.05004  -0.02952
  Beta virt. eigenvalues --   -0.02390  -0.01885   0.05955   0.25992   0.34478

 Mulliken charges and spin densities:
               1          2
     1  C    0.214524  -0.576819
     2  N    0.526349   1.560558
     3  H    0.259127   0.016262
 Sum of Mulliken charges =   1.00000   1.00000

 Dipole moment (field-independent basis, Debye):
    X=             -1.9648    Y=             -0.0000    Z=              0.0000  Tot=              1.9648
 Quadrupole moment (field-independent basis, Debye-Ang):
   XX=             11.6790   YY=             -9.4481   ZZ=            -11.3059
   XY=             -0.0000   XZ=              0.0000   YZ=              0.0869

 Normal termination of Gaussian 16 at Mon Apr 21 18:34:04 2025.
