 Gaussian 16, Revision A.03,
 Gaussian 16:  ES64L-G16RevA.03 25-Dec-2016

 ---------------------------------------
 #p UM062X/6-311+G** force int=superfine
 ---------------------------------------

 -------------------
 Title Card Required
 -------------------
 Symbolic Z-matrix:
 Charge =  1 Multiplicity = 2

                         Standard orientation:
 ---------------------------------------------------------------------
 Center     Atomic      Atomic             Coordinates (Angstroms)
 Number     Number       Type             X           Y           Z
 ---------------------------------------------------------------------
      1          6           0       -0.136116    0.394625   -1.274448
      2          6           0        0.136101   -0.394623    1.274450
      3          1           0       -0.079203   -1.432710    1.048654
      4          1           0        0.657870   -0.251536   -1.630851
      5          1           0       -0.657636    0.251501    1.631478
      6          1           0        1.166106   -0.063059    1.338591
      7          1           0        0.079033    1.432747   -1.048660
      8          1           0       -1.166078    0.063046   -1.339221
 ---------------------------------------------------------------------

 SCF Done:  E(UM062X) =  -79.3508471606     A.U. after   10 cycles

 The electronic state is 2-A.
 Alpha  occ. eigenvalues --  -10.85489 -10.85485  -1.05504  -1.02614  -0.75735
 Alpha  occ. eigenvalues --   -0.75734  -0.74238  -0.74238  -0.55481
 Alpha virt. eigenvalues --   -0.33197  -0.14847  -0.10491  -0.10491  -0.10045
 Alpha virt. eigenvalues --   -0.06205  -0.06205  -0.05988  -0.03318  -0.03315
 Alpha virt. eigenvalues --   -0.03008   0.01522   0.01524   0.05446   0.07447

  Beta  occ. eigenvalues --  -10.85293 -10.85293  -1.02355  -1.00213  -0.75069
  Beta  occ. eigenvalues --   -0.75068  -0.73707  -0.73706
  Beta virt. eigenvalues --   -0.33547  -0.23987  -0.15526  -0.11113  -0.11113
  Beta virt. eigenvalues --   -0.09680  -0.06536  -0.06536  -0.05968  -0.03308
  Beta virt. eigenvalues --   -0.03306  -0.02240   0.01898   0.01900   0.06013

 Mulliken charges and spin densities:
               1          2
     1  C   -0.279835   0.573904
     2  C   -0.279835   0.573905
     3  H    0.259961  -0.024647
     4  H    0.259919  -0.024633
     5  H    0.259944  -0.024640
     6  H    0.259929  -0.024618
     7  H    0.259962  -0.024648
     8  H    0.259954  -0.024623
 Sum of Mulliken charges =   1.00000   1.00000

 Dipole moment (field-independent basis, Debye):
    X=              0.0000    Y=             -0.0000    Z=             -0.0000  Tot=              0.0000
 Quadrupole moment (field-independent basis, Debye-Ang):
   XX=            -10.8836   YY=            -10.2450   ZZ=             -3.4213
   XY=             -0.2496   XZ=              0.8059   YZ=             -2.3386

 Normal termination of Gaussian 16 at Wed Nov 13 13:01:58 2024.
