 Gaussian 16, Revision A.03,
 Gaussian 16:  ES64L-G16RevA.03 25-Dec-2016

 --------------------------------------------
 #p opt UM062X/6-311+G** nosymm int=superfine
 --------------------------------------------

 -------------------
 Title Card Required
 -------------------
 Symbolic Z-matrix:
 Charge =  0 Multiplicity = 1

 SCF Done:  E(UM062X) =  -474.448404954     A.U. after   17 cycles
 SCF Done:  E(UM062X) =  -474.451762823     A.U. after   15 cycles
 SCF Done:  E(UM062X) =  -474.453404532     A.U. after   16 cycles
 SCF Done:  E(UM062X) =  -474.453440649     A.U. after   14 cycles
 SCF Done:  E(UM062X) =  -474.453441521     A.U. after   13 cycles
 SCF Done:  E(UM062X) =  -474.453441578     A.U. after   14 cycles
 Optimization completed.
    -- Stationary point found.

                          Input orientation:
 ---------------------------------------------------------------------
 Center     Atomic      Atomic             Coordinates (Angstroms)
 Number     Number       Type             X           Y           Z
 ---------------------------------------------------------------------
      1          8           0       -1.289392    0.000000    0.000000
      2         16           0        1.289392    0.000000    0.000000
      3          1           0       -1.322170   -0.943332   -0.220032
      4          1           0        1.178044    0.385065    1.284059
 ---------------------------------------------------------------------

 Alpha  occ. eigenvalues --  -89.97508 -19.67465  -8.33546  -6.25766  -6.25395
 Alpha  occ. eigenvalues --   -6.24843  -1.08849  -0.83235  -0.52813  -0.49208
 Alpha  occ. eigenvalues --   -0.39947  -0.38854  -0.34978
 Alpha virt. eigenvalues --   -0.16623   0.01590   0.04060   0.04748   0.05655
 Alpha virt. eigenvalues --    0.07440   0.14902   0.19504   0.20011   0.21446
 Alpha virt. eigenvalues --    0.26677   0.31302   0.34043   0.35443   0.40139

  Beta  occ. eigenvalues --  -89.97508 -19.67465  -8.33546  -6.25766  -6.25395
  Beta  occ. eigenvalues --   -6.24843  -1.08849  -0.83235  -0.52813  -0.49208
  Beta  occ. eigenvalues --   -0.39947  -0.38854  -0.34978
  Beta virt. eigenvalues --   -0.16623   0.01590   0.04060   0.04748   0.05655
  Beta virt. eigenvalues --    0.07440   0.14902   0.19504   0.20011   0.21446
  Beta virt. eigenvalues --    0.26677   0.31302   0.34043   0.35443   0.40139

 Mulliken charges and spin densities:
               1          2
     1  O   -0.430691  -0.000000
     2  S    0.070151   0.000000
     3  H    0.249527   0.000000
     4  H    0.111014  -0.000000
 Sum of Mulliken charges =  -0.00000  -0.00000

 Dipole moment (field-independent basis, Debye):
    X=              1.8728    Y=             -1.3054    Z=              0.7172  Tot=              2.3928
 Quadrupole moment (field-independent basis, Debye-Ang):
   XX=            -18.2858   YY=            -19.8466   ZZ=            -18.6592
   XY=              2.9576   XZ=              2.1163   YZ=              1.6991

 Normal termination of Gaussian 16 at Thu May 15 12:58:54 2025.
