 Gaussian 16, Revision A.03,
 Gaussian 16:  ES64L-G16RevA.03 25-Dec-2016

 --------------------------------------------
 #p opt UM062X/6-311+G** nosymm int=superfine
 --------------------------------------------

 -------------------
 Title Card Required
 -------------------
 Symbolic Z-matrix:
 Charge =  0 Multiplicity = 1

 SCF Done:  E(UM062X) =  -111.739148560     A.U. after   14 cycles
 SCF Done:  E(UM062X) =  -111.758198639     A.U. after   14 cycles
 SCF Done:  E(UM062X) =  -111.764245936     A.U. after   14 cycles
 SCF Done:  E(UM062X) =  -111.765205451     A.U. after   11 cycles
 SCF Done:  E(UM062X) =  -111.766508532     A.U. after   13 cycles
 SCF Done:  E(UM062X) =  -111.766710796     A.U. after   11 cycles
 SCF Done:  E(UM062X) =  -111.766796005     A.U. after   11 cycles
 SCF Done:  E(UM062X) =  -111.766797035     A.U. after    8 cycles
 SCF Done:  E(UM062X) =  -111.766797144     A.U. after    7 cycles
 Optimization completed.
    -- Stationary point found.

                          Input orientation:
 ---------------------------------------------------------------------
 Center     Atomic      Atomic             Coordinates (Angstroms)
 Number     Number       Type             X           Y           Z
 ---------------------------------------------------------------------
      1          7           0       -1.061540    0.000000    0.000000
      2          7           0        1.061540    0.000000    0.000000
      3          1           0       -1.092046   -0.819247   -0.613449
      4          1           0        1.091993    0.414664   -0.935703
      5          1           0       -1.091865   -0.416347    0.934959
      6          1           0        1.091915    0.820356    0.611966
 ---------------------------------------------------------------------

 Alpha  occ. eigenvalues --  -14.79082 -14.79076  -0.96991  -0.91090  -0.55869
 Alpha  occ. eigenvalues --   -0.52213  -0.41512  -0.39993  -0.34155
 Alpha virt. eigenvalues --   -0.05841   0.04541   0.07783   0.08846   0.11707
 Alpha virt. eigenvalues --    0.13443   0.13517   0.15479   0.16028   0.21115
 Alpha virt. eigenvalues --    0.22465   0.27332   0.27813   0.51422   0.52152

  Beta  occ. eigenvalues --  -14.79082 -14.79076  -0.96991  -0.91090  -0.55869
  Beta  occ. eigenvalues --   -0.52213  -0.41512  -0.39993  -0.34155
  Beta virt. eigenvalues --   -0.05841   0.04541   0.07783   0.08846   0.11707
  Beta virt. eigenvalues --    0.13443   0.13517   0.15479   0.16028   0.21115
  Beta virt. eigenvalues --    0.22465   0.27332   0.27813   0.51422   0.52152

 Mulliken charges and spin densities:
               1          2
     1  N   -0.519476   0.000000
     2  N   -0.519477  -0.000000
     3  H    0.259690  -0.000000
     4  H    0.259690  -0.000000
     5  H    0.259787  -0.000000
     6  H    0.259786   0.000000
 Sum of Mulliken charges =  -0.00000   0.00000

 Dipole moment (field-independent basis, Debye):
    X=             -0.0000    Y=             -0.0008    Z=             -0.0033  Tot=              0.0034
 Quadrupole moment (field-independent basis, Debye-Ang):
   XX=            -15.3848   YY=            -13.9903   ZZ=            -11.2414
   XY=              5.0060   XZ=             -1.3072   YZ=              0.7705

 Normal termination of Gaussian 16 at Thu May 15 14:30:38 2025.
