 Gaussian 16, Revision A.03,
 Gaussian 16:  ES64L-G16RevA.03 25-Dec-2016

 --------------------------------------------
 #p opt UM062X/6-311+G** nosymm int=superfine
 --------------------------------------------

 -------------------
 Title Card Required
 -------------------
 Symbolic Z-matrix:
 Charge =  0 Multiplicity = 1

 SCF Done:  E(UM062X) =  -111.619145313     A.U. after   16 cycles
 SCF Done:  E(UM062X) =  -111.624875223     A.U. after   14 cycles
 SCF Done:  E(UM062X) =  -111.628973384     A.U. after   15 cycles
 SCF Done:  E(UM062X) =  -111.631355961     A.U. after   15 cycles
 SCF Done:  E(UM062X) =  -111.633365878     A.U. after   16 cycles
 SCF Done:  E(UM062X) =  -111.633986558     A.U. after   16 cycles
 SCF Done:  E(UM062X) =  -111.634408066     A.U. after   15 cycles
 SCF Done:  E(UM062X) =  -111.634831361     A.U. after   16 cycles
 SCF Done:  E(UM062X) =  -111.634964474     A.U. after   16 cycles
 SCF Done:  E(UM062X) =  -111.635019306     A.U. after   16 cycles
 SCF Done:  E(UM062X) =  -111.635042933     A.U. after   15 cycles
 SCF Done:  E(UM062X) =  -111.635096283     A.U. after   15 cycles
 SCF Done:  E(UM062X) =  -111.635121494     A.U. after   13 cycles
 SCF Done:  E(UM062X) =  -111.635127165     A.U. after   12 cycles
 SCF Done:  E(UM062X) =  -111.635127243     A.U. after   11 cycles
 Optimization completed.
    -- Stationary point found.

                          Input orientation:
 ---------------------------------------------------------------------
 Center     Atomic      Atomic             Coordinates (Angstroms)
 Number     Number       Type             X           Y           Z
 ---------------------------------------------------------------------
      1          7           0       -1.811540    0.000000    0.000000
      2          7           0        1.811540    0.000000    0.000000
      3          1           0       -1.697603   -0.811916   -0.619707
      4          1           0        1.697570    0.403925   -0.938122
      5          1           0       -1.697342   -0.405276    0.937519
      6          1           0        1.697635    0.812838    0.618493
 ---------------------------------------------------------------------

 Alpha  occ. eigenvalues --  -14.80550 -14.80549  -0.95220  -0.94876  -0.55322
 Alpha  occ. eigenvalues --   -0.55122  -0.40831  -0.40538  -0.28700
 Alpha virt. eigenvalues --   -0.18267   0.04300   0.06119   0.08726   0.11511
 Alpha virt. eigenvalues --    0.12454   0.13557   0.15634   0.16256   0.18166
 Alpha virt. eigenvalues --    0.19006   0.24571   0.27975   0.51316   0.51468

  Beta  occ. eigenvalues --  -14.80550 -14.80549  -0.95220  -0.94876  -0.55322
  Beta  occ. eigenvalues --   -0.55122  -0.40831  -0.40538  -0.28700
  Beta virt. eigenvalues --   -0.18267   0.04300   0.06119   0.08726   0.11511
  Beta virt. eigenvalues --    0.12454   0.13557   0.15634   0.16256   0.18166
  Beta virt. eigenvalues --    0.19006   0.24571   0.27975   0.51316   0.51468

 Mulliken charges and spin densities:
               1          2
     1  N   -0.485267  -0.000000
     2  N   -0.485315   0.000000
     3  H    0.242631   0.000000
     4  H    0.242634  -0.000000
     5  H    0.242658   0.000000
     6  H    0.242658  -0.000000
 Sum of Mulliken charges =  -0.00000  -0.00000

 Dipole moment (field-independent basis, Debye):
    X=              0.0003    Y=             -0.0007    Z=             -0.0030  Tot=              0.0031
 Quadrupole moment (field-independent basis, Debye-Ang):
   XX=            -16.6761   YY=            -14.3561   ZZ=            -11.5258
   XY=              7.5050   XZ=             -1.9651   YZ=              0.7959

 Normal termination of Gaussian 16 at Thu May 15 15:03:06 2025.
