 Gaussian 16, Revision A.03,
 Gaussian 16:  ES64L-G16RevA.03 25-Dec-2016

 ---------------------------------------------------------
 #p opt UM062X/6-311+G** nosymm int=superfine SCF=NoVarAcc
 ---------------------------------------------------------

 -------------------
 Title Card Required
 -------------------
 Symbolic Z-matrix:
 Charge =  0 Multiplicity = 1

 SCF Done:  E(UM062X) =  -78.2062298145     A.U. after    9 cycles
 SCF Done:  E(UM062X) =  -78.2227867253     A.U. after    9 cycles
 SCF Done:  E(UM062X) =  -78.2371270137     A.U. after    8 cycles
 SCF Done:  E(UM062X) =  -78.2373941920     A.U. after    8 cycles
 Optimization completed.
    -- Stationary point found.

                          Input orientation:
 ---------------------------------------------------------------------
 Center     Atomic      Atomic             Coordinates (Angstroms)
 Number     Number       Type             X           Y           Z
 ---------------------------------------------------------------------
      1          6           0       -4.535595    0.000000    0.000000
      2          6           0        4.535595    0.000000    0.000000
      3          1           0       -5.234365   -0.860983    0.000000
      4          1           0       -5.234335    0.861000    0.000000
      5          1           0        5.234365    0.860983    0.000000
      6          1           0        5.234335   -0.861000    0.000000
 ---------------------------------------------------------------------

 Alpha  occ. eigenvalues --  -10.60635 -10.60635  -0.75567  -0.75567  -0.47442
 Alpha  occ. eigenvalues --   -0.47442  -0.31247  -0.31246
 Alpha virt. eigenvalues --   -0.08080  -0.08077   0.02480   0.02506   0.06703
 Alpha virt. eigenvalues --    0.06850   0.08651   0.08733   0.08770   0.10210
 Alpha virt. eigenvalues --    0.17749   0.17813   0.19632   0.19648   0.44198

  Beta  occ. eigenvalues --  -10.60635 -10.60635  -0.75567  -0.75567  -0.47442
  Beta  occ. eigenvalues --   -0.47442  -0.31247  -0.31246
  Beta virt. eigenvalues --   -0.08080  -0.08077   0.02480   0.02506   0.06703
  Beta virt. eigenvalues --    0.06850   0.08651   0.08733   0.08770   0.10210
  Beta virt. eigenvalues --    0.17749   0.17813   0.19632   0.19648   0.44198

 Mulliken charges and spin densities:
               1          2
     1  C   -0.253122  -0.000000
     2  C   -0.253122  -0.000000
     3  H    0.126561   0.000000
     4  H    0.126562  -0.000000
     5  H    0.126561   0.000000
     6  H    0.126562   0.000000
 Sum of Mulliken charges =  -0.00000  -0.00000

 Dipole moment (field-independent basis, Debye):
    X=              0.0000    Y=             -0.0000    Z=              0.0000  Tot=              0.0000
 Quadrupole moment (field-independent basis, Debye-Ang):
   XX=             19.5426   YY=            -14.4606   ZZ=            -12.8697
   XY=             -0.0003   XZ=              0.0000   YZ=              0.0000

 Normal termination of Gaussian 16 at Tue Dec  3 17:40:22 2024.
