 Gaussian 16, Revision A.03,
 Gaussian 16:  ES64L-G16RevA.03 25-Dec-2016

 --------------------------------------------
 #p opt UM062X/6-311+G** nosymm int=superfine
 --------------------------------------------

 -------------------
 Title Card Required
 -------------------
 Symbolic Z-matrix:
 Charge =  0 Multiplicity = 1

 SCF Done:  E(UM062X) =  -92.9318546287     A.U. after   12 cycles
 SCF Done:  E(UM062X) =  -92.9332612062     A.U. after   11 cycles
 SCF Done:  E(UM062X) =  -92.9332659794     A.U. after    9 cycles
 Optimization completed.
    -- Stationary point found.

                          Input orientation:
 ---------------------------------------------------------------------
 Center     Atomic      Atomic             Coordinates (Angstroms)
 Number     Number       Type             X           Y           Z
 ---------------------------------------------------------------------
      1          6           0       -1.122394    0.000000    0.000000
      2          7           0        1.122394    0.000000    0.000000
      3          1           0       -2.238333   -0.000000   -0.000000
 ---------------------------------------------------------------------

 Alpha  occ. eigenvalues --  -14.87893 -10.74197  -0.82134  -0.77043  -0.44045
 Alpha  occ. eigenvalues --   -0.30732  -0.30732
 Alpha virt. eigenvalues --   -0.14368  -0.14368  -0.09013   0.01268   0.06659
 Alpha virt. eigenvalues --    0.07320   0.07320   0.13238   0.16899   0.16899
 Alpha virt. eigenvalues --    0.19157   0.26536   0.45514   0.53837   0.53837

  Beta  occ. eigenvalues --  -14.87893 -10.74197  -0.82134  -0.77043  -0.44045
  Beta  occ. eigenvalues --   -0.30732  -0.30732
  Beta virt. eigenvalues --   -0.14368  -0.14368  -0.09013   0.01268   0.06659
  Beta virt. eigenvalues --    0.07320   0.07320   0.13238   0.16899   0.16899
  Beta virt. eigenvalues --    0.19157   0.26536   0.45514   0.53837   0.53837

 Mulliken charges and spin densities:
               1          2
     1  C   -0.135976   0.000000
     2  N   -0.075659  -0.000000
     3  H    0.211635  -0.000000
 Sum of Mulliken charges =  -0.00000   0.00000

 Dipole moment (field-independent basis, Debye):
    X=             -3.5976    Y=             -0.0000    Z=             -0.0000  Tot=              3.5976
 Quadrupole moment (field-independent basis, Debye-Ang):
   XX=             -6.3287   YY=            -14.2042   ZZ=            -14.2042
   XY=              0.0000   XZ=              0.0000   YZ=              0.0000

 Normal termination of Gaussian 16 at Mon Apr 21 18:39:02 2025.
