 Gaussian 16, Revision A.03,
 Gaussian 16:  ES64L-G16RevA.03 25-Dec-2016

 --------------------------------------------
 #p opt UM062X/6-311+G** nosymm int=superfine
 --------------------------------------------

 -------------------
 Title Card Required
 -------------------
 Symbolic Z-matrix:
 Charge =  0 Multiplicity = 1

 SCF Done:  E(UM062X) =  -94.2791486593     A.U. after   16 cycles
 SCF Done:  E(UM062X) =  -94.2851257907     A.U. after   14 cycles
 SCF Done:  E(UM062X) =  -94.2885582424     A.U. after   15 cycles
 SCF Done:  E(UM062X) =  -94.2885767498     A.U. after   13 cycles
 SCF Done:  E(UM062X) =  -94.2885281768     A.U. after   15 cycles
 SCF Done:  E(UM062X) =  -94.2885836456     A.U. after   14 cycles
 SCF Done:  E(UM062X) =  -94.2885874713     A.U. after   15 cycles
 SCF Done:  E(UM062X) =  -94.2885942287     A.U. after   13 cycles
 SCF Done:  E(UM062X) =  -94.2885973318     A.U. after   11 cycles
 SCF Done:  E(UM062X) =  -94.2885975963     A.U. after   19 cycles
 Optimization completed.
    -- Stationary point found.

                          Input orientation:
 ---------------------------------------------------------------------
 Center     Atomic      Atomic             Coordinates (Angstroms)
 Number     Number       Type             X           Y           Z
 ---------------------------------------------------------------------
      1          6           0       -1.281637    0.000000    0.000000
      2          7           0        1.281637    0.000000    0.000000
      3          1           0       -2.060329   -0.776549    0.000172
      4          1           0        1.165830   -1.028343   -0.000208
      5          1           0       -1.762097    0.986831    0.000164
 ---------------------------------------------------------------------

 Alpha  occ. eigenvalues --  -14.78787 -10.65907  -0.85333  -0.78976  -0.52598
 Alpha  occ. eigenvalues --   -0.41916  -0.35239  -0.29090
 Alpha virt. eigenvalues --   -0.11312  -0.06710   0.01327   0.05162   0.06540
 Alpha virt. eigenvalues --    0.07527   0.12876   0.14796   0.16989   0.17314
 Alpha virt. eigenvalues --    0.19582   0.20635   0.26967   0.42128   0.44746

  Beta  occ. eigenvalues --  -14.78787 -10.65907  -0.85333  -0.78976  -0.52598
  Beta  occ. eigenvalues --   -0.41916  -0.35239  -0.29090
  Beta virt. eigenvalues --   -0.11312  -0.06710   0.01327   0.05162   0.06540
  Beta virt. eigenvalues --    0.07527   0.12876   0.14796   0.16989   0.17314
  Beta virt. eigenvalues --    0.19582   0.20635   0.26967   0.42128   0.44746

 Mulliken charges and spin densities:
               1          2
     1  C   -0.281096  -0.000000
     2  N   -0.252658   0.000000
     3  H    0.170990   0.000000
     4  H    0.188192  -0.000000
     5  H    0.174572   0.000000
 Sum of Mulliken charges =  -0.00000  -0.00000

 Dipole moment (field-independent basis, Debye):
    X=             -3.6730    Y=             -1.2393    Z=              0.0002  Tot=              3.8764
 Quadrupole moment (field-independent basis, Debye-Ang):
   XX=             -9.6857   YY=            -12.5192   ZZ=            -15.1867
   XY=             -2.3552   XZ=             -0.0002   YZ=              0.0004

 Normal termination of Gaussian 16 at Mon Apr 21 18:24:12 2025.
