 Gaussian 16, Revision A.03,
 Gaussian 16:  ES64L-G16RevA.03 25-Dec-2016

 --------------------------------------------
 #p opt UM062X/6-311+G** nosymm int=superfine
 --------------------------------------------

 -------------------
 Title Card Required
 -------------------
 Symbolic Z-matrix:
 Charge =  1 Multiplicity = 2

 SCF Done:  E(UM062X) =  -80.3141019947     A.U. after   13 cycles
 SCF Done:  E(UM062X) =  -80.3141470960     A.U. after   10 cycles
 SCF Done:  E(UM062X) =  -80.3141470195     A.U. after    7 cycles
 SCF Done:  E(UM062X) =  -80.3141471394     A.U. after    7 cycles
 Optimization completed.
    -- Stationary point found.

                          Input orientation:
 ---------------------------------------------------------------------
 Center     Atomic      Atomic             Coordinates (Angstroms)
 Number     Number       Type             X           Y           Z
 ---------------------------------------------------------------------
      1          5           0       -0.802734    0.000000    0.000000
      2          7           0        0.802734    0.000000    0.000000
      3          1           0       -1.978300    0.000022   -0.000000
      4          1           0        1.825732    0.000387   -0.000000
 ---------------------------------------------------------------------

 Alpha  occ. eigenvalues --  -15.10262  -7.50541  -1.22696  -0.90901  -0.82352
 Alpha  occ. eigenvalues --   -0.69494  -0.65258
 Alpha virt. eigenvalues --   -0.30207  -0.29126  -0.22794  -0.14094  -0.10851
 Alpha virt. eigenvalues --   -0.10347  -0.09931  -0.09127  -0.01730  -0.01390
 Alpha virt. eigenvalues --    0.03542   0.05910   0.09873   0.17471   0.17853

  Beta  occ. eigenvalues --  -15.09142  -7.50607  -1.15885  -0.89322  -0.81775
  Beta  occ. eigenvalues --   -0.61612
  Beta virt. eigenvalues --   -0.39995  -0.28881  -0.25142  -0.21946  -0.14077
  Beta virt. eigenvalues --   -0.10846  -0.09976  -0.09731  -0.09048  -0.01614
  Beta virt. eigenvalues --   -0.01280   0.01992   0.06033   0.10426   0.16454

 Mulliken charges and spin densities:
               1          2
     1  B    0.609818   0.005534
     2  N   -0.226784   1.034867
     3  H    0.206207  -0.008501
     4  H    0.410758  -0.031900
 Sum of Mulliken charges =   1.00000   1.00000

 Dipole moment (field-independent basis, Debye):
    X=             -1.2892    Y=              0.0006    Z=             -0.0000  Tot=              1.2892
 Quadrupole moment (field-independent basis, Debye-Ang):
   XX=              0.7814   YY=             -9.6675   ZZ=            -11.5630
   XY=              0.0013   XZ=             -0.0000   YZ=             -0.0002

 Normal termination of Gaussian 16 at Mon Apr 21 17:50:27 2025.
