 Gaussian 16, Revision A.03,
 Gaussian 16:  ES64L-G16RevA.03 25-Dec-2016

 ---------------------------------------------------
 #p UM062X/6-311+G** force int=superfine pop=saveNBO
 ---------------------------------------------------

 -------------------
 Title Card Required
 -------------------
 Symbolic Z-matrix:
 Charge =  1 Multiplicity = 2

                         Standard orientation:
 ---------------------------------------------------------------------
 Center     Atomic      Atomic             Coordinates (Angstroms)
 Number     Number       Type             X           Y           Z
 ---------------------------------------------------------------------
      1         14           0       -0.000000    1.116295   -0.000006
      2         14           0       -0.000000   -1.116295   -0.000006
      3          1           0        1.273606    1.844766   -0.000606
      4          1           0       -1.273606   -1.844766   -0.000606
      5          1           0       -1.273601    1.844788    0.000689
      6          1           0        1.273601   -1.844788    0.000689
 ---------------------------------------------------------------------

 SCF Done:  E(UM062X) =  -580.987640406     A.U. after   10 cycles

 The electronic state is 2-A.
 Alpha  occ. eigenvalues --  -67.25327 -67.25327  -5.80238  -5.80224  -4.11917
 Alpha  occ. eigenvalues --   -4.11907  -4.11210  -4.11124  -4.11078  -4.11069
 Alpha  occ. eigenvalues --   -0.87392  -0.78333  -0.65720  -0.62866  -0.60392
 Alpha  occ. eigenvalues --   -0.48724
 Alpha virt. eigenvalues --   -0.27300  -0.17964  -0.17482  -0.13786  -0.11924
 Alpha virt. eigenvalues --   -0.10316  -0.09727  -0.09045  -0.08367  -0.08272
 Alpha virt. eigenvalues --   -0.06829  -0.05806  -0.00805   0.06675   0.07107

  Beta  occ. eigenvalues --  -67.25033 -67.25032  -5.80155  -5.80142  -4.11173
  Beta  occ. eigenvalues --   -4.11161  -4.11144  -4.11048  -4.10970  -4.10960
  Beta  occ. eigenvalues --   -0.84954  -0.77102  -0.65491  -0.63012  -0.59846
  Beta virt. eigenvalues --   -0.32662  -0.22836  -0.16751  -0.15748  -0.15175
  Beta virt. eigenvalues --   -0.12364  -0.10417  -0.09878  -0.08322  -0.08181
  Beta virt. eigenvalues --   -0.07813  -0.06580  -0.03917  -0.01813   0.07030

 Mulliken charges and spin densities:
               1          2
     1  Si   0.431125   0.552235
     2  Si   0.431125   0.552235
     3  H    0.034436  -0.026118
     4  H    0.034436  -0.026118
     5  H    0.034439  -0.026118
     6  H    0.034439  -0.026118
 Sum of Mulliken charges =   1.00000   1.00000

 Dipole moment (field-independent basis, Debye):
    X=              0.0000    Y=              0.0000    Z=             -0.0001  Tot=              0.0001
 Quadrupole moment (field-independent basis, Debye-Ang):
   XX=            -23.3096   YY=            -14.8581   ZZ=            -23.2998
   XY=             -0.0001   XZ=             -0.0000   YZ=              0.0000

 Summary of Natural Population Analysis:

                                       Natural Population
                Natural  -----------------------------------------------
    Atom  No    Charge         Core      Valence    Rydberg      Total
 -----------------------------------------------------------------------
     Si    1    0.58933      4.99857     1.40238    0.00972     6.41067
     Si    2    0.58933      4.99857     1.40238    0.00972     6.41067
      H    3   -0.04466      0.00000     0.54294    0.00172     0.54466
      H    4   -0.04466      0.00000     0.54294    0.00172     0.54466
      H    5   -0.04466      0.00000     0.54294    0.00172     0.54466
      H    6   -0.04466      0.00000     0.54294    0.00172     0.54466
 =======================================================================
   * Total *    1.00000      9.99715     4.97651    0.02634    15.00000

 Optimization completed.
    -- Stationary point found.
 Normal termination of Gaussian 16 at Wed Apr 16 05:48:31 2025.
