 Gaussian 16, Revision A.03,
 Gaussian 16:  ES64L-G16RevA.03 25-Dec-2016

 --------------------------------------------
 #p opt UM062X/6-311+G** nosymm int=superfine
 --------------------------------------------

 -------------------
 Title Card Required
 -------------------
 Symbolic Z-matrix:
 Charge =  1 Multiplicity = 2

 SCF Done:  E(UM062X) =  -1615.39883605     A.U. after   30 cycles
 SCF Done:  E(UM062X) =  -1615.47706351     A.U. after   26 cycles
 SCF Done:  E(UM062X) =  -1615.54618232     A.U. after   24 cycles
 SCF Done:  E(UM062X) =  -1615.54912999     A.U. after   23 cycles
 SCF Done:  E(UM062X) =  -1615.54976527     A.U. after   26 cycles
 SCF Done:  E(UM062X) =  -1615.54922722     A.U. after   25 cycles
 SCF Done:  E(UM062X) =  -1615.51583221     A.U. after   28 cycles
 SCF Done:  E(UM062X) =  -1615.51976074     A.U. after   25 cycles
 SCF Done:  E(UM062X) =  -1615.54981167     A.U. after   23 cycles
 SCF Done:  E(UM062X) =  -1615.55073228     A.U. after   26 cycles
 SCF Done:  E(UM062X) =  -1615.55152972     A.U. after   19 cycles
 SCF Done:  E(UM062X) =  -1615.55153288     A.U. after   19 cycles
 SCF Done:  E(UM062X) =  -1615.55153541     A.U. after   21 cycles
 SCF Done:  E(UM062X) =  -1615.55153654     A.U. after   19 cycles
 SCF Done:  E(UM062X) =  -1615.55153701     A.U. after   19 cycles
 SCF Done:  E(UM062X) =  -1615.55153741     A.U. after   16 cycles
 SCF Done:  E(UM062X) =  -1615.55153768     A.U. after   16 cycles
 SCF Done:  E(UM062X) =  -1615.55153787     A.U. after   16 cycles
 SCF Done:  E(UM062X) =  -1615.55153800     A.U. after   17 cycles
 SCF Done:  E(UM062X) =  -1615.55153804     A.U. after   16 cycles
 Optimization completed.
    -- Stationary point found.

                          Input orientation:
 ---------------------------------------------------------------------
 Center     Atomic      Atomic             Coordinates (Angstroms)
 Number     Number       Type             X           Y           Z
 ---------------------------------------------------------------------
      1          6           0       -1.840359    0.000000    0.000000
      2          6           0        1.840359    0.000000    0.000000
      3          6           0       -0.000046   -1.993649   -0.001989
      4          6           0       -0.000038   -3.403385   -0.003433
      5          6           0       -1.120921   -4.249260    0.230503
      6          6           0       -1.348250   -1.428158    0.181545
      7          6           0        0.658989   -5.641316   -0.148021
      8          1           0        1.290843   -6.506560   -0.288856
      9          6           0       -1.853521    0.789078    1.201784
     10          6           0       -0.659064   -5.641613    0.136439
     11          1           0       -1.290901   -6.507150    0.275542
     12          6           0        1.120846   -4.248768   -0.239145
     13          6           0        1.348152   -1.427779   -0.184360
     14          6           0        2.304904    2.147596   -1.332443
     15          6           0       -2.083341    0.358292   -1.371459
     16          6           0       -2.271735    2.759135    2.601184
     17          1           0       -2.633196    3.777474    2.681587
     18          6           0       -2.333432   -3.683645    0.492167
     19          1           0       -3.220976   -4.270552    0.697192
     20          6           0       -2.463815    1.652621   -1.860189
     21          6           0        2.410939   -2.271828   -0.449735
     22          1           0        3.386031   -1.814797   -0.585307
     23          6           0        2.083485    0.355576    1.372124
     24          6           0        2.464531    1.648857    1.863205
     25          6           0        2.333346   -3.682603   -0.499671
     26          1           0        3.220887   -4.269074   -0.705950
     27          6           0       -2.304352    2.145193    1.336508
     28          6           0       -1.362299    0.168580    2.390601
     29          1           0       -1.011756   -0.851122    2.345215
     30          6           0        1.896718   -0.662514    2.359306
     31          1           0        1.660861   -1.668433    2.046523
     32          6           0       -1.790303    2.119761    3.724741
     33          1           0       -1.779628    2.628613    4.680690
     34          6           0       -2.411042   -2.272771    0.445100
     35          1           0       -3.386138   -1.816019    0.581583
     36          6           0       -2.557800    1.863313   -3.248480
     37          1           0       -2.836337    2.851679   -3.594466
     38          6           0        1.853368    0.791491   -1.200180
     39          6           0       -2.780899    2.989695    0.273512
     40          1           0       -3.123245    3.963812    0.608132
     41          6           0       -2.332151    0.862338   -4.168786
     42          1           0       -2.424877    1.063633   -5.229087
     43          6           0       -2.819797    2.794353   -1.058893
     44          1           0       -3.182505    3.637255   -1.638514
     45          6           0        2.557984    1.857155    3.251882
     46          1           0        2.836921    2.844774    3.599675
     47          6           0       -1.322051    0.808651    3.607621
     48          1           0       -0.934228    0.285022    4.472849
     49          6           0       -1.897199   -0.658109   -2.360509
     50          1           0       -1.661517   -1.664646   -2.049584
     51          6           0        2.331382    0.854713    4.170364
     52          1           0        2.423567    1.054182    5.231057
     53          6           0        2.271918    2.764100   -2.595875
     54          1           0        2.633917    3.782393   -2.674418
     55          6           0        2.018898   -0.427386    3.708247
     56          1           0        1.873929   -1.242364    4.407218
     57          6           0        1.789480    2.127248   -3.720414
     58          1           0        1.778568    2.637996   -4.675349
     59          6           0        2.782822    2.989542   -0.268054
     60          1           0        3.126178    3.963899   -0.600933
     61          6           0       -2.019828   -0.420637   -3.709000
     62          1           0       -1.875348   -1.234456   -4.409423
     63          6           0        2.821975    2.791572    1.063957
     64          1           0        3.185936    3.632893    1.645091
     65          6           0        1.361191    0.173599   -2.389984
     66          1           0        1.010120   -0.845999   -2.346424
     67          6           0        1.320578    0.816136   -3.605670
     68          1           0        0.931960    0.294471   -4.471729
 ---------------------------------------------------------------------

 Alpha  occ. eigenvalues --  -10.70651 -10.70646 -10.68568 -10.68565 -10.68418
 Alpha  occ. eigenvalues --  -10.68416 -10.68146 -10.68143 -10.68135 -10.67962
 Alpha  occ. eigenvalues --  -10.67959 -10.67675 -10.67671 -10.66403 -10.66400
 Alpha  occ. eigenvalues --  -10.66298 -10.66295 -10.65862 -10.65859 -10.65757
 Alpha  occ. eigenvalues --  -10.65754 -10.65663 -10.65661 -10.65517 -10.65515
 Alpha  occ. eigenvalues --  -10.65472 -10.65470 -10.65328 -10.65326 -10.65298
 Alpha  occ. eigenvalues --  -10.65296 -10.65192 -10.65190 -10.65171 -10.65171
 Alpha  occ. eigenvalues --  -10.65061 -10.65060 -10.64747 -10.64746 -10.64010
 Alpha  occ. eigenvalues --  -10.63619 -10.63517  -1.11438  -1.10382  -1.09754
 Alpha  occ. eigenvalues --   -1.07987  -1.07794  -1.04968  -1.04866  -1.02212
 Alpha  occ. eigenvalues --   -1.02064  -1.00966  -0.99955  -0.97753  -0.97532
 Alpha  occ. eigenvalues --   -0.96437  -0.96239  -0.94730  -0.93472  -0.93337
 Alpha  occ. eigenvalues --   -0.92756  -0.91552  -0.87124  -0.86904  -0.84779
 Alpha  occ. eigenvalues --   -0.84646  -0.82955  -0.81371  -0.80592  -0.79656
 Alpha  occ. eigenvalues --   -0.79487  -0.79379  -0.77026  -0.76126  -0.75972
 Alpha  occ. eigenvalues --   -0.75770  -0.75146  -0.73095  -0.69831  -0.69437
 Alpha  occ. eigenvalues --   -0.68498  -0.68496  -0.67688  -0.67494  -0.66694
 Alpha  occ. eigenvalues --   -0.66689  -0.65674  -0.65237  -0.65073  -0.64446
 Alpha  occ. eigenvalues --   -0.63177  -0.62718  -0.62348  -0.61879  -0.60735
 Alpha  occ. eigenvalues --   -0.60633  -0.60363  -0.60026  -0.59824  -0.59532
 Alpha  occ. eigenvalues --   -0.59324  -0.58533  -0.58274  -0.57961  -0.57586
 Alpha  occ. eigenvalues --   -0.57356  -0.56327  -0.55944  -0.55529  -0.55508
 Alpha  occ. eigenvalues --   -0.54844  -0.54662  -0.52863  -0.52690  -0.52537
 Alpha  occ. eigenvalues --   -0.52281  -0.52196  -0.51816  -0.50846  -0.50836
 Alpha  occ. eigenvalues --   -0.50656  -0.49818  -0.49662  -0.49473  -0.48794
 Alpha  occ. eigenvalues --   -0.48522  -0.48011  -0.48009  -0.46243  -0.44213
 Alpha  occ. eigenvalues --   -0.43053  -0.42980  -0.41065  -0.40298  -0.38816
 Alpha  occ. eigenvalues --   -0.37994  -0.37801  -0.36938  -0.29023
 Alpha virt. eigenvalues --   -0.22092  -0.15293  -0.15251  -0.14711  -0.10368
 Alpha virt. eigenvalues --   -0.09236  -0.08713  -0.08515  -0.08295  -0.07696
 Alpha virt. eigenvalues --   -0.07343  -0.07268  -0.06583  -0.06234  -0.06222

  Beta  occ. eigenvalues --  -10.70490 -10.70485 -10.68613 -10.68610 -10.68464
  Beta  occ. eigenvalues --  -10.68462 -10.68108 -10.68104 -10.68101 -10.67917
  Beta  occ. eigenvalues --  -10.67914 -10.67694 -10.67689 -10.66396 -10.66393
  Beta  occ. eigenvalues --  -10.66290 -10.66287 -10.65826 -10.65824 -10.65725
  Beta  occ. eigenvalues --  -10.65722 -10.65621 -10.65618 -10.65489 -10.65487
  Beta  occ. eigenvalues --  -10.65477 -10.65474 -10.65344 -10.65342 -10.65318
  Beta  occ. eigenvalues --  -10.65316 -10.65210 -10.65209 -10.65166 -10.65166
  Beta  occ. eigenvalues --  -10.65050 -10.65049 -10.64747 -10.64745 -10.64008
  Beta  occ. eigenvalues --  -10.63619 -10.63517  -1.11305  -1.10205  -1.09676
  Beta  occ. eigenvalues --   -1.07883  -1.07696  -1.04817  -1.04701  -1.02096
  Beta  occ. eigenvalues --   -1.01955  -1.00789  -0.99792  -0.97649  -0.97429
  Beta  occ. eigenvalues --   -0.96330  -0.96147  -0.94690  -0.93403  -0.93236
  Beta  occ. eigenvalues --   -0.92676  -0.91471  -0.86815  -0.86554  -0.84712
  Beta  occ. eigenvalues --   -0.84581  -0.82880  -0.81280  -0.80496  -0.79579
  Beta  occ. eigenvalues --   -0.79410  -0.79301  -0.76921  -0.76001  -0.75800
  Beta  occ. eigenvalues --   -0.75603  -0.75092  -0.72988  -0.69710  -0.69288
  Beta  occ. eigenvalues --   -0.68405  -0.68389  -0.67640  -0.67447  -0.66575
  Beta  occ. eigenvalues --   -0.66572  -0.65563  -0.65087  -0.64926  -0.64354
  Beta  occ. eigenvalues --   -0.63010  -0.62661  -0.62249  -0.61807  -0.60606
  Beta  occ. eigenvalues --   -0.60491  -0.60247  -0.59943  -0.59765  -0.59351
  Beta  occ. eigenvalues --   -0.59103  -0.58463  -0.58062  -0.57884  -0.57372
  Beta  occ. eigenvalues --   -0.57268  -0.55923  -0.55745  -0.55460  -0.55457
  Beta  occ. eigenvalues --   -0.54800  -0.54343  -0.52762  -0.52589  -0.52485
  Beta  occ. eigenvalues --   -0.52169  -0.52083  -0.51798  -0.50788  -0.50733
  Beta  occ. eigenvalues --   -0.50566  -0.49588  -0.49473  -0.49266  -0.48405
  Beta  occ. eigenvalues --   -0.48168  -0.47972  -0.47060  -0.45491  -0.43823
  Beta  occ. eigenvalues --   -0.42636  -0.42287  -0.40796  -0.40217  -0.38300
  Beta  occ. eigenvalues --   -0.37831  -0.37346  -0.36930
  Beta virt. eigenvalues --   -0.19797  -0.18561  -0.15293  -0.15288  -0.14786
  Beta virt. eigenvalues --   -0.10126  -0.08847  -0.08317  -0.08307  -0.08104
  Beta virt. eigenvalues --   -0.07409  -0.07378  -0.07251  -0.06559  -0.06294

 Mulliken charges and spin densities:
               1          2
     1  C    0.124658   0.304483
     2  C    0.125024   0.304037
     3  C    0.214122   0.018006
     4  C    0.079129  -0.011326
     5  C    0.034322   0.007186
     6  C    0.237761  -0.025021
     7  C   -0.280742   0.000912
     8  H    0.175716   0.000003
     9  C   -0.047804  -0.107369
    10  C   -0.280773   0.000917
    11  H    0.175716   0.000003
    12  C    0.034457   0.007202
    13  C    0.238176  -0.024976
    14  C    0.369091   0.094576
    15  C    0.304803  -0.051580
    16  C   -0.223896  -0.033131
    17  H    0.172360   0.001000
    18  C   -0.409115   0.004384
    19  H    0.174100   0.000026
    20  C    0.392499   0.076279
    21  C   -0.361304   0.019760
    22  H    0.168980   0.000120
    23  C    0.305262  -0.051472
    24  C    0.392416   0.076143
    25  C   -0.409157   0.004370
    26  H    0.174106   0.000026
    27  C    0.369155   0.094574
    28  C    0.116159   0.109022
    29  H    0.196096  -0.006008
    30  C   -0.288305   0.034596
    31  H    0.231259  -0.004365
    32  C   -0.413008   0.072756
    33  H    0.178712  -0.003698
    34  C   -0.361419   0.019796
    35  H    0.169010   0.000119
    36  C   -0.150384  -0.045678
    37  H    0.167884   0.000889
    38  C   -0.048294  -0.107308
    39  C   -0.427582   0.016077
    40  H    0.176299  -0.001218
    41  C   -0.192600   0.073396
    42  H    0.181020  -0.003382
    43  C   -0.323027   0.029263
    44  H    0.177259  -0.001241
    45  C   -0.150246  -0.045618
    46  H    0.167909   0.000887
    47  C    0.030280  -0.036729
    48  H    0.162270   0.001609
    49  C   -0.288490   0.034674
    50  H    0.231231  -0.004363
    51  C   -0.191873   0.073349
    52  H    0.181012  -0.003378
    53  C   -0.223581  -0.033098
    54  H    0.172358   0.000999
    55  C   -0.477340  -0.031068
    56  H    0.175532   0.000990
    57  C   -0.413408   0.072699
    58  H    0.178726  -0.003695
    59  C   -0.427558   0.016016
    60  H    0.176326  -0.001216
    61  C   -0.476418  -0.031118
    62  H    0.175516   0.000991
    63  C   -0.323152   0.029252
    64  H    0.177299  -0.001239
    65  C    0.116727   0.108958
    66  H    0.196096  -0.006010
    67  C    0.030352  -0.036653
    68  H    0.162289   0.001610
 Sum of Mulliken charges =   1.00000   1.00000

 Dipole moment (field-independent basis, Debye):
    X=              0.0035    Y=              2.9039    Z=              0.0033  Tot=              2.9039
 Quadrupole moment (field-independent basis, Debye-Ang):
   XX=           -210.1512   YY=           -176.9246   ZZ=           -178.0720
   XY=              0.0100   XZ=              6.6156   YZ=             -0.0005

 Normal termination of Gaussian 16 at Sat Nov 16 10:20:52 2024.
