 Gaussian 16, Revision A.03,
 Gaussian 16:  ES64L-G16RevA.03 25-Dec-2016

 --------------------------------------------
 #p opt UM062X/6-311+G** nosymm int=superfine
 --------------------------------------------

 -------------------
 Title Card Required
 -------------------
 Symbolic Z-matrix:
 Charge =  0 Multiplicity = 1

 SCF Done:  E(UM062X) =  -381.028892087     A.U. after   14 cycles
 SCF Done:  E(UM062X) =  -381.031193055     A.U. after   12 cycles
 SCF Done:  E(UM062X) =  -381.031489615     A.U. after   12 cycles
 SCF Done:  E(UM062X) =  -381.029996434     A.U. after   14 cycles
 SCF Done:  E(UM062X) =  -381.031557773     A.U. after   14 cycles
 SCF Done:  E(UM062X) =  -381.031237248     A.U. after   14 cycles
 SCF Done:  E(UM062X) =  -381.031590459     A.U. after   12 cycles
 SCF Done:  E(UM062X) =  -381.031592261     A.U. after   10 cycles
 SCF Done:  E(UM062X) =  -381.031593178     A.U. after   11 cycles
 SCF Done:  E(UM062X) =  -381.031593259     A.U. after    8 cycles
 Optimization completed.
    -- Stationary point found.

                          Input orientation:
 ---------------------------------------------------------------------
 Center     Atomic      Atomic             Coordinates (Angstroms)
 Number     Number       Type             X           Y           Z
 ---------------------------------------------------------------------
      1          6           0       -1.255452    0.000000    0.000000
      2         15           0        1.255452    0.000000    0.000000
      3          1           0       -1.783248   -0.948426    0.008430
      4          1           0        1.175916   -1.418581    0.012950
      5          1           0       -1.778300    0.950527   -0.008481
 ---------------------------------------------------------------------

 Alpha  occ. eigenvalues --  -78.06372 -10.63212  -6.88261  -4.99806  -4.99560
 Alpha  occ. eigenvalues --   -4.99517  -0.76660  -0.66405  -0.52170  -0.39252
 Alpha  occ. eigenvalues --   -0.33945  -0.25783
 Alpha virt. eigenvalues --   -0.10704  -0.04772   0.02196   0.04342   0.04711
 Alpha virt. eigenvalues --    0.05708   0.06544   0.07169   0.10104   0.10903
 Alpha virt. eigenvalues --    0.14224   0.18649   0.20481   0.30295   0.31821

  Beta  occ. eigenvalues --  -78.06372 -10.63212  -6.88261  -4.99806  -4.99560
  Beta  occ. eigenvalues --   -4.99517  -0.76660  -0.66405  -0.52170  -0.39252
  Beta  occ. eigenvalues --   -0.33945  -0.25783
  Beta virt. eigenvalues --   -0.10704  -0.04772   0.02196   0.04342   0.04711
  Beta virt. eigenvalues --    0.05708   0.06544   0.07169   0.10104   0.10903
  Beta virt. eigenvalues --    0.14224   0.18649   0.20481   0.30295   0.31821

 Mulliken charges and spin densities:
               1          2
     1  C   -0.444953   0.000001
     2  P    0.087306  -0.000001
     3  H    0.186369  -0.000000
     4  H   -0.015714   0.000000
     5  H    0.186992  -0.000000
 Sum of Mulliken charges =  -0.00000  -0.00000

 Dipole moment (field-independent basis, Debye):
    X=             -1.0332    Y=             -0.5968    Z=              0.0054  Tot=              1.1932
 Quadrupole moment (field-independent basis, Debye-Ang):
   XX=            -17.7882   YY=            -20.3291   ZZ=            -24.6922
   XY=             -1.2249   XZ=              0.0111   YZ=             -0.0394

 Normal termination of Gaussian 16 at Mon Apr 21 19:15:18 2025.
