 Gaussian 16, Revision A.03,
 Gaussian 16:  ES64L-G16RevA.03 25-Dec-2016

 ----------------------------------------------------------------------
 #p opt UM062X/6-311+G** nosymm int=superfine SCF=(MaxCycle=200,NoVarAc
 c,noincfock) guess=read
 ----------------------------------------------------------------------

 -------------------
 Title Card Required
 -------------------
 Symbolic Z-matrix:
 Charge =  0 Multiplicity = 1

 SCF Done:  E(UM062X) =  -151.308261295     A.U. after   20 cycles
 SCF Done:  E(UM062X) =  -151.308857922     A.U. after   20 cycles
 SCF Done:  E(UM062X) =  -151.309800353     A.U. after   19 cycles
 SCF Done:  E(UM062X) =  -151.310544887     A.U. after   22 cycles
 SCF Done:  E(UM062X) =  -151.310953927     A.U. after   20 cycles
 SCF Done:  E(UM062X) =  -151.311110499     A.U. after   18 cycles
 SCF Done:  E(UM062X) =  -151.311127830     A.U. after   17 cycles
 SCF Done:  E(UM062X) =  -151.311134735     A.U. after   19 cycles
 SCF Done:  E(UM062X) =  -151.311135357     A.U. after   14 cycles
 SCF Done:  E(UM062X) =  -151.311135373     A.U. after   12 cycles
 Optimization completed.
    -- Stationary point found.

                          Input orientation:
 ---------------------------------------------------------------------
 Center     Atomic      Atomic             Coordinates (Angstroms)
 Number     Number       Type             X           Y           Z
 ---------------------------------------------------------------------
      1          8           0       -1.836938    0.000000    0.000000
      2          8           0        1.836938    0.000000    0.000000
      3          1           0       -1.640530   -0.759326   -0.577436
      4          1           0        1.640694    0.759191    0.577668
 ---------------------------------------------------------------------

 Alpha  occ. eigenvalues --  -19.72462 -19.72461  -1.13019  -1.12806  -0.56792
 Alpha  occ. eigenvalues --   -0.56669  -0.44226  -0.44071  -0.36337
 Alpha virt. eigenvalues --   -0.27073   0.05062   0.07553   0.15014   0.15104
 Alpha virt. eigenvalues --    0.17165   0.18316   0.19829   0.20326   0.20581
 Alpha virt. eigenvalues --    0.30891   0.48973   0.51382   0.99692   1.00960

  Beta  occ. eigenvalues --  -19.72462 -19.72461  -1.13019  -1.12806  -0.56792
  Beta  occ. eigenvalues --   -0.56669  -0.44226  -0.44071  -0.36337
  Beta virt. eigenvalues --   -0.27073   0.05062   0.07553   0.15014   0.15104
  Beta virt. eigenvalues --    0.17165   0.18316   0.19829   0.20326   0.20581
  Beta virt. eigenvalues --    0.30891   0.48973   0.51382   0.99692   1.00960

 Mulliken charges and spin densities:
               1          2
     1  O   -0.267688   0.000000
     2  O   -0.267700  -0.000000
     3  H    0.267695   0.000000
     4  H    0.267693  -0.000000
 Sum of Mulliken charges =  -0.00000   0.00000

 Dipole moment (field-independent basis, Debye):
    X=              0.0002    Y=             -0.0003    Z=              0.0005  Tot=              0.0006
 Quadrupole moment (field-independent basis, Debye-Ang):
   XX=            -13.4364   YY=            -10.5762   ZZ=            -11.9234
   XY=              5.0828   XZ=              3.8663   YZ=              2.4320

 Normal termination of Gaussian 16 at Tue Apr 22 00:18:39 2025.
