 Gaussian 16, Revision A.03,
 Gaussian 16:  ES64L-G16RevA.03 25-Dec-2016

 --------------------------------------------
 #p opt UM062X/6-311+G** nosymm int=superfine
 --------------------------------------------

 -------------------
 Title Card Required
 -------------------
 Symbolic Z-matrix:
 Charge =  0 Multiplicity = 1

 SCF Done:  E(UM062X) =  -80.4083345037     A.U. after   16 cycles
 SCF Done:  E(UM062X) =  -80.4117355692     A.U. after   10 cycles
 SCF Done:  E(UM062X) =  -80.4117857501     A.U. after    9 cycles
 Optimization completed.
    -- Stationary point found.

                          Input orientation:
 ---------------------------------------------------------------------
 Center     Atomic      Atomic             Coordinates (Angstroms)
 Number     Number       Type             X           Y           Z
 ---------------------------------------------------------------------
      1          5           0       -1.842066    0.000000    0.000000
      2          7           0        1.842066    0.000000    0.000000
      3          1           0       -3.075759   -0.000455    0.000000
      4          1           0        2.881844    0.000777    0.000000
 ---------------------------------------------------------------------

 Alpha  occ. eigenvalues --  -14.82452  -7.11912  -0.88912  -0.54123  -0.45430
 Alpha  occ. eigenvalues --   -0.33095  -0.27071
 Alpha virt. eigenvalues --   -0.11988  -0.03903  -0.03851   0.02621   0.03897
 Alpha virt. eigenvalues --    0.06668   0.06784   0.09607   0.14000   0.15032
 Alpha virt. eigenvalues --    0.17575   0.19796   0.25667   0.38965   0.42486

  Beta  occ. eigenvalues --  -14.82452  -7.11912  -0.88912  -0.54123  -0.45430
  Beta  occ. eigenvalues --   -0.33095  -0.27071
  Beta virt. eigenvalues --   -0.11988  -0.03903  -0.03851   0.02621   0.03897
  Beta virt. eigenvalues --    0.06668   0.06784   0.09607   0.14000   0.15032
  Beta virt. eigenvalues --    0.17575   0.19796   0.25667   0.38965   0.42486

 Mulliken charges and spin densities:
               1          2
     1  B   -0.016866  -0.000000
     2  N   -0.191243   0.000000
     3  H   -0.007901   0.000000
     4  H    0.216010  -0.000000
 Sum of Mulliken charges =  -0.00000   0.00000

 Dipole moment (field-independent basis, Debye):
    X=              0.2165    Y=              0.0005    Z=              0.0000  Tot=              0.2165
 Quadrupole moment (field-independent basis, Debye-Ang):
   XX=             -4.1935   YY=            -11.8756   ZZ=            -15.1618
   XY=              0.0021   XZ=              0.0000   YZ=             -0.0000

 Normal termination of Gaussian 16 at Mon Apr 21 18:07:55 2025.
