 Gaussian 16, Revision A.03,
 Gaussian 16:  ES64L-G16RevA.03 25-Dec-2016

 --------------------------------------------
 #p opt UM062X/6-311+G** nosymm int=superfine
 --------------------------------------------

 -------------------
 Title Card Required
 -------------------
 Symbolic Z-matrix:
 Charge = -1 Multiplicity = 2

 SCF Done:  E(UM062X) =  -52.0401161316     A.U. after   10 cycles
 SCF Done:  E(UM062X) =  -52.0401742263     A.U. after    8 cycles
 SCF Done:  E(UM062X) =  -52.0401892005     A.U. after    9 cycles
 SCF Done:  E(UM062X) =  -52.0401791593     A.U. after   10 cycles
 SCF Done:  E(UM062X) =  -52.0401634971     A.U. after   10 cycles
 SCF Done:  E(UM062X) =  -52.0401874635     A.U. after   10 cycles
 SCF Done:  E(UM062X) =  -52.0401892571     A.U. after    9 cycles
 Optimization completed.
    -- Stationary point found.

                          Input orientation:
 ---------------------------------------------------------------------
 Center     Atomic      Atomic             Coordinates (Angstroms)
 Number     Number       Type             X           Y           Z
 ---------------------------------------------------------------------
      1          5           0       -0.872274    0.000000    0.000000
      2          5           0        0.872274    0.000000    0.000000
      3          1           0       -1.529249   -1.021229    0.000010
      4          1           0        1.529249    1.021229   -0.000471
      5          1           0       -1.529249    1.021229    0.000008
      6          1           0        1.529249   -1.021229    0.000489
 ---------------------------------------------------------------------

 Alpha  occ. eigenvalues --   -6.79624  -6.79582  -0.37751  -0.30254  -0.19798
 Alpha  occ. eigenvalues --   -0.14609  -0.11347  -0.01036
 Alpha virt. eigenvalues --    0.15706   0.17026   0.19025   0.19177   0.19326
 Alpha virt. eigenvalues --    0.22301   0.22653   0.26909   0.27245   0.34389
 Alpha virt. eigenvalues --    0.36188   0.38858   0.42727   0.45093   0.52533

  Beta  occ. eigenvalues --   -6.79595  -6.79559  -0.35471  -0.29121  -0.19331
  Beta  occ. eigenvalues --   -0.14551  -0.10575
  Beta virt. eigenvalues --    0.11721   0.14918   0.15503   0.17583   0.17792
  Beta virt. eigenvalues --    0.18808   0.19041   0.23000   0.23615   0.30775
  Beta virt. eigenvalues --    0.33616   0.36167   0.38059   0.42806   0.45180

 Mulliken charges and spin densities:
               1          2
     1  B   -0.344170   0.545005
     2  B   -0.344170   0.545005
     3  H   -0.077915  -0.022502
     4  H   -0.077915  -0.022502
     5  H   -0.077915  -0.022502
     6  H   -0.077915  -0.022502
 Sum of Mulliken charges =  -1.00000   1.00000

 Dipole moment (field-independent basis, Debye):
    X=              0.0000    Y=             -0.0000    Z=             -0.0000  Tot=              0.0000
 Quadrupole moment (field-independent basis, Debye-Ang):
   XX=            -28.5977   YY=            -23.1552   ZZ=            -21.6538
   XY=             -0.0000   XZ=              0.0000   YZ=              0.0004

 Normal termination of Gaussian 16 at Mon Apr 21 17:18:32 2025.
