 Gaussian 16, Revision A.03,
 Gaussian 16:  ES64L-G16RevA.03 25-Dec-2016

 --------------------------------------------
 #p opt UM062X/6-311+G** nosymm int=superfine
 --------------------------------------------

 -------------------
 Title Card Required
 -------------------
 Symbolic Z-matrix:
 Charge =  0 Multiplicity = 1

 SCF Done:  E(UM062X) =  -95.5995348482     A.U. after   14 cycles
 SCF Done:  E(UM062X) =  -95.6158313317     A.U. after   12 cycles
 SCF Done:  E(UM062X) =  -95.6273523106     A.U. after   14 cycles
 SCF Done:  E(UM062X) =  -95.6277648139     A.U. after   12 cycles
 SCF Done:  E(UM062X) =  -95.6280201994     A.U. after   12 cycles
 SCF Done:  E(UM062X) =  -95.6280923430     A.U. after   12 cycles
 SCF Done:  E(UM062X) =  -95.6281055856     A.U. after   10 cycles
 SCF Done:  E(UM062X) =  -95.6281090594     A.U. after   11 cycles
 SCF Done:  E(UM062X) =  -95.6281107328     A.U. after    9 cycles
 SCF Done:  E(UM062X) =  -95.6281122310     A.U. after   11 cycles
 SCF Done:  E(UM062X) =  -95.6281130624     A.U. after    9 cycles
 Optimization completed.
    -- Stationary point found.

                          Input orientation:
 ---------------------------------------------------------------------
 Center     Atomic      Atomic             Coordinates (Angstroms)
 Number     Number       Type             X           Y           Z
 ---------------------------------------------------------------------
      1          6           0       -1.680542    0.000000    0.000000
      2          7           0        1.680542    0.000000    0.000000
      3          1           0        1.640941   -1.015561    0.139708
      4          1           0       -1.691965    1.080214    0.008672
      5          1           0        1.641090    0.367816    0.956875
      6          1           0       -1.691681   -0.523970   -0.944667
      7          1           0       -1.816199   -0.547749    0.921676
 ---------------------------------------------------------------------

 Alpha  occ. eigenvalues --  -14.74977 -10.61894  -0.90200  -0.80631  -0.52808
 Alpha  occ. eigenvalues --   -0.52603  -0.50668  -0.35960  -0.25909
 Alpha virt. eigenvalues --   -0.12989   0.01742   0.04716   0.05126   0.07011
 Alpha virt. eigenvalues --    0.09977   0.13162   0.15923   0.16757   0.17086
 Alpha virt. eigenvalues --    0.18809   0.20799   0.22214   0.28468   0.41184

  Beta  occ. eigenvalues --  -14.74977 -10.61894  -0.90200  -0.80631  -0.52808
  Beta  occ. eigenvalues --   -0.52603  -0.50668  -0.35960  -0.25909
  Beta virt. eigenvalues --   -0.12989   0.01742   0.04716   0.05126   0.07011
  Beta virt. eigenvalues --    0.09977   0.13162   0.15923   0.16757   0.17086
  Beta virt. eigenvalues --    0.18809   0.20799   0.22214   0.28468   0.41184

 Mulliken charges and spin densities:
               1          2
     1  C   -0.430901  -0.000001
     2  N   -0.586046   0.000001
     3  H    0.213608  -0.000000
     4  H    0.201011   0.000000
     5  H    0.213608  -0.000000
     6  H    0.201068   0.000000
     7  H    0.187651   0.000000
 Sum of Mulliken charges =  -0.00000   0.00000

 Dipole moment (field-independent basis, Debye):
    X=             -3.0901    Y=             -0.9885    Z=              1.6735  Tot=              3.6505
 Quadrupole moment (field-independent basis, Debye-Ang):
   XX=            -15.4265   YY=            -13.4132   ZZ=            -14.2143
   XY=             -1.7465   XZ=              2.9573   YZ=              0.7270

 Normal termination of Gaussian 16 at Mon Apr 21 18:11:42 2025.
