 Gaussian 16, Revision A.03,
 Gaussian 16:  ES64L-G16RevA.03 25-Dec-2016

 --------------------------------------------
 #p opt UM062X/6-311+G** nosymm int=superfine
 --------------------------------------------

 -------------------
 Title Card Required
 -------------------
 Symbolic Z-matrix:
 Charge =  0 Multiplicity = 1

 SCF Done:  E(UM062X) =  -115.649027371     A.U. after   10 cycles
 SCF Done:  E(UM062X) =  -115.655652663     A.U. after   10 cycles
 SCF Done:  E(UM062X) =  -115.656091120     A.U. after   10 cycles
 SCF Done:  E(UM062X) =  -115.656092680     A.U. after    8 cycles
 SCF Done:  E(UM062X) =  -115.656092842     A.U. after    7 cycles
 Optimization completed.
    -- Stationary point found.

                          Input orientation:
 ---------------------------------------------------------------------
 Center     Atomic      Atomic             Coordinates (Angstroms)
 Number     Number       Type             X           Y           Z
 ---------------------------------------------------------------------
      1          6           0       -0.907203    0.000000    0.000000
      2          8           0        0.907203    0.000000    0.000000
      3          1           0        1.082989   -0.946591    0.000406
      4          1           0       -1.184982   -0.507450    0.916000
      5          1           0       -1.100700    1.064130   -0.000690
      6          1           0       -1.185008   -0.508633   -0.915337
 ---------------------------------------------------------------------

 Alpha  occ. eigenvalues --  -19.61832 -10.60954  -1.06792  -0.79538  -0.53481
 Alpha  occ. eigenvalues --   -0.51554  -0.47778  -0.40274  -0.35852
 Alpha virt. eigenvalues --    0.00412   0.01265   0.05035   0.05397   0.09797
 Alpha virt. eigenvalues --    0.15530   0.17698   0.17942   0.20414   0.23101
 Alpha virt. eigenvalues --    0.23637   0.24156   0.32917   0.41793   0.43252

  Beta  occ. eigenvalues --  -19.61832 -10.60954  -1.06792  -0.79538  -0.53481
  Beta  occ. eigenvalues --   -0.51554  -0.47778  -0.40274  -0.35852
  Beta virt. eigenvalues --    0.00412   0.01265   0.05035   0.05397   0.09797
  Beta virt. eigenvalues --    0.15530   0.17698   0.17942   0.20414   0.23101
  Beta virt. eigenvalues --    0.23637   0.24156   0.32917   0.41793   0.43252

 Mulliken charges and spin densities:
               1          2
     1  C   -0.302795   0.000000
     2  O   -0.467541   0.000000
     3  H    0.239481  -0.000000
     4  H    0.171452   0.000000
     5  H    0.187959   0.000000
     6  H    0.171443  -0.000000
 Sum of Mulliken charges =  -0.00000   0.00000

 Dipole moment (field-independent basis, Debye):
    X=             -2.4421    Y=             -1.5356    Z=              0.0007  Tot=              2.8848
 Quadrupole moment (field-independent basis, Debye-Ang):
   XX=            -13.4910   YY=            -11.4860   ZZ=            -13.8163
   XY=             -2.1041   XZ=              0.0009   YZ=             -0.0010

 Normal termination of Gaussian 16 at Mon Apr 21 18:38:23 2025.
