 Gaussian 16, Revision A.03,
 Gaussian 16:  ES64L-G16RevA.03 25-Dec-2016

 --------------------------------------------
 #p opt UM062X/6-311+G** nosymm int=superfine
 --------------------------------------------

 -------------------
 Title Card Required
 -------------------
 Symbolic Z-matrix:
 Charge =  0 Multiplicity = 1

 SCF Done:  E(UM062X) =  -797.422778453     A.U. after   13 cycles
 SCF Done:  E(UM062X) =  -797.423490847     A.U. after   12 cycles
 SCF Done:  E(UM062X) =  -797.424531751     A.U. after   15 cycles
 SCF Done:  E(UM062X) =  -797.424549722     A.U. after   12 cycles
 SCF Done:  E(UM062X) =  -797.424557037     A.U. after   12 cycles
 SCF Done:  E(UM062X) =  -797.424558822     A.U. after   13 cycles
 SCF Done:  E(UM062X) =  -797.424559118     A.U. after   11 cycles
 SCF Done:  E(UM062X) =  -797.424559161     A.U. after   13 cycles
 Optimization completed.
    -- Stationary point found.

                          Input orientation:
 ---------------------------------------------------------------------
 Center     Atomic      Atomic             Coordinates (Angstroms)
 Number     Number       Type             X           Y           Z
 ---------------------------------------------------------------------
      1         16           0       -1.793191    0.000000    0.000000
      2         16           0        1.793191    0.000000    0.000000
      3          1           0       -1.694445   -1.328482   -0.195033
      4          1           0        1.694370    0.226971    1.323334
 ---------------------------------------------------------------------

 Alpha  occ. eigenvalues --  -89.94759 -89.94759  -8.30940  -8.30939  -6.23097
 Alpha  occ. eigenvalues --   -6.23097  -6.22831  -6.22831  -6.22268  -6.22268
 Alpha  occ. eigenvalues --   -0.81819  -0.80890  -0.47386  -0.47332  -0.33553
 Alpha  occ. eigenvalues --   -0.33243  -0.32832
 Alpha virt. eigenvalues --   -0.19826   0.01953   0.03094   0.04509   0.04963
 Alpha virt. eigenvalues --    0.06417   0.07048   0.07317   0.07461   0.10318
 Alpha virt. eigenvalues --    0.13076   0.30537   0.31192   0.33676   0.33923

  Beta  occ. eigenvalues --  -89.94759 -89.94759  -8.30940  -8.30939  -6.23097
  Beta  occ. eigenvalues --   -6.23097  -6.22831  -6.22831  -6.22268  -6.22268
  Beta  occ. eigenvalues --   -0.81819  -0.80890  -0.47386  -0.47332  -0.33553
  Beta  occ. eigenvalues --   -0.33243  -0.32832
  Beta virt. eigenvalues --   -0.19826   0.01953   0.03094   0.04509   0.04963
  Beta virt. eigenvalues --    0.06417   0.07048   0.07317   0.07461   0.10318
  Beta virt. eigenvalues --    0.13076   0.30537   0.31192   0.33676   0.33923

 Mulliken charges and spin densities:
               1          2
     1  S   -0.085952  -0.000000
     2  S   -0.085960   0.000000
     3  H    0.085960   0.000000
     4  H    0.085952  -0.000000
 Sum of Mulliken charges =   0.00000  -0.00000

 Dipole moment (field-independent basis, Debye):
    X=             -0.0002    Y=             -0.9024    Z=              0.9244  Tot=              1.2918
 Quadrupole moment (field-independent basis, Debye-Ang):
   XX=            -25.0904   YY=            -28.0380   ZZ=            -28.0990
   XY=              2.3580   XZ=              2.3019   YZ=              1.2635

 Normal termination of Gaussian 16 at Mon Apr 21 21:39:31 2025.
