 Gaussian 16, Revision A.03,
 Gaussian 16:  ES64L-G16RevA.03 25-Dec-2016

 ---------------------------------------
 #p UM062X/6-311+G** force int=superfine
 ---------------------------------------

 -------------------
 Title Card Required
 -------------------
 Symbolic Z-matrix:
 Charge =  0 Multiplicity = 1

                         Standard orientation:
 ---------------------------------------------------------------------
 Center     Atomic      Atomic             Coordinates (Angstroms)
 Number     Number       Type             X           Y           Z
 ---------------------------------------------------------------------
      1          6           0        0.534510    0.000017   -0.000002
      2          6           0       -0.534511   -0.000017   -0.000001
      3          1           0       -1.045754   -0.985174   -0.003451
      4          1           0        1.045772   -0.495598    0.851432
      5          1           0       -1.045774    0.495603   -0.851428
      6          1           0       -1.045762    0.489612    0.854892
      7          1           0        1.045754    0.985174    0.003459
      8          1           0        1.045765   -0.489614   -0.854890
 ---------------------------------------------------------------------

 SCF Done:  E(UM062X) =  -79.5435216072     A.U. after    9 cycles

 The electronic state is 1-A.
 Alpha  occ. eigenvalues --  -10.49908 -10.49170  -0.96980  -0.67317  -0.56378
 Alpha  occ. eigenvalues --   -0.56377  -0.52986  -0.33693  -0.33691
 Alpha virt. eigenvalues --    0.01992   0.04158   0.04455   0.04455   0.08584
 Alpha virt. eigenvalues --    0.09015   0.09015   0.14276   0.18106   0.18107
 Alpha virt. eigenvalues --    0.20337   0.20339   0.23920   0.27737   0.40206

  Beta  occ. eigenvalues --  -10.49908 -10.49170  -0.96980  -0.67317  -0.56378
  Beta  occ. eigenvalues --   -0.56377  -0.52986  -0.33693  -0.33691
  Beta virt. eigenvalues --    0.01992   0.04158   0.04455   0.04455   0.08584
  Beta virt. eigenvalues --    0.09015   0.09015   0.14276   0.18106   0.18107
  Beta virt. eigenvalues --    0.20337   0.20339   0.23920   0.27737   0.40206

 Mulliken charges and spin densities:
               1          2
     1  C   -0.416570   0.000000
     2  C   -0.416570  -0.000000
     3  H    0.138860   0.000000
     4  H    0.138855  -0.000000
     5  H    0.138855   0.000000
     6  H    0.138855   0.000000
     7  H    0.138860  -0.000000
     8  H    0.138855  -0.000000
 Sum of Mulliken charges =  -0.00000   0.00000

 Dipole moment (field-independent basis, Debye):
    X=              0.0000    Y=              0.0000    Z=              0.0000  Tot=              0.0000
 Quadrupole moment (field-independent basis, Debye-Ang):
   XX=            -15.6724   YY=            -14.9421   ZZ=            -14.9426
   XY=              0.0000   XZ=              0.0000   YZ=              0.0000

 Normal termination of Gaussian 16 at Tue Nov 19 12:36:32 2024.
