 Gaussian 16, Revision A.03,
 Gaussian 16:  ES64L-G16RevA.03 25-Dec-2016

 --------------------------------------------
 #p opt UM062X/6-311+G** nosymm int=superfine
 --------------------------------------------

 -------------------
 Title Card Required
 -------------------
 Symbolic Z-matrix:
 Charge =  0 Multiplicity = 1

 SCF Done:  E(UM062X) =  -114.100771808     A.U. after   15 cycles
 SCF Done:  E(UM062X) =  -114.102142871     A.U. after   10 cycles
 SCF Done:  E(UM062X) =  -114.102550707     A.U. after    9 cycles
 SCF Done:  E(UM062X) =  -114.102556590     A.U. after    8 cycles
 Optimization completed.
    -- Stationary point found.

                          Input orientation:
 ---------------------------------------------------------------------
 Center     Atomic      Atomic             Coordinates (Angstroms)
 Number     Number       Type             X           Y           Z
 ---------------------------------------------------------------------
      1          6           0       -1.498311    0.000000    0.000000
      2          8           0        1.498311    0.000000    0.000000
      3          1           0       -2.152946   -0.885924   -0.000010
      4          1           0       -2.152950    0.885921   -0.000010
 ---------------------------------------------------------------------

 Alpha  occ. eigenvalues --  -19.70877 -10.65617  -1.00999  -0.79120  -0.52138
 Alpha  occ. eigenvalues --   -0.39814  -0.39804  -0.34633
 Alpha virt. eigenvalues --   -0.14355  -0.11334   0.01146   0.05568   0.07379
 Alpha virt. eigenvalues --    0.07881   0.15533   0.17096   0.18301   0.21196
 Alpha virt. eigenvalues --    0.23869   0.28781   0.42511   0.45330   0.56059

  Beta  occ. eigenvalues --  -19.70877 -10.65617  -1.00999  -0.79120  -0.52138
  Beta  occ. eigenvalues --   -0.39814  -0.39804  -0.34633
  Beta virt. eigenvalues --   -0.14355  -0.11334   0.01146   0.05568   0.07379
  Beta virt. eigenvalues --    0.07881   0.15533   0.17096   0.18301   0.21196
  Beta virt. eigenvalues --    0.23869   0.28781   0.42511   0.45330   0.56059

 Mulliken charges and spin densities:
               1          2
     1  C   -0.234055   0.000000
     2  O   -0.090518  -0.000000
     3  H    0.162287  -0.000000
     4  H    0.162287  -0.000000
 Sum of Mulliken charges =  -0.00000  -0.00000

 Dipole moment (field-independent basis, Debye):
    X=             -3.8208    Y=             -0.0000    Z=             -0.0000  Tot=              3.8208
 Quadrupole moment (field-independent basis, Debye-Ang):
   XX=             -6.5100   YY=            -12.8475   ZZ=            -12.5072
   XY=              0.0000   XZ=              0.0000   YZ=             -0.0000

 Normal termination of Gaussian 16 at Mon Apr 21 18:50:42 2025.
