 Gaussian 16, Revision A.03,
 Gaussian 16:  ES64L-G16RevA.03 25-Dec-2016

 --------------------------------------------
 #p opt UM062X/6-311+G** nosymm int=superfine
 --------------------------------------------

 -------------------
 Title Card Required
 -------------------
 Symbolic Z-matrix:
 Charge =  0 Multiplicity = 1

 SCF Done:  E(UM062X) =  -438.537832797     A.U. after   12 cycles
 SCF Done:  E(UM062X) =  -438.549574248     A.U. after   11 cycles
 SCF Done:  E(UM062X) =  -438.553663370     A.U. after   11 cycles
 SCF Done:  E(UM062X) =  -438.553697497     A.U. after    9 cycles
 SCF Done:  E(UM062X) =  -438.553711946     A.U. after    9 cycles
 SCF Done:  E(UM062X) =  -438.553718271     A.U. after    9 cycles
 SCF Done:  E(UM062X) =  -438.553718745     A.U. after    7 cycles
 SCF Done:  E(UM062X) =  -438.553718984     A.U. after    7 cycles
 Optimization completed.
    -- Stationary point found.

                          Input orientation:
 ---------------------------------------------------------------------
 Center     Atomic      Atomic             Coordinates (Angstroms)
 Number     Number       Type             X           Y           Z
 ---------------------------------------------------------------------
      1          6           0       -1.535220    0.000000    0.000000
      2         16           0        1.535220    0.000000    0.000000
      3          1           0        1.499597   -1.343848   -0.001019
      4          1           0       -1.603364    1.078672    0.002657
      5          1           0       -1.632062   -0.532186   -0.935832
      6          1           0       -1.632156   -0.536778    0.933197
 ---------------------------------------------------------------------

 Alpha  occ. eigenvalues --  -89.88692 -10.63505  -8.24930  -6.16990  -6.16901
 Alpha  occ. eigenvalues --   -6.16364  -0.81947  -0.76246  -0.53725  -0.53626
 Alpha  occ. eigenvalues --   -0.42833  -0.29944  -0.28755
 Alpha virt. eigenvalues --   -0.12152   0.01599   0.04137   0.04843   0.05568
 Alpha virt. eigenvalues --    0.07582   0.08052   0.08496   0.11084   0.13555
 Alpha virt. eigenvalues --    0.16623   0.17216   0.22362   0.33153   0.36362

  Beta  occ. eigenvalues --  -89.88692 -10.63505  -8.24930  -6.16990  -6.16901
  Beta  occ. eigenvalues --   -6.16364  -0.81947  -0.76246  -0.53725  -0.53626
  Beta  occ. eigenvalues --   -0.42833  -0.29944  -0.28755
  Beta virt. eigenvalues --   -0.12152   0.01599   0.04137   0.04843   0.05568
  Beta virt. eigenvalues --    0.07582   0.08052   0.08496   0.11084   0.13555
  Beta virt. eigenvalues --    0.16623   0.17216   0.22362   0.33153   0.36362

 Mulliken charges and spin densities:
               1          2
     1  C   -0.439565  -0.000001
     2  S   -0.240999   0.000001
     3  H    0.056104  -0.000000
     4  H    0.209260   0.000000
     5  H    0.207618   0.000000
     6  H    0.207582   0.000000
 Sum of Mulliken charges =  -0.00000  -0.00000

 Dipole moment (field-independent basis, Debye):
    X=             -3.6173    Y=             -0.9430    Z=             -0.0007  Tot=              3.7382
 Quadrupole moment (field-independent basis, Debye-Ang):
   XX=            -20.7275   YY=            -19.4719   ZZ=            -23.5128
   XY=             -1.6241   XZ=             -0.0013   YZ=              0.0031

 Normal termination of Gaussian 16 at Mon Apr 21 19:31:56 2025.
