 Gaussian 16, Revision A.03,
 Gaussian 16:  ES64L-G16RevA.03 25-Dec-2016

 --------------------------------------------
 #p opt UM062X/6-311+G** nosymm int=superfine
 --------------------------------------------

 -------------------
 Title Card Required
 -------------------
 Symbolic Z-matrix:
 Charge =  0 Multiplicity = 1

 SCF Done:  E(UM062X) =  -579.936397206     A.U. after    9 cycles
 SCF Done:  E(UM062X) =  -579.936407790     A.U. after    8 cycles
 Optimization completed.
    -- Stationary point found.

                          Input orientation:
 ---------------------------------------------------------------------
 Center     Atomic      Atomic             Coordinates (Angstroms)
 Number     Number       Type             X           Y           Z
 ---------------------------------------------------------------------
      1         14           0       -1.178705    0.000000    0.000000
      2         14           0        1.178705    0.000000    0.000000
      3          1           0       -2.641263   -0.000052   -0.000000
      4          1           0        2.641263    0.000013   -0.000000
 ---------------------------------------------------------------------

 Alpha  occ. eigenvalues --  -67.05331 -67.05331  -5.59666  -5.59660  -3.90862
 Alpha  occ. eigenvalues --   -3.90862  -3.90854  -3.90854  -3.90662  -3.90614
 Alpha  occ. eigenvalues --   -0.61087  -0.56141  -0.42630  -0.23967  -0.23967
 Alpha virt. eigenvalues --   -0.10109  -0.06104  -0.06104   0.01567   0.02176
 Alpha virt. eigenvalues --    0.03643   0.05172   0.05172   0.06985   0.06985
 Alpha virt. eigenvalues --    0.12108   0.13699   0.24881   0.28560   0.29798

  Beta  occ. eigenvalues --  -67.05331 -67.05331  -5.59666  -5.59660  -3.90862
  Beta  occ. eigenvalues --   -3.90862  -3.90854  -3.90854  -3.90662  -3.90614
  Beta  occ. eigenvalues --   -0.61087  -0.56141  -0.42630  -0.23967  -0.23967
  Beta virt. eigenvalues --   -0.10109  -0.06104  -0.06104   0.01567   0.02176
  Beta virt. eigenvalues --    0.03643   0.05172   0.05172   0.06985   0.06985
  Beta virt. eigenvalues --    0.12108   0.13699   0.24881   0.28560   0.29798

 Mulliken charges and spin densities:
               1          2
     1  Si  -0.050828  -0.000000
     2  Si  -0.050828   0.000000
     3  H    0.050828   0.000000
     4  H    0.050828   0.000000
 Sum of Mulliken charges =  -0.00000  -0.00000

 Dipole moment (field-independent basis, Debye):
    X=             -0.0000    Y=             -0.0000    Z=             -0.0000  Tot=              0.0000
 Quadrupole moment (field-independent basis, Debye-Ang):
   XX=            -19.1662   YY=            -32.1861   ZZ=            -32.1861
   XY=              0.0003   XZ=             -0.0000   YZ=             -0.0000

 Normal termination of Gaussian 16 at Mon Apr 21 21:22:45 2025.
