 Gaussian 16, Revision A.03,
 Gaussian 16:  ES64L-G16RevA.03 25-Dec-2016

 ---------------------------------------------------
 #p UM062X/6-311+G** force int=superfine pop=saveNBO
 ---------------------------------------------------

 -------------------
 Title Card Required
 -------------------
 Symbolic Z-matrix:
 Charge =  0 Multiplicity = 1

                         Standard orientation:
 ---------------------------------------------------------------------
 Center     Atomic      Atomic             Coordinates (Angstroms)
 Number     Number       Type             X           Y           Z
 ---------------------------------------------------------------------
      1          8           0        0.000000    0.000000    0.968562
      2          8           0        0.000000    0.000000   -0.968562
 ---------------------------------------------------------------------

 SCF Done:  E(UM062X) =  -150.003048562     A.U. after    9 cycles

 Unable to determine electronic state:  partially filled degenerate orbitals.
 Alpha  occ. eigenvalues --  -19.83987 -19.83976  -1.15504  -1.06810  -0.51299
 Alpha  occ. eigenvalues --   -0.50883  -0.46614  -0.45286
 Alpha virt. eigenvalues --   -0.26458  -0.18335   0.10374   0.13029   0.15242
 Alpha virt. eigenvalues --    0.15464   0.20659   0.21000   0.21423   0.32761
 Alpha virt. eigenvalues --    0.95376   0.96267   1.02338   1.06625   1.07293

  Beta  occ. eigenvalues --  -19.83987 -19.83976  -1.15504  -1.06810  -0.51299
  Beta  occ. eigenvalues --   -0.50883  -0.46614  -0.45286
  Beta virt. eigenvalues --   -0.26458  -0.18335   0.10374   0.13029   0.15242
  Beta virt. eigenvalues --    0.15464   0.20659   0.21000   0.21423   0.32761
  Beta virt. eigenvalues --    0.95376   0.96267   1.02338   1.06625   1.07293

 Mulliken charges and spin densities:
               1          2
     1  O   -0.000000   0.000000
     2  O    0.000000   0.000000
 Sum of Mulliken charges =  -0.00000   0.00000

 Dipole moment (field-independent basis, Debye):
    X=              0.0000    Y=              0.0000    Z=              0.0000  Tot=              0.0000
 Quadrupole moment (field-independent basis, Debye-Ang):
   XX=            -10.0899   YY=            -11.8180   ZZ=             -9.5586
   XY=              0.0000   XZ=             -0.0000   YZ=              0.0000

 Summary of Natural Population Analysis:

                                       Natural Population
                Natural  -----------------------------------------------
    Atom  No    Charge         Core      Valence    Rydberg      Total
 -----------------------------------------------------------------------
      O    1    0.00000      1.00000     2.99883    0.00117     4.00000
      O    2    0.00000      1.00000     2.99883    0.00117     4.00000
 =======================================================================
   * Total *    0.00000      2.00000     5.99766    0.00234     8.00000

 Normal termination of Gaussian 16 at Mon Apr 21 19:53:51 2025.
