 Gaussian 16, Revision A.03,
 Gaussian 16:  ES64L-G16RevA.03 25-Dec-2016

 --------------------------------------------
 #p opt UM062X/6-311+G** nosymm int=superfine
 --------------------------------------------

 -------------------
 Title Card Required
 -------------------
 Symbolic Z-matrix:
 Charge =  0 Multiplicity = 1

 SCF Done:  E(UM062X) =  -474.380180737     A.U. after   21 cycles
 SCF Done:  E(UM062X) =  -474.381259750     A.U. after   18 cycles
 SCF Done:  E(UM062X) =  -474.382823042     A.U. after   21 cycles
 SCF Done:  E(UM062X) =  -474.383456485     A.U. after   22 cycles
 SCF Done:  E(UM062X) =  -474.383636318     A.U. after   24 cycles
 SCF Done:  E(UM062X) =  -474.383676835     A.U. after   18 cycles
 SCF Done:  E(UM062X) =  -474.383685087     A.U. after   20 cycles
 SCF Done:  E(UM062X) =  -474.383685715     A.U. after   22 cycles
 SCF Done:  E(UM062X) =  -474.383686882     A.U. after   17 cycles
 SCF Done:  E(UM062X) =  -474.383687152     A.U. after   14 cycles
 SCF Done:  E(UM062X) =  -474.383687199     A.U. after   18 cycles
 SCF Done:  E(UM062X) =  -474.383687189     A.U. after   20 cycles
 SCF Done:  E(UM062X) =  -474.383687162     A.U. after   15 cycles
 Optimization completed on the basis of negligible forces.
    -- Stationary point found.

                          Input orientation:
 ---------------------------------------------------------------------
 Center     Atomic      Atomic             Coordinates (Angstroms)
 Number     Number       Type             X           Y           Z
 ---------------------------------------------------------------------
      1          8           0       -1.664392    0.000000    0.000000
      2         16           0        1.664392    0.000000    0.000000
      3          1           0       -1.636790   -0.860492   -0.447378
      4          1           0        1.445023    0.581723    1.194869
 ---------------------------------------------------------------------

 Alpha  occ. eigenvalues --  -89.97865 -19.67328  -8.34006  -6.26219  -6.25850
 Alpha  occ. eigenvalues --   -6.25284  -1.08482  -0.83802  -0.52557  -0.49658
 Alpha  occ. eigenvalues --   -0.39791  -0.35708  -0.34574
 Alpha virt. eigenvalues --   -0.21943   0.01599   0.03934   0.04654   0.05462
 Alpha virt. eigenvalues --    0.06935   0.13671   0.19308   0.19869   0.21236
 Alpha virt. eigenvalues --    0.25394   0.30867   0.33935   0.34525   0.39259

  Beta  occ. eigenvalues --  -89.97865 -19.67328  -8.34006  -6.26219  -6.25850
  Beta  occ. eigenvalues --   -6.25284  -1.08482  -0.83802  -0.52557  -0.49658
  Beta  occ. eigenvalues --   -0.39791  -0.35708  -0.34574
  Beta virt. eigenvalues --   -0.21943   0.01599   0.03934   0.04654   0.05462
  Beta virt. eigenvalues --    0.06935   0.13671   0.19308   0.19869   0.21236
  Beta virt. eigenvalues --    0.25394   0.30867   0.33935   0.34525   0.39259

 Mulliken charges and spin densities:
               1          2
     1  O   -0.399583   0.000000
     2  S    0.042416  -0.000000
     3  H    0.246840  -0.000000
     4  H    0.110328  -0.000000
 Sum of Mulliken charges =  -0.00000   0.00000

 Dipole moment (field-independent basis, Debye):
    X=              2.2511    Y=             -1.0308    Z=              0.2670  Tot=              2.4902
 Quadrupole moment (field-independent basis, Debye-Ang):
   XX=            -18.3609   YY=            -19.9610   ZZ=            -18.8545
   XY=              3.5339   XZ=              3.1305   YZ=              2.6438

 Normal termination of Gaussian 16 at Thu May 15 13:14:48 2025.
