 Gaussian 16, Revision A.03,
 Gaussian 16:  ES64L-G16RevA.03 25-Dec-2016

 --------------------------------------------
 #p opt UM062X/6-311+G** nosymm int=superfine
 --------------------------------------------

 -------------------
 Title Card Required
 -------------------
 Symbolic Z-matrix:
 Charge = -1 Multiplicity = 2

 SCF Done:  E(UM062X) =  -50.7653531565     A.U. after   11 cycles
 SCF Done:  E(UM062X) =  -50.7653553126     A.U. after    7 cycles
 Optimization completed.
    -- Stationary point found.

                          Input orientation:
 ---------------------------------------------------------------------
 Center     Atomic      Atomic             Coordinates (Angstroms)
 Number     Number       Type             X           Y           Z
 ---------------------------------------------------------------------
      1          5           0       -0.841404    0.000000    0.000000
      2          5           0        0.841404    0.000000    0.000000
      3          1           0       -2.023651   -0.000903   -0.000000
      4          1           0        2.023651    0.000903    0.000000
 ---------------------------------------------------------------------

 Alpha  occ. eigenvalues --   -6.84107  -6.84056  -0.36162  -0.30642  -0.19785
 Alpha  occ. eigenvalues --   -0.02697  -0.01160
 Alpha virt. eigenvalues --    0.14205   0.15533   0.17961   0.18446   0.20202
 Alpha virt. eigenvalues --    0.21408   0.21651   0.25958   0.26558   0.27341
 Alpha virt. eigenvalues --    0.31853   0.39348   0.49019   0.55857   0.59424

  Beta  occ. eigenvalues --   -6.84065  -6.84021  -0.33682  -0.29742  -0.19162
  Beta  occ. eigenvalues --    0.00858
  Beta virt. eigenvalues --    0.11340   0.14419   0.14904   0.17013   0.18719
  Beta virt. eigenvalues --    0.19324   0.21001   0.21546   0.23690   0.29190
  Beta virt. eigenvalues --    0.30163   0.33226   0.39731   0.49896   0.56382

 Mulliken charges and spin densities:
               1          2
     1  B   -0.468544   0.525247
     2  B   -0.468544   0.525247
     3  H   -0.031456  -0.025247
     4  H   -0.031456  -0.025247
 Sum of Mulliken charges =  -1.00000   1.00000

 Dipole moment (field-independent basis, Debye):
    X=             -0.0000    Y=             -0.0000    Z=             -0.0000  Tot=              0.0000
 Quadrupole moment (field-independent basis, Debye-Ang):
   XX=            -22.5190   YY=            -27.6927   ZZ=            -21.2164
   XY=              0.0045   XZ=              0.0000   YZ=             -0.0000

 Normal termination of Gaussian 16 at Mon Apr 21 17:30:20 2025.
