 Gaussian 16, Revision A.03,
 Gaussian 16:  ES64L-G16RevA.03 25-Dec-2016

 --------------------------------------------
 #p opt UM062X/6-311+G** nosymm int=superfine
 --------------------------------------------

 -------------------
 Title Card Required
 -------------------
 Symbolic Z-matrix:
 Charge =  0 Multiplicity = 1

 SCF Done:  E(UM062X) =  -79.6641834935     A.U. after    8 cycles
 SCF Done:  E(UM062X) =  -79.6944336772     A.U. after    8 cycles
 SCF Done:  E(UM062X) =  -79.7157974474     A.U. after    9 cycles
 SCF Done:  E(UM062X) =  -79.7214217609     A.U. after    8 cycles
 SCF Done:  E(UM062X) =  -79.7214343462     A.U. after    7 cycles
 Optimization completed.
    -- Stationary point found.

                          Input orientation:
 ---------------------------------------------------------------------
 Center     Atomic      Atomic             Coordinates (Angstroms)
 Number     Number       Type             X           Y           Z
 ---------------------------------------------------------------------
      1          6           0       -1.076601    0.000000    0.000000
      2          6           0        1.076711    0.000000    0.000000
      3          1           0        1.339337   -0.909905    0.526520
      4          1           0       -1.339218   -0.910932   -0.524741
      5          1           0        1.339332    0.910933    0.524739
      6          1           0        1.339351   -0.001023   -1.051252
      7          1           0       -1.339226    0.909905   -0.526521
      8          1           0       -1.339246    0.001021    1.051252
 ---------------------------------------------------------------------

 Alpha  occ. eigenvalues --  -10.54979 -10.54971  -0.78373  -0.73129  -0.48305
 Alpha  occ. eigenvalues --   -0.48305  -0.45070  -0.45070  -0.31436
 Alpha virt. eigenvalues --    0.01544   0.02393   0.05609   0.05609   0.08412
 Alpha virt. eigenvalues --    0.08412   0.09156   0.09689   0.13400   0.18175
 Alpha virt. eigenvalues --    0.18175   0.22106   0.22106   0.24342   0.26728

  Beta  occ. eigenvalues --  -10.54979 -10.54971  -0.78373  -0.73129  -0.48305
  Beta  occ. eigenvalues --   -0.48305  -0.45070  -0.45070  -0.31436
  Beta virt. eigenvalues --    0.01544   0.02393   0.05609   0.05609   0.08412
  Beta virt. eigenvalues --    0.08412   0.09156   0.09689   0.13400   0.18175
  Beta virt. eigenvalues --    0.18175   0.22106   0.22106   0.24342   0.26728

 Mulliken charges and spin densities:
               1          2
     1  C   -0.502281  -0.000000
     2  C   -0.502281   0.000000
     3  H    0.167427  -0.000000
     4  H    0.167427   0.000000
     5  H    0.167427  -0.000000
     6  H    0.167427  -0.000000
     7  H    0.167427   0.000000
     8  H    0.167427   0.000000
 Sum of Mulliken charges =  -0.00000   0.00000

 Dipole moment (field-independent basis, Debye):
    X=             -0.0000    Y=             -0.0000    Z=             -0.0000  Tot=              0.0000
 Quadrupole moment (field-independent basis, Debye-Ang):
   XX=            -15.5709   YY=            -14.8484   ZZ=            -14.8484
   XY=             -0.0000   XZ=             -0.0001   YZ=             -0.0000

 Normal termination of Gaussian 16 at Tue Nov 19 12:10:55 2024.
