 Gaussian 16, Revision A.03,
 Gaussian 16:  ES64L-G16RevA.03 25-Dec-2016

 --------------------------------------------
 #p opt UM062X/6-311+G** nosymm int=superfine
 --------------------------------------------

 -------------------
 Title Card Required
 -------------------
 Symbolic Z-matrix:
 Charge =  0 Multiplicity = 1

 SCF Done:  E(UM062X) =  -110.152548004     A.U. after   12 cycles
 SCF Done:  E(UM062X) =  -110.153292783     A.U. after   15 cycles
 SCF Done:  E(UM062X) =  -110.155278863     A.U. after   18 cycles
 SCF Done:  E(UM062X) =  -110.156686553     A.U. after   29 cycles
 SCF Done:  E(UM062X) =  -110.156845421     A.U. after   19 cycles
 SCF Done:  E(UM062X) =  -110.156898713     A.U. after   15 cycles
 SCF Done:  E(UM062X) =  -110.156898755     A.U. after   12 cycles
 Optimization completed.
    -- Stationary point found.

                          Input orientation:
 ---------------------------------------------------------------------
 Center     Atomic      Atomic             Coordinates (Angstroms)
 Number     Number       Type             X           Y           Z
 ---------------------------------------------------------------------
      1          7           0       -1.965428    0.000000    0.000000
      2          7           0        1.965428    0.000000    0.000000
      3          1           0       -1.726709   -1.011618   -0.000000
      4          1           0        1.726709    1.011618   -0.000000
 ---------------------------------------------------------------------

 Alpha  occ. eigenvalues --  -14.88226 -14.88225  -0.92678  -0.92369  -0.48962
 Alpha  occ. eigenvalues --   -0.48834  -0.30171  -0.29475
 Alpha virt. eigenvalues --   -0.22097  -0.21270   0.04714   0.06801   0.10860
 Alpha virt. eigenvalues --    0.11333   0.12837   0.14179   0.15033   0.17127
 Alpha virt. eigenvalues --    0.18354   0.22771   0.53738   0.54263   0.74579

  Beta  occ. eigenvalues --  -14.88226 -14.88225  -0.92678  -0.92369  -0.48962
  Beta  occ. eigenvalues --   -0.48834  -0.30171  -0.29475
  Beta virt. eigenvalues --   -0.22097  -0.21270   0.04714   0.06801   0.10860
  Beta virt. eigenvalues --    0.11333   0.12837   0.14179   0.15033   0.17127
  Beta virt. eigenvalues --    0.18354   0.22771   0.53738   0.54263   0.74579

 Mulliken charges and spin densities:
               1          2
     1  N   -0.232711   0.000000
     2  N   -0.232711  -0.000000
     3  H    0.232711   0.000000
     4  H    0.232711  -0.000000
 Sum of Mulliken charges =   0.00000   0.00000

 Dipole moment (field-independent basis, Debye):
    X=              0.0000    Y=              0.0000    Z=             -0.0000  Tot=              0.0000
 Quadrupole moment (field-independent basis, Debye-Ang):
   XX=            -15.5479   YY=            -11.3348   ZZ=            -14.1693
   XY=              6.4684   XZ=             -0.0000   YZ=             -0.0000

 Normal termination of Gaussian 16 at Thu May 15 15:46:41 2025.
