 Gaussian 16, Revision A.03,
 Gaussian 16:  ES64L-G16RevA.03 25-Dec-2016

 --------------------------------------------
 #p opt UM062X/6-311+G** nosymm int=superfine
 --------------------------------------------

 -------------------
 Title Card Required
 -------------------
 Symbolic Z-matrix:
 Charge =  0 Multiplicity = 1

 SCF Done:  E(UM062X) =  -79.7759886303     A.U. after    8 cycles
 SCF Done:  E(UM062X) =  -79.7825375340     A.U. after    8 cycles
 SCF Done:  E(UM062X) =  -79.7831471019     A.U. after    7 cycles
 Optimization completed.
    -- Stationary point found.

                          Input orientation:
 ---------------------------------------------------------------------
 Center     Atomic      Atomic             Coordinates (Angstroms)
 Number     Number       Type             X           Y           Z
 ---------------------------------------------------------------------
      1          6           0       -0.862808    0.000000    0.000000
      2          6           0        0.862896    0.000000    0.000000
      3          1           0        1.214298   -0.891470    0.515835
      4          1           0       -1.214218   -0.892470   -0.514093
      5          1           0        1.214308    0.892470    0.514091
      6          1           0        1.214248   -0.001006   -1.029966
      7          1           0       -1.214210    0.891470   -0.515835
      8          1           0       -1.214162    0.001005    1.029966
 ---------------------------------------------------------------------

 Alpha  occ. eigenvalues --  -10.53285 -10.53266  -0.81771  -0.71119  -0.49161
 Alpha  occ. eigenvalues --   -0.49161  -0.42197  -0.42197  -0.38489
 Alpha virt. eigenvalues --    0.02231   0.03817   0.05605   0.05605   0.08662
 Alpha virt. eigenvalues --    0.08662   0.09131   0.13618   0.18442   0.18442
 Alpha virt. eigenvalues --    0.20688   0.21620   0.21620   0.24203   0.27675

  Beta  occ. eigenvalues --  -10.53285 -10.53266  -0.81771  -0.71119  -0.49161
  Beta  occ. eigenvalues --   -0.49161  -0.42197  -0.42197  -0.38489
  Beta virt. eigenvalues --    0.02231   0.03817   0.05605   0.05605   0.08662
  Beta virt. eigenvalues --    0.08662   0.09131   0.13618   0.18442   0.18442
  Beta virt. eigenvalues --    0.20688   0.21620   0.21620   0.24203   0.27675

 Mulliken charges and spin densities:
               1          2
     1  C   -0.484330  -0.000000
     2  C   -0.484330   0.000000
     3  H    0.161443   0.000000
     4  H    0.161444   0.000000
     5  H    0.161444   0.000000
     6  H    0.161443   0.000000
     7  H    0.161443   0.000000
     8  H    0.161443   0.000000
 Sum of Mulliken charges =  -0.00000   0.00000

 Dipole moment (field-independent basis, Debye):
    X=              0.0000    Y=             -0.0000    Z=             -0.0000  Tot=              0.0000
 Quadrupole moment (field-independent basis, Debye-Ang):
   XX=            -15.6197   YY=            -14.9436   ZZ=            -14.9437
   XY=              0.0000   XZ=              0.0001   YZ=             -0.0000

 Normal termination of Gaussian 16 at Tue Nov 19 11:58:12 2024.
