 Gaussian 16, Revision A.03,
 Gaussian 16:  ES64L-G16RevA.03 25-Dec-2016

 --------------------------------------------
 #p opt UM062X/6-311+G** nosymm int=superfine
 --------------------------------------------

 -------------------
 Title Card Required
 -------------------
 Symbolic Z-matrix:
 Charge =  0 Multiplicity = 1

 SCF Done:  E(UM062X) =  -79.7766341058     A.U. after    8 cycles
 SCF Done:  E(UM062X) =  -79.7819100138     A.U. after    8 cycles
 SCF Done:  E(UM062X) =  -79.7819660263     A.U. after    7 cycles
 Optimization completed.
    -- Stationary point found.

                          Input orientation:
 ---------------------------------------------------------------------
 Center     Atomic      Atomic             Coordinates (Angstroms)
 Number     Number       Type             X           Y           Z
 ---------------------------------------------------------------------
      1          6           0       -0.687192    0.000000    0.000000
      2          6           0        0.687263    0.000000    0.000000
      3          1           0        1.117504   -0.872076    0.504646
      4          1           0       -1.117417   -0.873080   -0.502934
      5          1           0        1.117489    0.873080    0.502931
      6          1           0        1.117526   -0.000965   -1.007564
      7          1           0       -1.117434    0.872074   -0.504649
      8          1           0       -1.117458    0.000962    1.007563
 ---------------------------------------------------------------------

 Alpha  occ. eigenvalues --  -10.51178 -10.51098  -0.88183  -0.69139  -0.51594
 Alpha  occ. eigenvalues --   -0.51593  -0.46191  -0.38462  -0.38462
 Alpha virt. eigenvalues --    0.02146   0.04183   0.05285   0.05285   0.08788
 Alpha virt. eigenvalues --    0.08859   0.08859   0.14104   0.19111   0.19111
 Alpha virt. eigenvalues --    0.20441   0.20442   0.24096   0.27886   0.33885

  Beta  occ. eigenvalues --  -10.51178 -10.51098  -0.88183  -0.69139  -0.51594
  Beta  occ. eigenvalues --   -0.51593  -0.46191  -0.38462  -0.38462
  Beta virt. eigenvalues --    0.02146   0.04183   0.05285   0.05285   0.08788
  Beta virt. eigenvalues --    0.08859   0.08859   0.14104   0.19111   0.19111
  Beta virt. eigenvalues --    0.20441   0.20442   0.24096   0.27886   0.33885

 Mulliken charges and spin densities:
               1          2
     1  C   -0.454465  -0.000000
     2  C   -0.454465   0.000000
     3  H    0.151489  -0.000000
     4  H    0.151488  -0.000000
     5  H    0.151488  -0.000000
     6  H    0.151489  -0.000000
     7  H    0.151489  -0.000000
     8  H    0.151489  -0.000000
 Sum of Mulliken charges =  -0.00000  -0.00000

 Dipole moment (field-independent basis, Debye):
    X=             -0.0000    Y=             -0.0000    Z=             -0.0000  Tot=              0.0000
 Quadrupole moment (field-independent basis, Debye-Ang):
   XX=            -15.6321   YY=            -14.9659   ZZ=            -14.9659
   XY=             -0.0000   XZ=             -0.0001   YZ=             -0.0001

 Normal termination of Gaussian 16 at Tue Nov 19 11:50:06 2024.
