 Gaussian 16, Revision A.03,
 Gaussian 16:  ES64L-G16RevA.03 25-Dec-2016

 --------------------------------------------
 #p opt UM062X/6-311+G** nosymm int=superfine
 --------------------------------------------

 -------------------
 Title Card Required
 -------------------
 Symbolic Z-matrix:
 Charge =  0 Multiplicity = 1

 SCF Done:  E(UM062X) =  -683.760793602     A.U. after    9 cycles
 SCF Done:  E(UM062X) =  -683.761789719     A.U. after   10 cycles
 SCF Done:  E(UM062X) =  -683.761792562     A.U. after    7 cycles
 Optimization completed.
    -- Stationary point found.

                          Input orientation:
 ---------------------------------------------------------------------
 Center     Atomic      Atomic             Coordinates (Angstroms)
 Number     Number       Type             X           Y           Z
 ---------------------------------------------------------------------
      1         15           0       -1.334490    0.000000    0.000000
      2         15           0        1.334490    0.000000    0.000000
      3          1           0       -1.323186   -1.421199    0.000000
      4          1           0        1.323186    1.421199    0.000000
 ---------------------------------------------------------------------

 Alpha  occ. eigenvalues --  -78.07288 -78.07288  -6.89288  -6.89285  -5.00754
 Alpha  occ. eigenvalues --   -5.00754  -5.00687  -5.00684  -5.00528  -5.00527
 Alpha  occ. eigenvalues --   -0.71268  -0.65312  -0.41073  -0.39767  -0.31292
 Alpha  occ. eigenvalues --   -0.27569
 Alpha virt. eigenvalues --   -0.12760  -0.05180   0.01860   0.03469   0.03969
 Alpha virt. eigenvalues --    0.04553   0.04888   0.06228   0.06836   0.08499
 Alpha virt. eigenvalues --    0.09699   0.12777   0.28544   0.29482   0.30213

  Beta  occ. eigenvalues --  -78.07288 -78.07288  -6.89288  -6.89285  -5.00754
  Beta  occ. eigenvalues --   -5.00754  -5.00687  -5.00684  -5.00528  -5.00527
  Beta  occ. eigenvalues --   -0.71268  -0.65312  -0.41073  -0.39767  -0.31292
  Beta  occ. eigenvalues --   -0.27569
  Beta virt. eigenvalues --   -0.12760  -0.05180   0.01860   0.03469   0.03969
  Beta virt. eigenvalues --    0.04553   0.04888   0.06228   0.06836   0.08499
  Beta virt. eigenvalues --    0.09699   0.12777   0.28544   0.29482   0.30213

 Mulliken charges and spin densities:
               1          2
     1  P    0.009134  -0.000000
     2  P    0.009136   0.000000
     3  H   -0.009135   0.000000
     4  H   -0.009135  -0.000000
 Sum of Mulliken charges =  -0.00000  -0.00000

 Dipole moment (field-independent basis, Debye):
    X=              0.0000    Y=             -0.0000    Z=              0.0000  Tot=              0.0000
 Quadrupole moment (field-independent basis, Debye-Ang):
   XX=            -28.2861   YY=            -27.9239   ZZ=            -30.0570
   XY=              2.6271   XZ=              0.0000   YZ=             -0.0000

 Normal termination of Gaussian 16 at Mon Apr 21 21:12:19 2025.
