 Gaussian 16, Revision A.03,
 Gaussian 16:  ES64L-G16RevA.03 25-Dec-2016

 ---------------------------------------
 #p UM062X/6-311+G** force int=superfine
 ---------------------------------------

 -------------------
 Title Card Required
 -------------------
 Symbolic Z-matrix:
 Charge =  0 Multiplicity = 1

                         Standard orientation:
 ---------------------------------------------------------------------
 Center     Atomic      Atomic             Coordinates (Angstroms)
 Number     Number       Type             X           Y           Z
 ---------------------------------------------------------------------
      1          6           0       -0.000000    0.410981    0.000000
      2          6           0       -0.000000   -0.410981    0.000000
      3          1           0       -0.857681    1.115103    0.000000
      4          1           0        0.857740    1.115074    0.000000
      5          1           0        0.857681   -1.115103    0.000000
      6          1           0       -0.857740   -1.115074    0.000000
 ---------------------------------------------------------------------

 SCF Done:  E(UM062X) =  -77.7172288895     A.U. after   10 cycles

 The electronic state is 1-AG.
 Alpha  occ. eigenvalues --  -10.52199 -10.45889  -0.94837  -0.61844  -0.61024
 Alpha  occ. eigenvalues --   -0.53555  -0.48960  -0.30112
 Alpha virt. eigenvalues --    0.03072   0.03482   0.04233   0.06061   0.07912
 Alpha virt. eigenvalues --    0.09198   0.09854   0.15851   0.16023   0.18627
 Alpha virt. eigenvalues --    0.23649   0.25312   0.36185   0.42035   0.43273

  Beta  occ. eigenvalues --  -10.52199 -10.45889  -0.94837  -0.61844  -0.61024
  Beta  occ. eigenvalues --   -0.53555  -0.48960  -0.30112
  Beta virt. eigenvalues --    0.03072   0.03482   0.04233   0.06061   0.07912
  Beta virt. eigenvalues --    0.09198   0.09854   0.15851   0.16023   0.18627
  Beta virt. eigenvalues --    0.23649   0.25312   0.36185   0.42035   0.43273

 Mulliken charges and spin densities:
               1          2
     1  C   -0.243989   0.000000
     2  C   -0.243989   0.000000
     3  H    0.122000   0.000000
     4  H    0.121989  -0.000000
     5  H    0.122000   0.000000
     6  H    0.121989  -0.000000
 Sum of Mulliken charges =  -0.00000   0.00000

 Dipole moment (field-independent basis, Debye):
    X=             -0.0000    Y=             -0.0000    Z=              0.0000  Tot=              0.0000
 Quadrupole moment (field-independent basis, Debye-Ang):
   XX=            -12.5159   YY=            -12.6464   ZZ=            -13.4597
   XY=             -0.0002   XZ=              0.0000   YZ=              0.0000

 Normal termination of Gaussian 16 at Tue Nov 19 11:40:01 2024.
