 Gaussian 16, Revision A.03,
 Gaussian 16:  ES64L-G16RevA.03 25-Dec-2016

 ---------------------------------------
 #p UM062X/6-311+G** force int=superfine
 ---------------------------------------

 -------------------
 Title Card Required
 -------------------
 Symbolic Z-matrix:
 Charge =  1 Multiplicity = 2

                         Standard orientation:
 ---------------------------------------------------------------------
 Center     Atomic      Atomic             Coordinates (Angstroms)
 Number     Number       Type             X           Y           Z
 ---------------------------------------------------------------------
      1          6           0        0.830206    0.923443   -1.707729
      2          6           0       -0.830208   -0.923439    1.707730
      3          1           0       -1.750003   -1.134916    1.175762
      4          1           0        0.733445    0.007072   -2.277491
      5          1           0       -0.733665   -0.007619    2.278418
      6          1           0       -0.034031   -1.657969    1.724808
      7          1           0        1.749942    1.135137   -1.175744
      8          1           0        0.034324    1.658271   -1.725759
 ---------------------------------------------------------------------

 SCF Done:  E(UM062X) =  -79.3153238208     A.U. after   10 cycles

 The electronic state is 2-A.
 Alpha  occ. eigenvalues --  -10.83095 -10.83094  -1.01696  -1.01460  -0.72791
 Alpha  occ. eigenvalues --   -0.72790  -0.72724  -0.72724  -0.46516
 Alpha virt. eigenvalues --   -0.37805  -0.12467  -0.10082  -0.09162  -0.09162
 Alpha virt. eigenvalues --   -0.06200  -0.06199  -0.04415  -0.02685   0.00379
 Alpha virt. eigenvalues --    0.00382   0.01473   0.01475   0.02392   0.09033

  Beta  occ. eigenvalues --  -10.82870 -10.82870  -0.99035  -0.98909  -0.72256
  Beta  occ. eigenvalues --   -0.72255  -0.72178  -0.72177
  Beta virt. eigenvalues --   -0.31920  -0.26683  -0.17026  -0.10498  -0.10497
  Beta virt. eigenvalues --   -0.10242  -0.06156  -0.06156  -0.05606  -0.01721
  Beta virt. eigenvalues --    0.00250   0.00253   0.01724   0.01726   0.02264

 Mulliken charges and spin densities:
               1          2
     1  C   -0.240816   0.558097
     2  C   -0.240818   0.558095
     3  H    0.246970  -0.019349
     4  H    0.246917  -0.019368
     5  H    0.246938  -0.019371
     6  H    0.246911  -0.019376
     7  H    0.246970  -0.019350
     8  H    0.246929  -0.019379
 Sum of Mulliken charges =   1.00000   1.00000

 Dipole moment (field-independent basis, Debye):
    X=              0.0000    Y=             -0.0000    Z=             -0.0000  Tot=              0.0000
 Quadrupole moment (field-independent basis, Debye-Ang):
   XX=             -7.8790   YY=             -7.1116   ZZ=              2.5867
   XY=              3.6050   XZ=             -6.6658   YZ=             -7.4129

 Normal termination of Gaussian 16 at Tue Nov 19 08:45:43 2024.
