 Gaussian 16, Revision A.03,
 Gaussian 16:  ES64L-G16RevA.03 25-Dec-2016

 --------------------------------------------
 #p opt UM062X/6-311+G** nosymm int=superfine
 --------------------------------------------

 -------------------
 Title Card Required
 -------------------
 Symbolic Z-matrix:
 Charge =  1 Multiplicity = 2

 SCF Done:  E(UM062X) =  -79.3322568894     A.U. after   10 cycles
 SCF Done:  E(UM062X) =  -79.3324966784     A.U. after    9 cycles
 Optimization completed.
    -- Stationary point found.

                          Input orientation:
 ---------------------------------------------------------------------
 Center     Atomic      Atomic             Coordinates (Angstroms)
 Number     Number       Type             X           Y           Z
 ---------------------------------------------------------------------
      1          6           0       -1.626406    0.000000    0.000000
      2          6           0        1.626406    0.000000    0.000000
      3          1           0        1.670066   -0.937576    0.542649
      4          1           0       -1.668642   -0.938686   -0.540841
      5          1           0        1.669461    0.938776    0.540620
      6          1           0        1.668686   -0.001163   -1.083343
      7          1           0       -1.670100    0.937674   -0.542478
      8          1           0       -1.669442    0.000940    1.083313
 ---------------------------------------------------------------------

 Alpha  occ. eigenvalues --  -10.84746 -10.84744  -1.03515  -1.02465  -0.74310
 Alpha  occ. eigenvalues --   -0.74309  -0.73830  -0.73830  -0.51227
 Alpha virt. eigenvalues --   -0.36193  -0.13703  -0.10198  -0.10135  -0.10135
 Alpha virt. eigenvalues --   -0.06243  -0.06243  -0.04961  -0.03276  -0.01609
 Alpha virt. eigenvalues --   -0.01606   0.01284   0.01287   0.04426   0.07821

  Beta  occ. eigenvalues --  -10.84544 -10.84544  -1.00736  -1.00036  -0.73791
  Beta  occ. eigenvalues --   -0.73790  -0.73320  -0.73319
  Beta virt. eigenvalues --   -0.32621  -0.26006  -0.15490  -0.11140  -0.11139
  Beta virt. eigenvalues --   -0.10043  -0.06375  -0.06375  -0.05248  -0.02377
  Beta virt. eigenvalues --   -0.01932  -0.01929   0.01584   0.01586   0.05280

 Mulliken charges and spin densities:
               1          2
     1  C   -0.269272   0.564270
     2  C   -0.269274   0.564273
     3  H    0.256447  -0.021422
     4  H    0.256400  -0.021425
     5  H    0.256426  -0.021425
     6  H    0.256400  -0.021425
     7  H    0.256449  -0.021422
     8  H    0.256425  -0.021424
 Sum of Mulliken charges =   1.00000   1.00000

 Dipole moment (field-independent basis, Debye):
    X=             -0.0000    Y=             -0.0000    Z=             -0.0001  Tot=              0.0001
 Quadrupole moment (field-independent basis, Debye-Ang):
   XX=              1.6174   YY=            -11.0580   ZZ=            -11.0580
   XY=             -0.0016   XZ=              0.0009   YZ=              0.0000

 Normal termination of Gaussian 16 at Wed Nov 13 12:37:52 2024.
