 Gaussian 16, Revision A.03,
 Gaussian 16:  ES64L-G16RevA.03 25-Dec-2016

 --------------------------------------------
 #p opt UM062X/6-311+G** nosymm int=superfine
 --------------------------------------------

 -------------------
 Title Card Required
 -------------------
 Symbolic Z-matrix:
 Charge =  1 Multiplicity = 2

 SCF Done:  E(UM062X) =  -92.5751295486     A.U. after   30 cycles
 SCF Done:  E(UM062X) =  -92.5754374933     A.U. after   33 cycles
 Optimization completed.
    -- Stationary point found.

                          Input orientation:
 ---------------------------------------------------------------------
 Center     Atomic      Atomic             Coordinates (Angstroms)
 Number     Number       Type             X           Y           Z
 ---------------------------------------------------------------------
      1          6           0       -1.801540    0.000000    0.000000
      2          7           0        1.801540    0.000000    0.000000
      3          1           0       -2.918088    0.000000   -0.000000
 ---------------------------------------------------------------------

 Alpha  occ. eigenvalues --  -15.22035 -10.97885  -1.17409  -0.99001  -0.72440
 Alpha  occ. eigenvalues --   -0.69471  -0.65698
 Alpha virt. eigenvalues --   -0.42692  -0.34397  -0.32851  -0.13786  -0.09817
 Alpha virt. eigenvalues --   -0.07989  -0.07293  -0.04341  -0.02346  -0.01809
 Alpha virt. eigenvalues --   -0.01579   0.07291   0.25469   0.34949   0.35168

  Beta  occ. eigenvalues --  -15.19409 -10.98275  -1.05470  -1.01242  -0.66970
  Beta  occ. eigenvalues --   -0.51065
  Beta virt. eigenvalues --   -0.43023  -0.39170  -0.36314  -0.34463  -0.13585
  Beta virt. eigenvalues --   -0.10323  -0.08490  -0.08032  -0.04806  -0.02407
  Beta virt. eigenvalues --   -0.02376  -0.01837   0.05518   0.26058   0.34508

 Mulliken charges and spin densities:
               1          2
     1  C    0.282735  -0.483691
     2  N    0.466551   1.467953
     3  H    0.250714   0.015738
 Sum of Mulliken charges =   1.00000   1.00000

 Dipole moment (field-independent basis, Debye):
    X=             -2.8380    Y=             -0.0000    Z=             -0.0000  Tot=              2.8380
 Quadrupole moment (field-independent basis, Debye-Ang):
   XX=             15.1246   YY=            -11.2457   ZZ=             -9.4488
   XY=             -0.0000   XZ=              0.0000   YZ=              0.1717

 Normal termination of Gaussian 16 at Mon Apr 21 18:37:41 2025.
