 Gaussian 16, Revision A.03,
 Gaussian 16:  ES64L-G16RevA.03 25-Dec-2016

 --------------------------------------------
 #p opt UM062X/6-311+G** nosymm int=superfine
 --------------------------------------------

 -------------------
 Title Card Required
 -------------------
 Symbolic Z-matrix:
 Charge =  1 Multiplicity = 2

 SCF Done:  E(UM062X) =  -92.5739209611     A.U. after   27 cycles
 SCF Done:  E(UM062X) =  -92.5742487184     A.U. after   12 cycles
 Optimization completed.
    -- Stationary point found.

                          Input orientation:
 ---------------------------------------------------------------------
 Center     Atomic      Atomic             Coordinates (Angstroms)
 Number     Number       Type             X           Y           Z
 ---------------------------------------------------------------------
      1          6           0       -1.976540    0.000000    0.000000
      2          7           0        1.976540    0.000000    0.000000
      3          1           0       -3.093785    0.000000    0.000000
 ---------------------------------------------------------------------

 Alpha  occ. eigenvalues --  -15.20648 -10.97946  -1.16189  -0.99018  -0.71268
 Alpha  occ. eigenvalues --   -0.68163  -0.65497
 Alpha virt. eigenvalues --   -0.41624  -0.34302  -0.32830  -0.13713  -0.09918
 Alpha virt. eigenvalues --   -0.07798  -0.07052  -0.04177  -0.02163  -0.01898
 Alpha virt. eigenvalues --   -0.01617   0.06712   0.25569   0.35167   0.35409

  Beta  occ. eigenvalues --  -15.18077 -10.98314  -1.04506  -1.01156  -0.66688
  Beta  occ. eigenvalues --   -0.50137
  Beta virt. eigenvalues --   -0.42921  -0.38227  -0.36148  -0.33506  -0.13496
  Beta virt. eigenvalues --   -0.10255  -0.08342  -0.07972  -0.04730  -0.02678
  Beta virt. eigenvalues --   -0.02079  -0.01622   0.04981   0.26202   0.34769

 Mulliken charges and spin densities:
               1          2
     1  C    0.311852  -0.458776
     2  N    0.444453   1.443897
     3  H    0.243695   0.014879
 Sum of Mulliken charges =   1.00000   1.00000

 Dipole moment (field-independent basis, Debye):
    X=             -3.2352    Y=              0.0000    Z=              0.0000  Tot=              3.2352
 Quadrupole moment (field-independent basis, Debye-Ang):
   XX=             18.8825   YY=             -9.6252   ZZ=            -11.0430
   XY=              0.0000   XZ=              0.0000   YZ=             -0.5651

 Normal termination of Gaussian 16 at Mon Apr 21 18:34:58 2025.
