 Gaussian 16, Revision A.03,
 Gaussian 16:  ES64L-G16RevA.03 25-Dec-2016

 ---------------------------------------
 #p UM062X/6-311+G** force int=superfine
 ---------------------------------------

 -------------------
 Title Card Required
 -------------------
 Symbolic Z-matrix:
 Charge =  1 Multiplicity = 2

                         Standard orientation:
 ---------------------------------------------------------------------
 Center     Atomic      Atomic             Coordinates (Angstroms)
 Number     Number       Type             X           Y           Z
 ---------------------------------------------------------------------
      1          6           0        0.000000    0.000000   -0.907158
      2          6           0        0.000000    0.000000    0.907162
      3          1           0        0.000000    0.000000   -2.008151
      4          1           0        0.000000    0.000000    2.008133
 ---------------------------------------------------------------------

 SCF Done:  E(UM062X) =  -76.6735381353     A.U. after   13 cycles

 Unable to determine electronic state:  an orbital has unidentified symmetry.
 Alpha  occ. eigenvalues --  -11.00719 -11.00691  -1.08156  -0.99513  -0.82264
 Alpha  occ. eigenvalues --   -0.61871  -0.59824
 Alpha virt. eigenvalues --   -0.37787  -0.35808  -0.32356  -0.14130  -0.11670
 Alpha virt. eigenvalues --   -0.10264  -0.08857  -0.08627  -0.05356  -0.05062
 Alpha virt. eigenvalues --    0.00858   0.03387   0.06520   0.23440   0.31164

  Beta  occ. eigenvalues --  -11.00459 -11.00440  -1.04598  -0.97681  -0.81251
  Beta  occ. eigenvalues --   -0.57939
  Beta virt. eigenvalues --   -0.39726  -0.34071  -0.30309  -0.29288  -0.15095
  Beta virt. eigenvalues --   -0.11993  -0.10805  -0.09224  -0.09071  -0.05358
  Beta virt. eigenvalues --   -0.05111  -0.00102   0.03478   0.06700   0.23893

 Mulliken charges and spin densities:
               1          2
     1  C    0.129094   0.522486
     2  C    0.129092   0.522485
     3  H    0.370912  -0.022486
     4  H    0.370903  -0.022485
 Sum of Mulliken charges =   1.00000   1.00000

 Dipole moment (field-independent basis, Debye):
    X=              0.0000    Y=              0.0000    Z=             -0.0001  Tot=              0.0001
 Quadrupole moment (field-independent basis, Debye-Ang):
   XX=            -10.9003   YY=            -13.0317   ZZ=              4.2861
   XY=              0.0000   XZ=              0.0000   YZ=              0.0000

 Normal termination of Gaussian 16 at Tue Nov 19 13:40:15 2024.
