 Gaussian 16, Revision A.03,
 Gaussian 16:  ES64L-G16RevA.03 25-Dec-2016

 --------------------------------------------
 #p opt UM062X/6-311+G** nosymm int=superfine
 --------------------------------------------

 -------------------
 Title Card Required
 -------------------
 Symbolic Z-matrix:
 Charge =  1 Multiplicity = 2

 SCF Done:  E(UM062X) =  -78.1661252105     A.U. after    9 cycles
 SCF Done:  E(UM062X) =  -78.1707738589     A.U. after    8 cycles
 SCF Done:  E(UM062X) =  -78.1711829317     A.U. after    8 cycles
 SCF Done:  E(UM062X) =  -78.1711923399     A.U. after    6 cycles
 Optimization completed.
    -- Stationary point found.

                          Input orientation:
 ---------------------------------------------------------------------
 Center     Atomic      Atomic             Coordinates (Angstroms)
 Number     Number       Type             X           Y           Z
 ---------------------------------------------------------------------
      1          6           0       -0.777581    0.000000    0.000000
      2          6           0        0.777581    0.000000    0.000000
      3          1           0       -1.307525   -0.947222    0.000000
      4          1           0       -1.307579    0.947192    0.000000
      5          1           0        1.307525    0.947222    0.000000
      6          1           0        1.307579   -0.947192    0.000000
 ---------------------------------------------------------------------

 Alpha  occ. eigenvalues --  -10.90536 -10.90491  -1.14511  -0.98392  -0.83291
 Alpha  occ. eigenvalues --   -0.76608  -0.74408  -0.63472
 Alpha virt. eigenvalues --   -0.31718  -0.14583  -0.13229  -0.11867  -0.09290
 Alpha virt. eigenvalues --   -0.07612  -0.07073  -0.04683  -0.04571  -0.02084
 Alpha virt. eigenvalues --   -0.01956  -0.00858   0.03790   0.10268   0.19508

  Beta  occ. eigenvalues --  -10.90311 -10.90277  -1.10825  -0.96397  -0.82358
  Beta  occ. eigenvalues --   -0.75572  -0.74066
  Beta virt. eigenvalues --   -0.40061  -0.24151  -0.16303  -0.12946  -0.12134
  Beta virt. eigenvalues --   -0.09586  -0.08402  -0.07124  -0.04701  -0.03918
  Beta virt. eigenvalues --   -0.01799  -0.01525   0.00580   0.04053   0.10747

 Mulliken charges and spin densities:
               1          2
     1  C   -0.057205   0.538628
     2  C   -0.057205   0.538628
     3  H    0.278600  -0.019314
     4  H    0.278605  -0.019313
     5  H    0.278600  -0.019314
     6  H    0.278605  -0.019313
 Sum of Mulliken charges =   1.00000   1.00000

 Dipole moment (field-independent basis, Debye):
    X=              0.0000    Y=             -0.0000    Z=              0.0000  Tot=              0.0000
 Quadrupole moment (field-independent basis, Debye-Ang):
   XX=             -4.8775   YY=             -8.4085   ZZ=            -11.7851
   XY=             -0.0001   XZ=             -0.0000   YZ=             -0.0000

 Normal termination of Gaussian 16 at Tue Nov 19 11:04:12 2024.
