 Gaussian 16, Revision A.03,
 Gaussian 16:  ES64L-G16RevA.03 25-Dec-2016

 --------------------------------------------
 #p opt UM062X/6-311+G** nosymm int=superfine
 --------------------------------------------

 -------------------
 Title Card Required
 -------------------
 Symbolic Z-matrix:
 Charge =  0 Multiplicity = 1

 SCF Done:  E(UM062X) =  -437.178916898     A.U. after   17 cycles
 SCF Done:  E(UM062X) =  -437.180027218     A.U. after   14 cycles
 SCF Done:  E(UM062X) =  -437.180418328     A.U. after   14 cycles
 SCF Done:  E(UM062X) =  -437.180417811     A.U. after   11 cycles
 SCF Done:  E(UM062X) =  -437.180418548     A.U. after   13 cycles
 Optimization completed.
    -- Stationary point found.

                          Input orientation:
 ---------------------------------------------------------------------
 Center     Atomic      Atomic             Coordinates (Angstroms)
 Number     Number       Type             X           Y           Z
 ---------------------------------------------------------------------
      1          6           0       -1.627140    0.000000    0.000000
      2         16           0        1.627140    0.000000    0.000000
      3          1           0       -2.277951   -0.887939   -0.000453
      4          1           0       -2.278746    0.887356   -0.000588
 ---------------------------------------------------------------------

 Alpha  occ. eigenvalues --  -89.92028 -10.66272  -8.28024  -6.20743  -6.19277
 Alpha  occ. eigenvalues --   -6.19266  -0.79694  -0.72293  -0.52771  -0.35620
 Alpha  occ. eigenvalues --   -0.29770  -0.29741
 Alpha virt. eigenvalues --   -0.14029  -0.11970   0.00758   0.05256   0.05480
 Alpha virt. eigenvalues --    0.06628   0.08407   0.08896   0.09298   0.14159
 Alpha virt. eigenvalues --    0.16708   0.17219   0.36396   0.37253   0.37290

  Beta  occ. eigenvalues --  -89.92028 -10.66272  -8.28024  -6.20743  -6.19277
  Beta  occ. eigenvalues --   -6.19266  -0.79694  -0.72293  -0.52771  -0.35620
  Beta  occ. eigenvalues --   -0.29770  -0.29741
  Beta virt. eigenvalues --   -0.14029  -0.11970   0.00758   0.05256   0.05480
  Beta virt. eigenvalues --    0.06628   0.08407   0.08896   0.09298   0.14159
  Beta virt. eigenvalues --    0.16708   0.17219   0.36396   0.37253   0.37290

 Mulliken charges and spin densities:
               1          2
     1  C   -0.258606   0.000000
     2  S   -0.076423  -0.000000
     3  H    0.167509  -0.000000
     4  H    0.167520   0.000000
 Sum of Mulliken charges =  -0.00000  -0.00000

 Dipole moment (field-independent basis, Debye):
    X=             -3.9137    Y=             -0.0008    Z=             -0.0014  Tot=              3.9137
 Quadrupole moment (field-independent basis, Debye-Ang):
   XX=            -12.0512   YY=            -22.2681   ZZ=            -21.9983
   XY=             -0.0001   XZ=             -0.0004   YZ=              0.0000

 Normal termination of Gaussian 16 at Mon Apr 21 19:44:05 2025.
