 Gaussian 16, Revision A.03,
 Gaussian 16:  ES64L-G16RevA.03 25-Dec-2016

 --------------------------------------------
 #p opt UM062X/6-311+G** nosymm int=superfine
 --------------------------------------------

 -------------------
 Title Card Required
 -------------------
 Symbolic Z-matrix:
 Charge =  0 Multiplicity = 1

 SCF Done:  E(UM062X) =  -76.8844524495     A.U. after   10 cycles
 SCF Done:  E(UM062X) =  -76.9286503560     A.U. after    9 cycles
 SCF Done:  E(UM062X) =  -76.9987143315     A.U. after   10 cycles
 SCF Done:  E(UM062X) =  -77.0391692988     A.U. after   10 cycles
 SCF Done:  E(UM062X) =  -77.0393591246     A.U. after    8 cycles
 Optimization completed.
    -- Stationary point found.

                          Input orientation:
 ---------------------------------------------------------------------
 Center     Atomic      Atomic             Coordinates (Angstroms)
 Number     Number       Type             X           Y           Z
 ---------------------------------------------------------------------
      1          6           0       -0.891788    0.000000    0.000000
      2          6           0        0.891788    0.000000    0.000000
      3          1           0       -1.970959   -0.000007   -0.000007
      4          1           0        1.970913   -0.000011   -0.000011
 ---------------------------------------------------------------------

 Alpha  occ. eigenvalues --  -10.66987 -10.66961  -0.77065  -0.70237  -0.51995
 Alpha  occ. eigenvalues --   -0.29622  -0.29622
 Alpha virt. eigenvalues --   -0.05909  -0.05909  -0.02189   0.02280   0.04438
 Alpha virt. eigenvalues --    0.08520   0.08520   0.09643   0.10885   0.10885
 Alpha virt. eigenvalues --    0.17407   0.22212   0.26306   0.46888   0.58148

  Beta  occ. eigenvalues --  -10.66987 -10.66961  -0.77065  -0.70237  -0.51995
  Beta  occ. eigenvalues --   -0.29622  -0.29622
  Beta virt. eigenvalues --   -0.05909  -0.05909  -0.02189   0.02280   0.04438
  Beta virt. eigenvalues --    0.08520   0.08520   0.09643   0.10885   0.10885
  Beta virt. eigenvalues --    0.17407   0.22212   0.26306   0.46888   0.58148

 Mulliken charges and spin densities:
               1          2
     1  C   -0.254124   0.000000
     2  C   -0.254125  -0.000000
     3  H    0.254131  -0.000000
     4  H    0.254118   0.000000
 Sum of Mulliken charges =  -0.00000  -0.00000

 Dipole moment (field-independent basis, Debye):
    X=             -0.0001    Y=             -0.0000    Z=             -0.0000  Tot=              0.0001
 Quadrupole moment (field-independent basis, Debye-Ang):
   XX=             -4.6187   YY=            -16.0244   ZZ=            -16.0244
   XY=             -0.0000   XZ=             -0.0000   YZ=              0.0000

 Normal termination of Gaussian 16 at Tue Dec  3 20:19:33 2024.
