 Gaussian 16, Revision A.03,
 Gaussian 16:  ES64L-G16RevA.03 25-Dec-2016

 ---------------------------------------
 #p UM062X/6-311+G** force int=superfine
 ---------------------------------------

 -------------------
 Title Card Required
 -------------------
 Symbolic Z-matrix:
 Charge =  0 Multiplicity = 1

                         Standard orientation:
 ---------------------------------------------------------------------
 Center     Atomic      Atomic             Coordinates (Angstroms)
 Number     Number       Type             X           Y           Z
 ---------------------------------------------------------------------
      1          7           0        0.000000    0.000000    0.970048
      2          7           0        0.000000    0.000000   -0.970048
 ---------------------------------------------------------------------

 SCF Done:  E(UM062X) =  -109.051716778     A.U. after    9 cycles

 The electronic state is 1-SGG.
 Alpha  occ. eigenvalues --  -14.97375 -14.97356  -0.94011  -0.81764  -0.43576
 Alpha  occ. eigenvalues --   -0.38465  -0.38465
 Alpha virt. eigenvalues --   -0.18165  -0.18165  -0.07928   0.07475   0.09925
 Alpha virt. eigenvalues --    0.11600   0.11600   0.15654   0.15654   0.15725
 Alpha virt. eigenvalues --    0.24960   0.74588   0.74588   0.77193   0.82553

  Beta  occ. eigenvalues --  -14.97375 -14.97356  -0.94011  -0.81764  -0.43576
  Beta  occ. eigenvalues --   -0.38465  -0.38465
  Beta virt. eigenvalues --   -0.18165  -0.18165  -0.07928   0.07475   0.09925
  Beta virt. eigenvalues --    0.11600   0.11600   0.15654   0.15654   0.15725
  Beta virt. eigenvalues --    0.24960   0.74588   0.74588   0.77193   0.82553

 Mulliken charges and spin densities:
               1          2
     1  N   -0.000000   0.000000
     2  N   -0.000000   0.000000
 Sum of Mulliken charges =  -0.00000   0.00000

 Dipole moment (field-independent basis, Debye):
    X=              0.0000    Y=              0.0000    Z=              0.0000  Tot=              0.0000
 Quadrupole moment (field-independent basis, Debye-Ang):
   XX=            -12.0955   YY=            -12.0955   ZZ=            -11.2691
   XY=              0.0000   XZ=             -0.0000   YZ=              0.0000

 Optimization completed.
    -- Stationary point found.
 Normal termination of Gaussian 16 at Wed Feb 26 13:56:52 2025.
