 Gaussian 16, Revision A.03,
 Gaussian 16:  ES64L-G16RevA.03 25-Dec-2016

 --------------------------------------------
 #p opt UM062X/6-311+G** nosymm int=superfine
 --------------------------------------------

 -------------------
 Title Card Required
 -------------------
 Symbolic Z-matrix:
 Charge =  1 Multiplicity = 2

 SCF Done:  E(UM062X) =  -1615.38122694     A.U. after   23 cycles
 SCF Done:  E(UM062X) =  -1615.50569557     A.U. after   19 cycles
 SCF Done:  E(UM062X) =  -1615.54600140     A.U. after   23 cycles
 SCF Done:  E(UM062X) =  -1615.57722325     A.U. after   23 cycles
 SCF Done:  E(UM062X) =  -1615.57425362     A.U. after   22 cycles
 SCF Done:  E(UM062X) =  -1615.55290940     A.U. after   24 cycles
 SCF Done:  E(UM062X) =  -1615.55474543     A.U. after   23 cycles
 SCF Done:  E(UM062X) =  -1615.57760154     A.U. after   18 cycles
 SCF Done:  E(UM062X) =  -1615.57087081     A.U. after   22 cycles
 SCF Done:  E(UM062X) =  -1615.58140083     A.U. after   21 cycles
 SCF Done:  E(UM062X) =  -1615.58142303     A.U. after   20 cycles
 SCF Done:  E(UM062X) =  -1615.58209511     A.U. after   20 cycles
 SCF Done:  E(UM062X) =  -1615.58219116     A.U. after   19 cycles
 SCF Done:  E(UM062X) =  -1615.58231440     A.U. after   18 cycles
 SCF Done:  E(UM062X) =  -1615.58232119     A.U. after   16 cycles
 SCF Done:  E(UM062X) =  -1615.58232315     A.U. after   14 cycles
 SCF Done:  E(UM062X) =  -1615.58232345     A.U. after   13 cycles
 SCF Done:  E(UM062X) =  -1615.58232373     A.U. after   12 cycles
 SCF Done:  E(UM062X) =  -1615.58232377     A.U. after   11 cycles
 SCF Done:  E(UM062X) =  -1615.58232378     A.U. after    9 cycles
 Optimization completed.
    -- Stationary point found.

                          Input orientation:
 ---------------------------------------------------------------------
 Center     Atomic      Atomic             Coordinates (Angstroms)
 Number     Number       Type             X           Y           Z
 ---------------------------------------------------------------------
      1          6           0       -1.269737    0.000000    0.000000
      2          6           0        1.269737    0.000000   -0.000000
      3          6           0        0.000018   -2.144919    0.000929
      4          6           0        0.000016   -3.523613    0.001547
      5          6           0       -1.131998   -4.321206    0.267032
      6          6           0       -1.226686   -1.480961    0.246056
      7          6           0        0.659867   -5.717240   -0.153235
      8          1           0        1.274323   -6.593712   -0.301695
      9          6           0       -1.494793    0.826199    1.171378
     10          6           0       -0.659721   -5.717098    0.158844
     11          1           0       -1.274134   -6.593433    0.308286
     12          6           0        1.132080   -4.321446   -0.262975
     13          6           0        1.226746   -1.481193   -0.244654
     14          6           0        1.687081    2.241792   -1.200569
     15          6           0       -1.494940    0.324542   -1.401557
     16          6           0       -1.891114    2.885152    2.435824
     17          1           0       -2.046918    3.957693    2.431871
     18          6           0       -2.310885   -3.670471    0.550304
     19          1           0       -3.225368   -4.209706    0.769703
     20          6           0       -1.559905    1.636432   -1.969140
     21          6           0        2.343827   -2.243818   -0.525530
     22          1           0        3.291988   -1.745086   -0.697846
     23          6           0        1.494760    0.325869    1.401266
     24          6           0        1.559598    1.638295    1.967620
     25          6           0        2.311021   -3.670970   -0.546632
     26          1           0        3.225564   -4.210406   -0.765285
     27          6           0       -1.687155    2.242908    1.198447
     28          6           0       -1.472579    0.168069    2.432440
     29          1           0       -1.290318   -0.894956    2.466806
     30          6           0        1.618933   -0.757569    2.321811
     31          1           0        1.611742   -1.773589    1.958971
     32          6           0       -1.899077    2.203091    3.633089
     33          1           0       -2.065828    2.732219    4.563459
     34          6           0       -2.343709   -2.243336    0.527837
     35          1           0       -3.291845   -1.744452    0.699842
     36          6           0       -1.681219    1.781772   -3.367185
     37          1           0       -1.708695    2.787018   -3.771308
     38          6           0        1.494680    0.825115   -1.172169
     39          6           0       -1.640922    3.134841    0.069277
     40          1           0       -1.688964    4.185371    0.339063
     41          6           0       -1.794960    0.706363   -4.217307
     42          1           0       -1.908016    0.859315   -5.283661
     43          6           0       -1.556734    2.882110   -1.250394
     44          1           0       -1.539866    3.758537   -1.891186
     45          6           0        1.680604    1.784948    3.365556
     46          1           0        1.707985    2.790574    3.768737
     47          6           0       -1.673270    0.824679    3.625712
     48          1           0       -1.646601    0.266569    4.553677
     49          6           0       -1.619225   -0.759764   -2.321068
     50          1           0       -1.611927   -1.775444   -1.957280
     51          6           0        1.794206    0.710340    4.216712
     52          1           0        1.907022    0.864295    5.282946
     53          6           0        1.890863    2.882894   -2.438570
     54          1           0        2.046686    3.955436   -2.435624
     55          6           0        1.779884   -0.578249    3.676525
     56          1           0        1.891757   -1.444018    4.317673
     57          6           0        1.898631    2.199737   -3.635209
     58          1           0        2.065229    2.728010   -4.566093
     59          6           0        1.641056    3.134766   -0.072220
     60          1           0        1.689339    4.185039   -0.342969
     61          6           0       -1.780441   -0.581720   -3.675918
     62          1           0       -1.892395   -1.448094   -4.316233
     63          6           0        1.556714    2.883288    1.247685
     64          1           0        1.539988    3.760326    1.887644
     65          6           0        1.472280    0.165827   -2.432629
     66          1           0        1.289999   -0.897226   -2.466006
     67          6           0        1.672815    0.821333   -3.626534
     68          1           0        1.646024    0.262368   -4.553980
 ---------------------------------------------------------------------

 Alpha  occ. eigenvalues --  -10.71338 -10.71336 -10.68574 -10.68574 -10.68562
 Alpha  occ. eigenvalues --  -10.68562 -10.68249 -10.68249 -10.68083 -10.68083
 Alpha  occ. eigenvalues --  -10.66967 -10.66966 -10.66571 -10.66570 -10.66464
 Alpha  occ. eigenvalues --  -10.66463 -10.66021 -10.66021 -10.65866 -10.65866
 Alpha  occ. eigenvalues --  -10.65759 -10.65759 -10.65722 -10.65722 -10.65703
 Alpha  occ. eigenvalues --  -10.65679 -10.65679 -10.65672 -10.65672 -10.65648
 Alpha  occ. eigenvalues --  -10.65648 -10.65567 -10.65566 -10.65536 -10.65536
 Alpha  occ. eigenvalues --  -10.65276 -10.65276 -10.65035 -10.65034 -10.64068
 Alpha  occ. eigenvalues --  -10.63970 -10.63227  -1.12606  -1.10300  -1.10093
 Alpha  occ. eigenvalues --   -1.08456  -1.07787  -1.05869  -1.04772  -1.02593
 Alpha  occ. eigenvalues --   -1.02110  -1.00777  -1.00577  -0.97937  -0.97632
 Alpha  occ. eigenvalues --   -0.96907  -0.96255  -0.95049  -0.93480  -0.93471
 Alpha  occ. eigenvalues --   -0.92809  -0.91922  -0.87537  -0.87370  -0.84971
 Alpha  occ. eigenvalues --   -0.84723  -0.83085  -0.81429  -0.81348  -0.79855
 Alpha  occ. eigenvalues --   -0.79745  -0.79525  -0.77593  -0.76421  -0.76196
 Alpha  occ. eigenvalues --   -0.75726  -0.75460  -0.73675  -0.70243  -0.69748
 Alpha  occ. eigenvalues --   -0.69132  -0.68504  -0.67741  -0.67610  -0.66965
 Alpha  occ. eigenvalues --   -0.66827  -0.65665  -0.65362  -0.65131  -0.64851
 Alpha  occ. eigenvalues --   -0.63366  -0.62991  -0.62340  -0.62194  -0.61247
 Alpha  occ. eigenvalues --   -0.61118  -0.60725  -0.60456  -0.60100  -0.60075
 Alpha  occ. eigenvalues --   -0.59597  -0.58940  -0.58775  -0.58148  -0.57842
 Alpha  occ. eigenvalues --   -0.57623  -0.56678  -0.55841  -0.55677  -0.55635
 Alpha  occ. eigenvalues --   -0.55000  -0.54084  -0.53204  -0.52836  -0.52679
 Alpha  occ. eigenvalues --   -0.52504  -0.52306  -0.52263  -0.51203  -0.51012
 Alpha  occ. eigenvalues --   -0.50955  -0.50918  -0.50434  -0.49478  -0.49223
 Alpha  occ. eigenvalues --   -0.48931  -0.48568  -0.47884  -0.44629  -0.44406
 Alpha  occ. eigenvalues --   -0.44112  -0.42904  -0.40522  -0.40412  -0.39287
 Alpha  occ. eigenvalues --   -0.38136  -0.37639  -0.37210  -0.32532
 Alpha virt. eigenvalues --   -0.19372  -0.15697  -0.15587  -0.14435  -0.10515
 Alpha virt. eigenvalues --   -0.09925  -0.08848  -0.08557  -0.08348  -0.07581
 Alpha virt. eigenvalues --   -0.07533  -0.07482  -0.06642  -0.06383  -0.06151

  Beta  occ. eigenvalues --  -10.71209 -10.71209 -10.68593 -10.68593 -10.68591
  Beta  occ. eigenvalues --  -10.68591 -10.68208 -10.68208 -10.68043 -10.68043
  Beta  occ. eigenvalues --  -10.66982 -10.66981 -10.66561 -10.66560 -10.66450
  Beta  occ. eigenvalues --  -10.66450 -10.65986 -10.65986 -10.65867 -10.65866
  Beta  occ. eigenvalues --  -10.65737 -10.65737 -10.65698 -10.65698 -10.65696
  Beta  occ. eigenvalues --  -10.65696 -10.65679 -10.65652 -10.65651 -10.65633
  Beta  occ. eigenvalues --  -10.65633 -10.65580 -10.65579 -10.65540 -10.65540
  Beta  occ. eigenvalues --  -10.65287 -10.65287 -10.65031 -10.65031 -10.64067
  Beta  occ. eigenvalues --  -10.63969 -10.63226  -1.12437  -1.10203  -1.09938
  Beta  occ. eigenvalues --   -1.08335  -1.07680  -1.05706  -1.04656  -1.02462
  Beta  occ. eigenvalues --   -1.01993  -1.00622  -1.00403  -0.97835  -0.97539
  Beta  occ. eigenvalues --   -0.96780  -0.96147  -0.94997  -0.93418  -0.93371
  Beta  occ. eigenvalues --   -0.92712  -0.91827  -0.87179  -0.87092  -0.84896
  Beta  occ. eigenvalues --   -0.84657  -0.83007  -0.81325  -0.81240  -0.79769
  Beta  occ. eigenvalues --   -0.79674  -0.79454  -0.77472  -0.76257  -0.76044
  Beta  occ. eigenvalues --   -0.75559  -0.75424  -0.73547  -0.70130  -0.69597
  Beta  occ. eigenvalues --   -0.68993  -0.68400  -0.67675  -0.67555  -0.66841
  Beta  occ. eigenvalues --   -0.66729  -0.65586  -0.65223  -0.64996  -0.64742
  Beta  occ. eigenvalues --   -0.63092  -0.62949  -0.62256  -0.62107  -0.60968
  Beta  occ. eigenvalues --   -0.60903  -0.60584  -0.60325  -0.60047  -0.60015
  Beta  occ. eigenvalues --   -0.59474  -0.58793  -0.58694  -0.58065  -0.57584
  Beta  occ. eigenvalues --   -0.57390  -0.56521  -0.55617  -0.55573  -0.55458
  Beta  occ. eigenvalues --   -0.54983  -0.53726  -0.53061  -0.52748  -0.52591
  Beta  occ. eigenvalues --   -0.52457  -0.52210  -0.52152  -0.50963  -0.50941
  Beta  occ. eigenvalues --   -0.50823  -0.50455  -0.49693  -0.49135  -0.49013
  Beta  occ. eigenvalues --   -0.48785  -0.48508  -0.47525  -0.44079  -0.43987
  Beta  occ. eigenvalues --   -0.43362  -0.42566  -0.40346  -0.40085  -0.38661
  Beta  occ. eigenvalues --   -0.37906  -0.37394  -0.37031
  Beta virt. eigenvalues --   -0.22603  -0.17334  -0.15525  -0.15420  -0.14454
  Beta virt. eigenvalues --   -0.10299  -0.09532  -0.08479  -0.08366  -0.08302
  Beta virt. eigenvalues --   -0.07575  -0.07558  -0.07242  -0.06621  -0.06340

 Mulliken charges and spin densities:
               1          2
     1  C    0.004517   0.277210
     2  C    0.004525   0.277197
     3  C    0.206524   0.007267
     4  C    0.110565   0.001426
     5  C    0.112194   0.005454
     6  C    0.031112  -0.027992
     7  C   -0.306278   0.001415
     8  H    0.176411  -0.000063
     9  C    0.243471  -0.024835
    10  C   -0.306126   0.001414
    11  H    0.176411  -0.000063
    12  C    0.112034   0.005456
    13  C    0.030975  -0.028002
    14  C    0.262731   0.055777
    15  C    0.319173  -0.033592
    16  C   -0.240346  -0.032584
    17  H    0.163816   0.000985
    18  C   -0.453267  -0.001356
    19  H    0.175790   0.000402
    20  C    0.204120   0.097538
    21  C   -0.138732   0.016344
    22  H    0.174536  -0.000334
    23  C    0.319001  -0.033601
    24  C    0.204155   0.097520
    25  C   -0.453487  -0.001356
    26  H    0.175791   0.000401
    27  C    0.262965   0.055752
    28  C   -0.084695   0.049048
    29  H    0.203825  -0.002889
    30  C   -0.284017   0.030715
    31  H    0.225889  -0.001523
    32  C   -0.365228   0.055496
    33  H    0.181622  -0.002934
    34  C   -0.138681   0.016352
    35  H    0.174548  -0.000335
    36  C   -0.066576  -0.047307
    37  H    0.163022   0.001369
    38  C    0.243585  -0.024854
    39  C   -0.271940   0.062024
    40  H    0.167237  -0.004036
    41  C   -0.236507   0.052262
    42  H    0.180183  -0.002524
    43  C   -0.256763   0.021096
    44  H    0.159563  -0.001259
    45  C   -0.066468  -0.047301
    46  H    0.163014   0.001369
    47  C   -0.137385  -0.020244
    48  H    0.169373  -0.000707
    49  C   -0.283837   0.030729
    50  H    0.225892  -0.001523
    51  C   -0.236410   0.052280
    52  H    0.180182  -0.002526
    53  C   -0.240079  -0.032588
    54  H    0.163810   0.000986
    55  C   -0.310663  -0.028073
    56  H    0.175118   0.000768
    57  C   -0.365116   0.055518
    58  H    0.181622  -0.002935
    59  C   -0.272251   0.062026
    60  H    0.167249  -0.004035
    61  C   -0.310793  -0.028073
    62  H    0.175119   0.000768
    63  C   -0.256905   0.021133
    64  H    0.159575  -0.001260
    65  C   -0.084739   0.049022
    66  H    0.203833  -0.002889
    67  C   -0.137161  -0.020217
    68  H    0.169373  -0.000707
 Sum of Mulliken charges =   1.00000   1.00000

 Dipole moment (field-independent basis, Debye):
    X=             -0.0005    Y=              2.4018    Z=             -0.0008  Tot=              2.4018
 Quadrupole moment (field-independent basis, Debye-Ang):
   XX=           -222.4916   YY=           -175.0721   ZZ=           -176.3394
   XY=             -0.0013   XZ=             -1.9308   YZ=             -0.0031

 Normal termination of Gaussian 16 at Fri Nov  8 19:31:46 2024.
