 Gaussian 16, Revision A.03,
 Gaussian 16:  ES64L-G16RevA.03 25-Dec-2016

 --------------------------------------------
 #p opt UM062X/6-311+G** nosymm int=superfine
 --------------------------------------------

 -------------------
 Title Card Required
 -------------------
 Symbolic Z-matrix:
 Charge =  0 Multiplicity = 3

 SCF Done:  E(UM062X) =  -50.4691314505     A.U. after   11 cycles
 SCF Done:  E(UM062X) =  -50.4700687671     A.U. after   10 cycles
 SCF Done:  E(UM062X) =  -50.4700764966     A.U. after   10 cycles
 Optimization completed.
    -- Stationary point found.

                          Input orientation:
 ---------------------------------------------------------------------
 Center     Atomic      Atomic             Coordinates (Angstroms)
 Number     Number       Type             X           Y           Z
 ---------------------------------------------------------------------
      1          5           0       -2.128410    0.000000    0.000000
      2          5           0        2.128410    0.000000    0.000000
      3          1           0       -3.334332   -0.000082   -0.000000
      4          1           0        3.334332    0.000082    0.000000
 ---------------------------------------------------------------------

 Alpha  occ. eigenvalues --   -7.14498  -7.14498  -0.56946  -0.56828  -0.33176
 Alpha  occ. eigenvalues --   -0.31490  -0.17534
 Alpha virt. eigenvalues --   -0.10623  -0.06371  -0.05699   0.02725   0.02911
 Alpha virt. eigenvalues --    0.05539   0.06829   0.07075   0.07684   0.08067
 Alpha virt. eigenvalues --    0.11258   0.16095   0.21735   0.33118   0.39177

  Beta  occ. eigenvalues --   -7.13601  -7.13601  -0.53651  -0.53547  -0.23132
  Beta virt. eigenvalues --   -0.12567  -0.04460  -0.03939  -0.03431  -0.02865
  Beta virt. eigenvalues --    0.01935   0.02395   0.07042   0.07354   0.08010
  Beta virt. eigenvalues --    0.08126   0.08813   0.09623   0.15955   0.23093

 Mulliken charges and spin densities:
               1          2
     1  B   -0.058157   0.930505
     2  B   -0.058157   0.930505
     3  H    0.058157   0.069495
     4  H    0.058157   0.069495
 Sum of Mulliken charges =   0.00000   2.00000

 Dipole moment (field-independent basis, Debye):
    X=             -0.0000    Y=             -0.0000    Z=              0.0000  Tot=              0.0000
 Quadrupole moment (field-independent basis, Debye-Ang):
   XX=             -6.9033   YY=            -13.6827   ZZ=            -17.6605
   XY=              0.0000   XZ=              0.0000   YZ=              0.0001

 1\1\GINC-NODE01\FOpt\UM062X\6-311+G(d,p)\B2H2(3)\SZHAO\21-Apr-2025\0\\
 #p opt UM062X/6-311+G** nosymm int=superfine\\Title Card Required\\0,3
 \B,-2.12841047,0.,0.\B,2.12841047,0.,0.\H,-3.3343319843,-0.0000822877,
 -0.0000000017\H,3.3343320317,0.0000822837,0.0000000017\\Version=ES64L-
 G16RevA.03\HF=-50.4700765\S2=2.024511\S2-1=0.\S2A=2.00002\RMSD=2.159e-
 09\RMSF=4.559e-07\Dipole=0.,0.,0.\Quadrupole=4.3460001,-0.6942918,-3.6
 517083,0.0000263,0.,0.0000608\PG=C*V [C*(H1B1B1H1)]\\@

 Normal termination of Gaussian 16 at Mon Apr 21 17:27:44 2025.
