 Gaussian 16, Revision A.03,
 Gaussian 16:  ES64L-G16RevA.03 25-Dec-2016

 --------------------------------------------
 #p opt UM062X/6-311+G** nosymm int=superfine
 --------------------------------------------

 -------------------
 Title Card Required
 -------------------
 Symbolic Z-matrix:
 Charge =  0 Multiplicity = 1

 SCF Done:  E(UM062X) =  -114.102728047     A.U. after   15 cycles
 SCF Done:  E(UM062X) =  -114.104009714     A.U. after   10 cycles
 SCF Done:  E(UM062X) =  -114.104385542     A.U. after    9 cycles
 SCF Done:  E(UM062X) =  -114.104391655     A.U. after    8 cycles
 Optimization completed.
    -- Stationary point found.

                          Input orientation:
 ---------------------------------------------------------------------
 Center     Atomic      Atomic             Coordinates (Angstroms)
 Number     Number       Type             X           Y           Z
 ---------------------------------------------------------------------
      1          6           0       -1.473311    0.000000    0.000000
      2          8           0        1.473311    0.000000    0.000000
      3          1           0       -2.125059   -0.887513   -0.000013
      4          1           0       -2.125063    0.887509   -0.000013
 ---------------------------------------------------------------------

 Alpha  occ. eigenvalues --  -19.70523 -10.65892  -1.00692  -0.79301  -0.52391
 Alpha  occ. eigenvalues --   -0.39493  -0.39482  -0.34810
 Alpha virt. eigenvalues --   -0.14026  -0.11492   0.01097   0.05523   0.07328
 Alpha virt. eigenvalues --    0.07827   0.15524   0.16986   0.18438   0.21342
 Alpha virt. eigenvalues --    0.24057   0.29089   0.42407   0.45188   0.55914

  Beta  occ. eigenvalues --  -19.70523 -10.65892  -1.00692  -0.79301  -0.52391
  Beta  occ. eigenvalues --   -0.39493  -0.39482  -0.34810
  Beta virt. eigenvalues --   -0.14026  -0.11492   0.01097   0.05523   0.07328
  Beta virt. eigenvalues --    0.07827   0.15524   0.16986   0.18438   0.21342
  Beta virt. eigenvalues --    0.24057   0.29089   0.42407   0.45188   0.55914

 Mulliken charges and spin densities:
               1          2
     1  C   -0.229733   0.000000
     2  O   -0.098242  -0.000000
     3  H    0.163988  -0.000000
     4  H    0.163988  -0.000000
 Sum of Mulliken charges =  -0.00000  -0.00000

 Dipole moment (field-independent basis, Debye):
    X=             -3.9133    Y=             -0.0000    Z=             -0.0000  Tot=              3.9133
 Quadrupole moment (field-independent basis, Debye-Ang):
   XX=             -6.6281   YY=            -12.8208   ZZ=            -12.5075
   XY=              0.0000   XZ=              0.0000   YZ=             -0.0000

 Normal termination of Gaussian 16 at Mon Apr 21 18:50:41 2025.
