 Gaussian 16, Revision A.03,
 Gaussian 16:  ES64L-G16RevA.03 25-Dec-2016

 --------------------------------------------
 #p opt UM062X/6-311+G** nosymm int=superfine
 --------------------------------------------

 -------------------
 Title Card Required
 -------------------
 Symbolic Z-matrix:
 Charge =  1 Multiplicity = 2

 SCF Done:  E(UM062X) =  -76.6735379378     A.U. after   60 cycles

 Alpha  occ. eigenvalues --  -11.00719 -11.00691  -1.08156  -0.99513  -0.82264
 Alpha  occ. eigenvalues --   -0.61871  -0.59824
 Alpha virt. eigenvalues --   -0.37787  -0.35808  -0.32356  -0.14130  -0.11670
 Alpha virt. eigenvalues --   -0.10264  -0.08857  -0.08627  -0.05356  -0.05062
 Alpha virt. eigenvalues --    0.00858   0.03387   0.06520   0.23440   0.31164

  Beta  occ. eigenvalues --  -11.00458 -11.00440  -1.04598  -0.97681  -0.81251
  Beta  occ. eigenvalues --   -0.57939
  Beta virt. eigenvalues --   -0.39726  -0.34071  -0.30309  -0.29288  -0.15095
  Beta virt. eigenvalues --   -0.11993  -0.10805  -0.09225  -0.09071  -0.05358
  Beta virt. eigenvalues --   -0.05111  -0.00102   0.03478   0.06700   0.23893

 Mulliken charges and spin densities:
               1          2
     1  C    0.129093   0.522485
     2  C    0.129091   0.522484
     3  H    0.370912  -0.022485
     4  H    0.370903  -0.022484
 Sum of Mulliken charges =   1.00000   1.00000

 Dipole moment (field-independent basis, Debye):
    X=             -0.0001    Y=              0.0000    Z=             -0.0000  Tot=              0.0001
 Quadrupole moment (field-independent basis, Debye-Ang):
   XX=              4.2861   YY=            -12.9104   ZZ=            -11.0216
   XY=              0.0000   XZ=             -0.0000   YZ=             -0.4937

 Optimization completed.
    -- Stationary point found.

                          Input orientation:
 ---------------------------------------------------------------------
 Center     Atomic      Atomic             Coordinates (Angstroms)
 Number     Number       Type             X           Y           Z
 ---------------------------------------------------------------------
      1          6           0       -0.907160    0.000000    0.000000
      2          6           0        0.907160    0.000000    0.000000
      3          1           0       -2.008153    0.000000    0.000000
      4          1           0        2.008131    0.000000    0.000000
 ---------------------------------------------------------------------

 Normal termination of Gaussian 16 at Tue Dec  3 11:21:28 2024.
