 Gaussian 16, Revision A.03,
 Gaussian 16:  ES64L-G16RevA.03 25-Dec-2016

 --------------------------------------------
 #p opt UM062X/6-311+G** nosymm int=superfine
 --------------------------------------------

 -------------------
 Title Card Required
 -------------------
 Symbolic Z-matrix:
 Charge =  1 Multiplicity = 2

 SCF Done:  E(UM062X) =  -76.8994144092     A.U. after    9 cycles
 SCF Done:  E(UM062X) =  -76.9000279492     A.U. after    9 cycles
 SCF Done:  E(UM062X) =  -76.9000287682     A.U. after    6 cycles
 Optimization completed.
    -- Stationary point found.

                          Input orientation:
 ---------------------------------------------------------------------
 Center     Atomic      Atomic             Coordinates (Angstroms)
 Number     Number       Type             X           Y           Z
 ---------------------------------------------------------------------
      1          6           0       -0.608916    0.000000    0.000000
      2          6           0        0.608916    0.000000    0.000000
      3          1           0       -1.689236   -0.000000   -0.000000
      4          1           0        1.689236    0.000000   -0.000000
 ---------------------------------------------------------------------

 Alpha  occ. eigenvalues --  -10.93751 -10.93492  -1.23814  -0.96951  -0.89792
 Alpha  occ. eigenvalues --   -0.73697  -0.70923
 Alpha virt. eigenvalues --   -0.26669  -0.24671  -0.15222  -0.14526  -0.11607
 Alpha virt. eigenvalues --   -0.10427  -0.10170  -0.05799  -0.04690  -0.04233
 Alpha virt. eigenvalues --    0.02299   0.04560   0.16370   0.18474   0.28935

  Beta  occ. eigenvalues --  -10.93497 -10.93264  -1.18931  -0.95372  -0.89227
  Beta  occ. eigenvalues --   -0.68398
  Beta virt. eigenvalues --   -0.46745  -0.23100  -0.20486  -0.15638  -0.14425
  Beta virt. eigenvalues --   -0.11701  -0.10688  -0.10367  -0.05261  -0.04043
  Beta virt. eigenvalues --   -0.03379   0.02121   0.04821   0.16894   0.19290

 Mulliken charges and spin densities:
               1          2
     1  C    0.195243   0.519345
     2  C    0.195244   0.519345
     3  H    0.304757  -0.019345
     4  H    0.304757  -0.019345
 Sum of Mulliken charges =   1.00000   1.00000

 Dipole moment (field-independent basis, Debye):
    X=              0.0000    Y=             -0.0000    Z=             -0.0000  Tot=              0.0000
 Quadrupole moment (field-independent basis, Debye-Ang):
   XX=             -0.6891   YY=             -9.7406   ZZ=            -11.1263
   XY=              0.0000   XZ=             -0.0000   YZ=             -0.5603

 Normal termination of Gaussian 16 at Tue Nov 19 13:00:53 2024.
