 Gaussian 16, Revision A.03,
 Gaussian 16:  ES64L-G16RevA.03 25-Dec-2016

 --------------------------------------------
 #p opt UM062X/6-311+G** nosymm int=superfine
 --------------------------------------------

 -------------------
 Title Card Required
 -------------------
 Symbolic Z-matrix:
 Charge =  1 Multiplicity = 2

 SCF Done:  E(UM062X) =  -582.126416930     A.U. after   11 cycles
 SCF Done:  E(UM062X) =  -582.127256703     A.U. after    9 cycles
 SCF Done:  E(UM062X) =  -582.127680352     A.U. after   10 cycles
 SCF Done:  E(UM062X) =  -582.127683552     A.U. after    9 cycles
 Optimization completed.
    -- Stationary point found.

                          Input orientation:
 ---------------------------------------------------------------------
 Center     Atomic      Atomic             Coordinates (Angstroms)
 Number     Number       Type             X           Y           Z
 ---------------------------------------------------------------------
      1         14           0       -2.876292    0.000000    0.000000
      2         14           0        2.876292    0.000000    0.000000
      3          1           0        2.959125   -1.461461   -0.000032
      4          1           0       -2.958376   -0.730581    1.265791
      5          1           0        2.958932    0.730777   -1.265642
      6          1           0        2.958143    0.730663    1.265759
      7          1           0       -2.959152    1.461459   -0.000163
      8          1           0       -2.958671   -0.730862   -1.265610
 ---------------------------------------------------------------------

 Alpha  occ. eigenvalues --  -67.21196 -67.21196  -5.76069  -5.76069  -4.07771
 Alpha  occ. eigenvalues --   -4.07771  -4.06948  -4.06948  -4.06947  -4.06947
 Alpha  occ. eigenvalues --   -0.79870  -0.79741  -0.60381  -0.60380  -0.60369
 Alpha  occ. eigenvalues --   -0.60368  -0.37132
 Alpha virt. eigenvalues --   -0.30664  -0.11109  -0.11106  -0.09438  -0.08475
 Alpha virt. eigenvalues --   -0.08474  -0.07433  -0.07433  -0.07345  -0.06590
 Alpha virt. eigenvalues --   -0.06590  -0.05792  -0.05791  -0.04907  -0.00320

  Beta  occ. eigenvalues --  -67.20904 -67.20904  -5.75981  -5.75981  -4.07085
  Beta  occ. eigenvalues --   -4.07085  -4.06846  -4.06846  -4.06846  -4.06846
  Beta  occ. eigenvalues --   -0.78122  -0.78095  -0.60314  -0.60314  -0.60304
  Beta  occ. eigenvalues --   -0.60303
  Beta virt. eigenvalues --   -0.27336  -0.23671  -0.14701  -0.10246  -0.09929
  Beta virt. eigenvalues --   -0.09926  -0.09408  -0.08065  -0.08064  -0.07462
  Beta virt. eigenvalues --   -0.05940  -0.05940  -0.05191  -0.05190  -0.04906

 Mulliken charges and spin densities:
               1          2
     1  Si   0.529121   0.571551
     2  Si   0.529121   0.571551
     3  H   -0.009705  -0.023852
     4  H   -0.009709  -0.023849
     5  H   -0.009703  -0.023850
     6  H   -0.009713  -0.023849
     7  H   -0.009705  -0.023852
     8  H   -0.009707  -0.023850
 Sum of Mulliken charges =   1.00000   1.00000

 Dipole moment (field-independent basis, Debye):
    X=             -0.0000    Y=             -0.0000    Z=              0.0000  Tot=              0.0000
 Quadrupole moment (field-independent basis, Debye-Ang):
   XX=             18.0003   YY=            -26.2382   ZZ=            -26.2379
   XY=              0.0007   XZ=              0.0000   YZ=             -0.0000

 Normal termination of Gaussian 16 at Mon Apr 21 20:18:32 2025.
