 Gaussian 16, Revision A.03,
 Gaussian 16:  ES64L-G16RevA.03 25-Dec-2016

 --------------------------------------------
 #p opt UM062X/6-311+G** nosymm int=superfine
 --------------------------------------------

 -------------------
 Title Card Required
 -------------------
 Symbolic Z-matrix:
 Charge =  0 Multiplicity = 1

 SCF Done:  E(UM062X) =  -684.899189609     A.U. after   11 cycles
 SCF Done:  E(UM062X) =  -684.899612409     A.U. after   10 cycles
 SCF Done:  E(UM062X) =  -684.899743050     A.U. after   11 cycles
 SCF Done:  E(UM062X) =  -684.900079711     A.U. after   12 cycles
 SCF Done:  E(UM062X) =  -684.900342032     A.U. after   13 cycles
 SCF Done:  E(UM062X) =  -684.900391674     A.U. after   10 cycles
 SCF Done:  E(UM062X) =  -684.900412834     A.U. after   11 cycles
 SCF Done:  E(UM062X) =  -684.900420083     A.U. after   10 cycles
 SCF Done:  E(UM062X) =  -684.900409361     A.U. after   11 cycles
 SCF Done:  E(UM062X) =  -684.900444365     A.U. after   10 cycles
 SCF Done:  E(UM062X) =  -684.900566237     A.U. after   14 cycles
 SCF Done:  E(UM062X) =  -684.900569219     A.U. after   12 cycles
 SCF Done:  E(UM062X) =  -684.900578782     A.U. after   12 cycles
 SCF Done:  E(UM062X) =  -684.900596374     A.U. after   12 cycles
 SCF Done:  E(UM062X) =  -684.900598950     A.U. after   12 cycles
 SCF Done:  E(UM062X) =  -684.897625488     A.U. after   15 cycles
 SCF Done:  E(UM062X) =  -684.900585962     A.U. after   12 cycles
 SCF Done:  E(UM062X) =  -684.900600683     A.U. after    7 cycles
 SCF Done:  E(UM062X) =  -684.900601358     A.U. after   11 cycles
 SCF Done:  E(UM062X) =  -684.900601529     A.U. after    9 cycles
 Optimization completed.
    -- Stationary point found.

                          Input orientation:
 ---------------------------------------------------------------------
 Center     Atomic      Atomic             Coordinates (Angstroms)
 Number     Number       Type             X           Y           Z
 ---------------------------------------------------------------------
      1         15           0       -2.592217    0.000000    0.000000
      2         15           0        2.592217    0.000000    0.000000
      3          1           0        2.477059   -0.851185    1.129416
      4          1           0       -2.484166    0.933259    1.063547
      5          1           0        2.473893   -1.095216   -0.894413
      6          1           0       -2.479025    1.026755   -0.972632
 ---------------------------------------------------------------------

 Alpha  occ. eigenvalues --  -78.04856 -78.04855  -6.87292  -6.87291  -4.98832
 Alpha  occ. eigenvalues --   -4.98831  -4.98718  -4.98717  -4.98536  -4.98535
 Alpha  occ. eigenvalues --   -0.71153  -0.71000  -0.45131  -0.45095  -0.36257
 Alpha  occ. eigenvalues --   -0.36227  -0.23200
 Alpha virt. eigenvalues --   -0.16340   0.01453   0.02789   0.03186   0.04000
 Alpha virt. eigenvalues --    0.04810   0.05761   0.05949   0.05995   0.06065
 Alpha virt. eigenvalues --    0.07801   0.12191   0.17888   0.29375   0.30012

  Beta  occ. eigenvalues --  -78.04856 -78.04855  -6.87292  -6.87291  -4.98832
  Beta  occ. eigenvalues --   -4.98831  -4.98718  -4.98717  -4.98536  -4.98535
  Beta  occ. eigenvalues --   -0.71153  -0.71000  -0.45131  -0.45095  -0.36257
  Beta  occ. eigenvalues --   -0.36227  -0.23200
  Beta virt. eigenvalues --   -0.16340   0.01453   0.02789   0.03186   0.04000
  Beta virt. eigenvalues --    0.04810   0.05761   0.05949   0.05995   0.06065
  Beta virt. eigenvalues --    0.07801   0.12191   0.17888   0.29375   0.30012

 Mulliken charges and spin densities:
               1          2
     1  P    0.015248  -0.000001
     2  P    0.015701   0.000001
     3  H   -0.008044  -0.000000
     4  H   -0.008061   0.000000
     5  H   -0.007415  -0.000000
     6  H   -0.007429   0.000000
 Sum of Mulliken charges =  -0.00000   0.00000

 Dipole moment (field-independent basis, Debye):
    X=             -0.0035    Y=              0.0048    Z=              0.1491  Tot=              0.1492
 Quadrupole moment (field-independent basis, Debye-Ang):
   XX=            -29.5935   YY=            -31.2305   ZZ=            -28.5267
   XY=             -4.9699   XZ=              0.1832   YZ=              0.1001

 Normal termination of Gaussian 16 at Mon Apr 21 21:02:30 2025.
