 Gaussian 16, Revision A.03,
 Gaussian 16:  ES64L-G16RevA.03 25-Dec-2016

 --------------------------------------------
 #p opt UM062X/6-311+G** nosymm int=superfine
 --------------------------------------------

 -------------------
 Title Card Required
 -------------------
 Symbolic Z-matrix:
 Charge =  0 Multiplicity = 1

 SCF Done:  E(UM062X) =  -151.374535111     A.U. after   15 cycles
 SCF Done:  E(UM062X) =  -151.378391691     A.U. after   18 cycles
 SCF Done:  E(UM062X) =  -151.381958191     A.U. after   19 cycles
 SCF Done:  E(UM062X) =  -151.382094441     A.U. after   20 cycles
 SCF Done:  E(UM062X) =  -151.382127740     A.U. after   18 cycles
 SCF Done:  E(UM062X) =  -151.382127889     A.U. after   11 cycles
 Optimization completed.
    -- Stationary point found.

                          Input orientation:
 ---------------------------------------------------------------------
 Center     Atomic      Atomic             Coordinates (Angstroms)
 Number     Number       Type             X           Y           Z
 ---------------------------------------------------------------------
      1          8           0       -1.261938    0.000000    0.000000
      2          8           0        1.261938    0.000000    0.000000
      3          1           0       -1.124888   -0.776042   -0.571619
      4          1           0        1.124886    0.775647    0.572155
 ---------------------------------------------------------------------

 Alpha  occ. eigenvalues --  -19.72711 -19.72708  -1.13689  -1.11800  -0.57330
 Alpha  occ. eigenvalues --   -0.55919  -0.44723  -0.43221  -0.40706
 Alpha virt. eigenvalues --   -0.22105   0.05538   0.09111   0.14700   0.15615
 Alpha virt. eigenvalues --    0.17609   0.19390   0.21270   0.22411   0.25085
 Alpha virt. eigenvalues --    0.32819   0.49003   0.53211   0.92428   0.98139

  Beta  occ. eigenvalues --  -19.72711 -19.72708  -1.13689  -1.11800  -0.57330
  Beta  occ. eigenvalues --   -0.55919  -0.44723  -0.43221  -0.40706
  Beta virt. eigenvalues --   -0.22105   0.05538   0.09111   0.14700   0.15615
  Beta virt. eigenvalues --    0.17609   0.19390   0.21270   0.22411   0.25085
  Beta virt. eigenvalues --    0.32819   0.49003   0.53211   0.92428   0.98139

 Mulliken charges and spin densities:
               1          2
     1  O   -0.271883   0.000002
     2  O   -0.271882  -0.000002
     3  H    0.271883  -0.000000
     4  H    0.271883   0.000000
 Sum of Mulliken charges =   0.00000   0.00000

 Dipole moment (field-independent basis, Debye):
    X=             -0.0000    Y=             -0.0008    Z=              0.0010  Tot=              0.0013
 Quadrupole moment (field-independent basis, Debye-Ang):
   XX=            -12.1209   YY=            -10.3465   ZZ=            -11.8706
   XY=              3.6217   XZ=              2.6696   YZ=              2.4600

 Normal termination of Gaussian 16 at Mon Apr 21 21:35:16 2025.
