 Gaussian 16, Revision A.03,
 Gaussian 16:  ES64L-G16RevA.03 25-Dec-2016

 --------------------------------------------
 #p opt UM062X/6-311+G** nosymm int=superfine
 --------------------------------------------

 -------------------
 Title Card Required
 -------------------
 Symbolic Z-matrix:
 Charge =  1 Multiplicity = 2

 SCF Done:  E(UM062X) =  -77.8891005229     A.U. after   11 cycles
 SCF Done:  E(UM062X) =  -77.9353494012     A.U. after   10 cycles
 SCF Done:  E(UM062X) =  -77.9676314889     A.U. after    9 cycles
 SCF Done:  E(UM062X) =  -77.9764307787     A.U. after    9 cycles
 SCF Done:  E(UM062X) =  -77.9800188274     A.U. after    9 cycles
 SCF Done:  E(UM062X) =  -77.9800290533     A.U. after    8 cycles
 Optimization completed.
    -- Stationary point found.

                          Input orientation:
 ---------------------------------------------------------------------
 Center     Atomic      Atomic             Coordinates (Angstroms)
 Number     Number       Type             X           Y           Z
 ---------------------------------------------------------------------
      1          6           0       -0.516031    0.000000    0.000000
      2          6           0        0.516031    0.000000    0.000000
      3          1           0       -1.285870   -0.831467   -0.000000
      4          1           0       -1.276758    0.842342   -0.000000
      5          1           0        1.285870    0.831467    0.000000
      6          1           0        1.276758   -0.842342    0.000000
 ---------------------------------------------------------------------

 Alpha  occ. eigenvalues --  -10.81753 -10.80740  -1.23655  -0.97125  -0.87091
 Alpha  occ. eigenvalues --   -0.86452  -0.70354  -0.66230
 Alpha virt. eigenvalues --   -0.17171  -0.16613  -0.15156  -0.13773  -0.10493
 Alpha virt. eigenvalues --   -0.08788  -0.07438  -0.06753  -0.02749  -0.02655
 Alpha virt. eigenvalues --   -0.00149   0.02496   0.13082   0.17323   0.19751

  Beta  occ. eigenvalues --  -10.81763 -10.80733  -1.22572  -0.92341  -0.84067
  Beta  occ. eigenvalues --   -0.81258  -0.70038
  Beta virt. eigenvalues --   -0.45446  -0.16911  -0.15502  -0.15046  -0.13533
  Beta virt. eigenvalues --   -0.10313  -0.08680  -0.05178  -0.04920  -0.02498
  Beta virt. eigenvalues --   -0.01896   0.00265   0.03262   0.13247   0.17211

 Mulliken charges and spin densities:
               1          2
     1  C   -0.155115   0.112440
     2  C   -0.155115   0.112440
     3  H    0.327437   0.191582
     4  H    0.327678   0.195978
     5  H    0.327437   0.191582
     6  H    0.327678   0.195978
 Sum of Mulliken charges =   1.00000   1.00000

 Dipole moment (field-independent basis, Debye):
    X=              0.0000    Y=             -0.0000    Z=             -0.0000  Tot=              0.0000
 Quadrupole moment (field-independent basis, Debye-Ang):
   XX=             -2.4193   YY=             -7.4463   ZZ=            -12.5940
   XY=             -0.0267   XZ=              0.0000   YZ=             -0.0000

 Normal termination of Gaussian 16 at Tue Nov 19 10:47:22 2024.
