 Gaussian 16, Revision A.03,
 Gaussian 16:  ES64L-G16RevA.03 25-Dec-2016

 --------------------------------------------
 #p opt UM062X/6-311+G** nosymm int=superfine
 --------------------------------------------

 -------------------
 Title Card Required
 -------------------
 Symbolic Z-matrix:
 Charge =  1 Multiplicity = 2

 SCF Done:  E(UM062X) =  -1615.55051114     A.U. after   22 cycles
 SCF Done:  E(UM062X) =  -1615.58162253     A.U. after   20 cycles
 SCF Done:  E(UM062X) =  -1615.58643851     A.U. after   20 cycles
 SCF Done:  E(UM062X) =  -1615.58567246     A.U. after   20 cycles
 SCF Done:  E(UM062X) =  -1615.58303083     A.U. after   22 cycles
 SCF Done:  E(UM062X) =  -1615.58014765     A.U. after   21 cycles
 SCF Done:  E(UM062X) =  -1615.58644776     A.U. after   14 cycles
 SCF Done:  E(UM062X) =  -1615.58607990     A.U. after   21 cycles
 SCF Done:  E(UM062X) =  -1615.58602589     A.U. after   21 cycles
 SCF Done:  E(UM062X) =  -1615.58530646     A.U. after   21 cycles
 SCF Done:  E(UM062X) =  -1615.58664469     A.U. after   14 cycles
 SCF Done:  E(UM062X) =  -1615.58712599     A.U. after   19 cycles
 SCF Done:  E(UM062X) =  -1615.58697045     A.U. after   19 cycles
 SCF Done:  E(UM062X) =  -1615.58716480     A.U. after   19 cycles
 SCF Done:  E(UM062X) =  -1615.58717317     A.U. after   15 cycles
 SCF Done:  E(UM062X) =  -1615.58717342     A.U. after   14 cycles
 SCF Done:  E(UM062X) =  -1615.58717348     A.U. after   12 cycles
 Optimization completed.
    -- Stationary point found.

                          Input orientation:
 ---------------------------------------------------------------------
 Center     Atomic      Atomic             Coordinates (Angstroms)
 Number     Number       Type             X           Y           Z
 ---------------------------------------------------------------------
      1          6           0       -1.355321    0.000000   -0.000000
      2          6           0        1.355321    0.000000   -0.000000
      3          6           0        0.000014   -2.126227   -0.000053
      4          6           0        0.000016   -3.510093   -0.000075
      5          6           0       -1.133134   -4.315777    0.246824
      6          6           0       -1.249016   -1.479927    0.224653
      7          6           0        0.661458   -5.711014   -0.146025
      8          1           0        1.280447   -6.585646   -0.286214
      9          6           0       -1.528738    0.808597    1.186428
     10          6           0       -0.661418   -5.711019    0.145820
     11          1           0       -1.280403   -6.585656    0.285990
     12          6           0        1.133169   -4.315768   -0.246991
     13          6           0        1.249037   -1.479907   -0.224774
     14          6           0        1.706537    2.228108   -1.239248
     15          6           0       -1.540313    0.349218   -1.393578
     16          6           0       -1.884496    2.851816    2.489291
     17          1           0       -2.032170    3.925428    2.504758
     18          6           0       -2.321468   -3.679758    0.513318
     19          1           0       -3.233988   -4.227662    0.718642
     20          6           0       -1.581991    1.672085   -1.941101
     21          6           0        2.361082   -2.255275   -0.489631
     22          1           0        3.314382   -1.761190   -0.646802
     23          6           0        1.540437    0.348912    1.393608
     24          6           0        1.582191    1.671635    1.941452
     25          6           0        2.321499   -3.679735   -0.513467
     26          1           0        3.234023   -4.227626   -0.718806
     27          6           0       -1.706597    2.227845    1.239719
     28          6           0       -1.480934    0.132206    2.438326
     29          1           0       -1.305050   -0.932405    2.453586
     30          6           0        1.652033   -0.721429    2.333791
     31          1           0        1.659422   -1.741905    1.983103
     32          6           0       -1.876217    2.151095    3.676573
     33          1           0       -2.024803    2.666803    4.617500
     34          6           0       -2.361056   -2.255297    0.489527
     35          1           0       -3.314353   -1.761214    0.646718
     36          6           0       -1.673979    1.839810   -3.338491
     37          1           0       -1.684430    2.851289   -3.727640
     38          6           0        1.528766    0.808831   -1.186278
     39          6           0       -1.665001    3.136060    0.123480
     40          1           0       -1.709681    4.182507    0.409321
     41          6           0       -1.778936    0.778638   -4.207568
     42          1           0       -1.869921    0.949732   -5.273309
     43          6           0       -1.581389    2.904450   -1.200479
     44          1           0       -1.560337    3.791700   -1.826156
     45          6           0        1.674355    1.838983    3.338879
     46          1           0        1.684884    2.850357    3.728298
     47          6           0       -1.655011    0.772698    3.644611
     48          1           0       -1.612728    0.201044    4.563721
     49          6           0       -1.651894   -0.720863   -2.334086
     50          1           0       -1.659422   -1.741436   -1.983712
     51          6           0        1.779377    0.777568    4.207657
     52          1           0        1.870491    0.948367    5.273434
     53          6           0        1.884413    2.852375   -2.488678
     54          1           0        2.032002    3.926002   -2.503898
     55          6           0        1.785081   -0.520257    3.687412
     56          1           0        1.890200   -1.374722    4.344684
     57          6           0        1.876219    2.151922   -3.676119
     58          1           0        2.024782    2.667850   -4.616929
     59          6           0        1.664888    3.136077   -0.122804
     60          1           0        1.709432    4.182592   -0.408418
     61          6           0       -1.784784   -0.519320   -3.687669
     62          1           0       -1.889898   -1.373600   -4.345181
     63          6           0        1.581433    2.904173    1.201117
     64          1           0        1.560368    3.791282    1.826991
     65          6           0        1.481027    0.132729   -2.438333
     66          1           0        1.305177   -0.931882   -2.453859
     67          6           0        1.655111    0.773506   -3.644469
     68          1           0        1.612894    0.202053   -4.563708
 ---------------------------------------------------------------------

 Alpha  occ. eigenvalues --  -10.71073 -10.71072 -10.68575 -10.68574 -10.68561
 Alpha  occ. eigenvalues --  -10.68560 -10.68233 -10.68232 -10.68140 -10.68140
 Alpha  occ. eigenvalues --  -10.67050 -10.67049 -10.66595 -10.66595 -10.66490
 Alpha  occ. eigenvalues --  -10.66490 -10.66101 -10.65997 -10.65997 -10.65776
 Alpha  occ. eigenvalues --  -10.65776 -10.65768 -10.65767 -10.65764 -10.65763
 Alpha  occ. eigenvalues --  -10.65712 -10.65711 -10.65647 -10.65647 -10.65587
 Alpha  occ. eigenvalues --  -10.65587 -10.65553 -10.65552 -10.65489 -10.65489
 Alpha  occ. eigenvalues --  -10.65291 -10.65291 -10.64992 -10.64991 -10.63995
 Alpha  occ. eigenvalues --  -10.63897 -10.63355  -1.12391  -1.10227  -1.10173
 Alpha  occ. eigenvalues --   -1.08419  -1.07785  -1.05705  -1.04851  -1.02577
 Alpha  occ. eigenvalues --   -1.02105  -1.00878  -1.00480  -0.97950  -0.97630
 Alpha  occ. eigenvalues --   -0.96861  -0.96270  -0.95017  -0.93504  -0.93480
 Alpha  occ. eigenvalues --   -0.92826  -0.91873  -0.87419  -0.87391  -0.84984
 Alpha  occ. eigenvalues --   -0.84752  -0.83100  -0.81444  -0.81220  -0.79836
 Alpha  occ. eigenvalues --   -0.79727  -0.79530  -0.77533  -0.76403  -0.76192
 Alpha  occ. eigenvalues --   -0.75788  -0.75440  -0.73572  -0.70245  -0.69703
 Alpha  occ. eigenvalues --   -0.69066  -0.68532  -0.67748  -0.67635  -0.66950
 Alpha  occ. eigenvalues --   -0.66849  -0.65695  -0.65370  -0.65175  -0.64810
 Alpha  occ. eigenvalues --   -0.63305  -0.62930  -0.62368  -0.62165  -0.61143
 Alpha  occ. eigenvalues --   -0.61066  -0.60679  -0.60482  -0.60097  -0.60078
 Alpha  occ. eigenvalues --   -0.59586  -0.58928  -0.58799  -0.58143  -0.57820
 Alpha  occ. eigenvalues --   -0.57610  -0.56784  -0.55918  -0.55669  -0.55642
 Alpha  occ. eigenvalues --   -0.54983  -0.54005  -0.53124  -0.52841  -0.52661
 Alpha  occ. eigenvalues --   -0.52441  -0.52323  -0.52297  -0.51084  -0.50990
 Alpha  occ. eigenvalues --   -0.50978  -0.50906  -0.50243  -0.49506  -0.49344
 Alpha  occ. eigenvalues --   -0.48880  -0.48545  -0.47854  -0.44862  -0.44637
 Alpha  occ. eigenvalues --   -0.44126  -0.42836  -0.40484  -0.40427  -0.39287
 Alpha  occ. eigenvalues --   -0.38161  -0.37585  -0.37161  -0.31793
 Alpha virt. eigenvalues --   -0.20052  -0.15856  -0.15564  -0.14362  -0.10588
 Alpha virt. eigenvalues --   -0.09949  -0.08888  -0.08544  -0.08361  -0.07570
 Alpha virt. eigenvalues --   -0.07512  -0.07462  -0.06650  -0.06373  -0.06135

  Beta  occ. eigenvalues --  -10.70936 -10.70935 -10.68612 -10.68611 -10.68589
  Beta  occ. eigenvalues --  -10.68588 -10.68192 -10.68192 -10.68098 -10.68098
  Beta  occ. eigenvalues --  -10.67067 -10.67066 -10.66587 -10.66587 -10.66479
  Beta  occ. eigenvalues --  -10.66479 -10.66074 -10.65960 -10.65960 -10.65763
  Beta  occ. eigenvalues --  -10.65763 -10.65747 -10.65747 -10.65739 -10.65739
  Beta  occ. eigenvalues --  -10.65687 -10.65686 -10.65665 -10.65665 -10.65604
  Beta  occ. eigenvalues --  -10.65604 -10.65538 -10.65538 -10.65498 -10.65498
  Beta  occ. eigenvalues --  -10.65306 -10.65306 -10.64988 -10.64988 -10.63995
  Beta  occ. eigenvalues --  -10.63896 -10.63353  -1.12228  -1.10136  -1.10016
  Beta  occ. eigenvalues --   -1.08304  -1.07685  -1.05541  -1.04727  -1.02453
  Beta  occ. eigenvalues --   -1.01997  -1.00717  -1.00306  -0.97849  -0.97538
  Beta  occ. eigenvalues --   -0.96741  -0.96167  -0.94967  -0.93441  -0.93383
  Beta  occ. eigenvalues --   -0.92742  -0.91785  -0.87108  -0.87059  -0.84914
  Beta  occ. eigenvalues --   -0.84689  -0.83021  -0.81352  -0.81105  -0.79752
  Beta  occ. eigenvalues --   -0.79657  -0.79459  -0.77418  -0.76246  -0.76044
  Beta  occ. eigenvalues --   -0.75624  -0.75404  -0.73448  -0.70130  -0.69557
  Beta  occ. eigenvalues --   -0.68928  -0.68425  -0.67692  -0.67585  -0.66827
  Beta  occ. eigenvalues --   -0.66748  -0.65617  -0.65229  -0.65037  -0.64708
  Beta  occ. eigenvalues --   -0.63064  -0.62886  -0.62287  -0.62083  -0.60928
  Beta  occ. eigenvalues --   -0.60797  -0.60529  -0.60351  -0.60037  -0.60026
  Beta  occ. eigenvalues --   -0.59462  -0.58790  -0.58716  -0.58067  -0.57588
  Beta  occ. eigenvalues --   -0.57366  -0.56603  -0.55616  -0.55588  -0.55568
  Beta  occ. eigenvalues --   -0.54964  -0.53672  -0.53006  -0.52755  -0.52582
  Beta  occ. eigenvalues --   -0.52383  -0.52215  -0.52215  -0.50957  -0.50921
  Beta  occ. eigenvalues --   -0.50819  -0.50487  -0.49582  -0.49233  -0.48919
  Beta  occ. eigenvalues --   -0.48671  -0.48489  -0.47524  -0.44345  -0.44099
  Beta  occ. eigenvalues --   -0.43395  -0.42495  -0.40361  -0.40078  -0.38678
  Beta  occ. eigenvalues --   -0.37975  -0.37348  -0.37021
  Beta virt. eigenvalues --   -0.21914  -0.17670  -0.15614  -0.15509  -0.14400
  Beta virt. eigenvalues --   -0.10331  -0.09554  -0.08516  -0.08419  -0.08219
  Beta virt. eigenvalues --   -0.07572  -0.07572  -0.07212  -0.06630  -0.06316

 Mulliken charges and spin densities:
               1          2
     1  C    0.015303   0.329459
     2  C    0.015303   0.329467
     3  C    0.240925   0.006681
     4  C    0.108700   0.000406
     5  C    0.113619   0.005074
     6  C   -0.005942  -0.030989
     7  C   -0.308535   0.001152
     8  H    0.176296  -0.000047
     9  C    0.227934  -0.046112
    10  C   -0.308598   0.001149
    11  H    0.176297  -0.000047
    12  C    0.113623   0.005072
    13  C   -0.005949  -0.030975
    14  C    0.311737   0.047751
    15  C    0.321514  -0.056623
    16  C   -0.260999  -0.033948
    17  H    0.163890   0.001052
    18  C   -0.451429  -0.000390
    19  H    0.175859   0.000307
    20  C    0.221028   0.100165
    21  C   -0.133658   0.016403
    22  H    0.174419  -0.000218
    23  C    0.321459  -0.056615
    24  C    0.220983   0.100178
    25  C   -0.451359  -0.000387
    26  H    0.175857   0.000307
    27  C    0.311947   0.047766
    28  C   -0.064309   0.063932
    29  H    0.205983  -0.003559
    30  C   -0.294129   0.033263
    31  H    0.226472  -0.002105
    32  C   -0.384904   0.056945
    33  H    0.181952  -0.003058
    34  C   -0.133590   0.016401
    35  H    0.174415  -0.000218
    36  C   -0.041086  -0.052470
    37  H    0.161783   0.001465
    38  C    0.227925  -0.046098
    39  C   -0.290141   0.060097
    40  H    0.166548  -0.003661
    41  C   -0.227192   0.059747
    42  H    0.180464  -0.002951
    43  C   -0.291688   0.016481
    44  H    0.159678  -0.000887
    45  C   -0.041162  -0.052483
    46  H    0.161790   0.001465
    47  C   -0.115499  -0.028127
    48  H    0.168920  -0.000346
    49  C   -0.294363   0.033258
    50  H    0.226457  -0.002105
    51  C   -0.227272   0.059741
    52  H    0.180465  -0.002950
    53  C   -0.261120  -0.033941
    54  H    0.163896   0.001052
    55  C   -0.333835  -0.032372
    56  H    0.175236   0.001016
    57  C   -0.384991   0.056926
    58  H    0.181952  -0.003057
    59  C   -0.289902   0.060105
    60  H    0.166542  -0.003662
    61  C   -0.333975  -0.032372
    62  H    0.175240   0.001016
    63  C   -0.291465   0.016463
    64  H    0.159674  -0.000886
    65  C   -0.064371   0.063926
    66  H    0.205953  -0.003558
    67  C   -0.115501  -0.028123
    68  H    0.168925  -0.000346
 Sum of Mulliken charges =   1.00000   1.00000

 Dipole moment (field-independent basis, Debye):
    X=              0.0002    Y=              2.4137    Z=              0.0005  Tot=              2.4137
 Quadrupole moment (field-independent basis, Debye-Ang):
   XX=           -222.5486   YY=           -175.0804   ZZ=           -176.2129
   XY=             -0.0008   XZ=             -1.6437   YZ=             -0.0027

 Normal termination of Gaussian 16 at Fri Nov  8 22:43:20 2024.
