 Gaussian 16, Revision A.03,
 Gaussian 16:  ES64L-G16RevA.03 25-Dec-2016

 --------------------------------------------
 #p opt UM062X/6-311+G** nosymm int=superfine
 --------------------------------------------

 -------------------
 Title Card Required
 -------------------
 Symbolic Z-matrix:
 Charge =  0 Multiplicity = 1

 SCF Done:  E(UM062X) =  -151.482178671     A.U. after   13 cycles
 SCF Done:  E(UM062X) =  -151.486817316     A.U. after   15 cycles
 SCF Done:  E(UM062X) =  -151.487242611     A.U. after   13 cycles
 SCF Done:  E(UM062X) =  -151.487277126     A.U. after   12 cycles
 SCF Done:  E(UM062X) =  -151.487277333     A.U. after   10 cycles
 Optimization completed.
    -- Stationary point found.

                          Input orientation:
 ---------------------------------------------------------------------
 Center     Atomic      Atomic             Coordinates (Angstroms)
 Number     Number       Type             X           Y           Z
 ---------------------------------------------------------------------
      1          8           0       -0.911938    0.000000    0.000000
      2          8           0        0.911938    0.000000    0.000000
      3          1           0       -0.930147   -0.911441   -0.328618
      4          1           0        0.930090    0.624277    0.740936
 ---------------------------------------------------------------------

 Alpha  occ. eigenvalues --  -19.71389 -19.71382  -1.17588  -1.07752  -0.58460
 Alpha  occ. eigenvalues --   -0.55168  -0.47136  -0.45527  -0.40231
 Alpha virt. eigenvalues --   -0.10126   0.05672   0.10129   0.15086   0.16414
 Alpha virt. eigenvalues --    0.17764   0.20142   0.21729   0.22501   0.25741
 Alpha virt. eigenvalues --    0.33468   0.49413   0.53507   0.94793   0.99260

  Beta  occ. eigenvalues --  -19.71389 -19.71382  -1.17588  -1.07752  -0.58460
  Beta  occ. eigenvalues --   -0.55168  -0.47136  -0.45527  -0.40231
  Beta virt. eigenvalues --   -0.10126   0.05672   0.10129   0.15086   0.16414
  Beta virt. eigenvalues --    0.17764   0.20142   0.21729   0.22501   0.25741
  Beta virt. eigenvalues --    0.33468   0.49413   0.53507   0.94793   0.99260

 Mulliken charges and spin densities:
               1          2
     1  O   -0.273161  -0.000000
     2  O   -0.273149   0.000000
     3  H    0.273156   0.000000
     4  H    0.273154  -0.000000
 Sum of Mulliken charges =  -0.00000  -0.00000

 Dipole moment (field-independent basis, Debye):
    X=             -0.0001    Y=             -0.5391    Z=              0.7741  Tot=              0.9433
 Quadrupole moment (field-independent basis, Debye-Ang):
   XX=            -11.7844   YY=            -10.1075   ZZ=            -11.6661
   XY=              3.0418   XZ=              2.1184   YZ=              2.1078

 Normal termination of Gaussian 16 at Mon Apr 21 21:32:11 2025.
