 Gaussian 16, Revision A.03,
 Gaussian 16:  ES64L-G16RevA.03 25-Dec-2016

 --------------------------------------------
 #p opt UM062X/6-311+G** nosymm int=superfine
 --------------------------------------------

 -------------------
 Title Card Required
 -------------------
 Symbolic Z-matrix:
 Charge =  0 Multiplicity = 1

 SCF Done:  E(UM062X) =  -76.9471191133     A.U. after   13 cycles
 SCF Done:  E(UM062X) =  -76.9481661243     A.U. after   13 cycles
 SCF Done:  E(UM062X) =  -76.9485091356     A.U. after   13 cycles
 SCF Done:  E(UM062X) =  -76.9486824749     A.U. after   12 cycles
 SCF Done:  E(UM062X) =  -76.9486828806     A.U. after   10 cycles
 SCF Done:  E(UM062X) =  -76.9486828971     A.U. after   10 cycles
 Optimization completed.
    -- Stationary point found.

                          Input orientation:
 ---------------------------------------------------------------------
 Center     Atomic      Atomic             Coordinates (Angstroms)
 Number     Number       Type             X           Y           Z
 ---------------------------------------------------------------------
      1          6           0       -1.307625    0.000000    0.000000
      2          6           0        1.307625    0.000000    0.000000
      3          1           0       -1.264767    0.218343    1.095402
      4          1           0        1.264957    0.989070   -0.518984
 ---------------------------------------------------------------------

 Alpha  occ. eigenvalues --  -10.66878 -10.66873  -0.73914  -0.70501  -0.38846
 Alpha  occ. eigenvalues --   -0.38415  -0.27579
 Alpha virt. eigenvalues --   -0.09860  -0.08895  -0.05942   0.02878   0.05730
 Alpha virt. eigenvalues --    0.07490   0.07616   0.09931   0.10003   0.10473
 Alpha virt. eigenvalues --    0.15215   0.17056   0.20403   0.44719   0.46762

  Beta  occ. eigenvalues --  -10.66878 -10.66873  -0.73914  -0.70501  -0.38846
  Beta  occ. eigenvalues --   -0.38415  -0.27579
  Beta virt. eigenvalues --   -0.09860  -0.08895  -0.05942   0.02878   0.05730
  Beta virt. eigenvalues --    0.07490   0.07616   0.09931   0.10003   0.10473
  Beta virt. eigenvalues --    0.15215   0.17056   0.20403   0.44719   0.46762

 Mulliken charges and spin densities:
               1          2
     1  C   -0.136724  -0.000000
     2  C   -0.136762   0.000000
     3  H    0.136743   0.000000
     4  H    0.136743  -0.000000
 Sum of Mulliken charges =  -0.00000   0.00000

 Dipole moment (field-independent basis, Debye):
    X=              0.0001    Y=              1.6953    Z=              0.8093  Tot=              1.8785
 Quadrupole moment (field-independent basis, Debye-Ang):
   XX=            -17.0827   YY=            -12.8838   ZZ=            -13.3627
   XY=              1.5168   XZ=             -3.1768   YZ=              0.2962

 Normal termination of Gaussian 16 at Tue Dec  3 21:45:52 2024.
