 Gaussian 16, Revision A.03,
 Gaussian 16:  ES64L-G16RevA.03 25-Dec-2016

 --------------------------------------------
 #p opt UM062X/6-311+G** nosymm int=superfine
 --------------------------------------------

 -------------------
 Title Card Required
 -------------------
 Symbolic Z-matrix:
 Charge =  0 Multiplicity = 1

 SCF Done:  E(UM062X) =  -379.568359514     A.U. after   14 cycles
 SCF Done:  E(UM062X) =  -379.569768161     A.U. after   10 cycles
 SCF Done:  E(UM062X) =  -379.569774177     A.U. after   10 cycles
 Optimization completed.
    -- Stationary point found.

                          Input orientation:
 ---------------------------------------------------------------------
 Center     Atomic      Atomic             Coordinates (Angstroms)
 Number     Number       Type             X           Y           Z
 ---------------------------------------------------------------------
      1          6           0       -1.840377    0.000000    0.000000
      2         15           0        1.840377    0.000000    0.000000
      3          1           0       -2.962838   -0.000000   -0.000000
 ---------------------------------------------------------------------

 Alpha  occ. eigenvalues --  -78.07354 -10.71938  -6.89240  -5.01145  -5.00215
 Alpha  occ. eigenvalues --   -5.00215  -0.76680  -0.60563  -0.42392  -0.23851
 Alpha  occ. eigenvalues --   -0.23851
 Alpha virt. eigenvalues --   -0.15425  -0.15425  -0.11769   0.01111   0.04086
 Alpha virt. eigenvalues --    0.05983   0.05983   0.07670   0.08520   0.08520
 Alpha virt. eigenvalues --    0.13217   0.16397   0.33249   0.33249   0.33418

  Beta  occ. eigenvalues --  -78.07354 -10.71938  -6.89240  -5.01145  -5.00215
  Beta  occ. eigenvalues --   -5.00215  -0.76680  -0.60563  -0.42392  -0.23851
  Beta  occ. eigenvalues --   -0.23851
  Beta virt. eigenvalues --   -0.15425  -0.15425  -0.11769   0.01111   0.04086
  Beta virt. eigenvalues --    0.05983   0.05983   0.07670   0.08520   0.08520
  Beta virt. eigenvalues --    0.13217   0.16397   0.33249   0.33249   0.33418

 Mulliken charges and spin densities:
               1          2
     1  C   -0.111294   0.000000
     2  P   -0.055977  -0.000000
     3  H    0.167271  -0.000000
 Sum of Mulliken charges =  -0.00000  -0.00000

 Dipole moment (field-independent basis, Debye):
    X=             -3.0822    Y=              0.0000    Z=              0.0000  Tot=              3.0822
 Quadrupole moment (field-independent basis, Debye-Ang):
   XX=            -10.1910   YY=            -24.1704   ZZ=            -24.1704
   XY=              0.0000   XZ=              0.0000   YZ=              0.0000

 Normal termination of Gaussian 16 at Mon Apr 21 19:30:05 2025.
