 Gaussian 16, Revision A.03,
 Gaussian 16:  ES64L-G16RevA.03 25-Dec-2016

 ----------------------------------------------------------------------
 #p opt UM062X/6-311+G** nosymm int=superfine SCF=(MaxCycle=200,NoVarAc
 c,noincfock) guess=read
 ----------------------------------------------------------------------

 -------------------
 Title Card Required
 -------------------
 Symbolic Z-matrix:
 Charge =  0 Multiplicity = 1

 SCF Done:  E(UM062X) =  -474.481820829     A.U. after   17 cycles
 SCF Done:  E(UM062X) =  -474.481837850     A.U. after   13 cycles
 SCF Done:  E(UM062X) =  -474.481846432     A.U. after   12 cycles
 SCF Done:  E(UM062X) =  -474.481847081     A.U. after   11 cycles
 SCF Done:  E(UM062X) =  -474.481847108     A.U. after   10 cycles
 Optimization completed.
    -- Stationary point found.

                          Input orientation:
 ---------------------------------------------------------------------
 Center     Atomic      Atomic             Coordinates (Angstroms)
 Number     Number       Type             X           Y           Z
 ---------------------------------------------------------------------
      1          8           0       -1.186007    0.000000    0.000000
      2         16           0        1.186007    0.000000    0.000000
      3          1           0       -1.250383   -0.166800    0.951667
      4          1           0        1.117214   -1.127651   -0.728624
 ---------------------------------------------------------------------

 Alpha  occ. eigenvalues --  -89.97128 -19.67325  -8.33155  -6.25372  -6.25006
 Alpha  occ. eigenvalues --   -6.24463  -1.09260  -0.82952  -0.53130  -0.49188
 Alpha  occ. eigenvalues --   -0.40709  -0.39778  -0.34605
 Alpha virt. eigenvalues --   -0.13964   0.01543   0.04127   0.04829   0.05753
 Alpha virt. eigenvalues --    0.07601   0.15305   0.19504   0.19998   0.21679
 Alpha virt. eigenvalues --    0.27137   0.31515   0.33965   0.35199   0.40508

  Beta  occ. eigenvalues --  -89.97128 -19.67325  -8.33155  -6.25372  -6.25006
  Beta  occ. eigenvalues --   -6.24463  -1.09260  -0.82952  -0.53130  -0.49188
  Beta  occ. eigenvalues --   -0.40709  -0.39778  -0.34605
  Beta virt. eigenvalues --   -0.13964   0.01543   0.04127   0.04829   0.05753
  Beta virt. eigenvalues --    0.07601   0.15305   0.19504   0.19998   0.21679
  Beta virt. eigenvalues --    0.27137   0.31515   0.33965   0.35199   0.40508

 Mulliken charges and spin densities:
               1          2
     1  O   -0.435848   0.000000
     2  S    0.076636  -0.000000
     3  H    0.251531  -0.000000
     4  H    0.107682   0.000000
 Sum of Mulliken charges =   0.00000  -0.00000

 Dipole moment (field-independent basis, Debye):
    X=              1.6965    Y=             -1.2336    Z=              1.0195  Tot=              2.3322
 Quadrupole moment (field-independent basis, Debye-Ang):
   XX=            -18.4441   YY=            -19.5379   ZZ=            -18.8450
   XY=             -0.8641   XZ=             -3.2775   YZ=              1.4515

 Normal termination of Gaussian 16 at Tue Apr 22 05:09:36 2025.
