 Gaussian 16, Revision A.03,
 Gaussian 16:  ES64L-G16RevA.03 25-Dec-2016

 ---------------------------------------------------
 #p UM062X/6-311+G** force int=superfine pop=saveNBO
 ---------------------------------------------------

 -------------------
 Title Card Required
 -------------------
 Symbolic Z-matrix:
 Charge =  0 Multiplicity = 1

                         Standard orientation:
 ---------------------------------------------------------------------
 Center     Atomic      Atomic             Coordinates (Angstroms)
 Number     Number       Type             X           Y           Z
 ---------------------------------------------------------------------
      1          8           0        0.000000    0.000000   -1.426757
      2         16           0        0.000000    0.000000    0.713379
 ---------------------------------------------------------------------

 SCF Done:  E(UM062X) =  -473.140724331     A.U. after   14 cycles

 Unable to determine electronic state:  an orbital has unidentified symmetry.
 Alpha  occ. eigenvalues --  -90.03185 -19.74981  -8.38671  -6.30764  -6.30674
 Alpha  occ. eigenvalues --   -6.29806  -1.05925  -0.80464  -0.44928  -0.43914
 Alpha  occ. eigenvalues --   -0.39449  -0.35959
 Alpha virt. eigenvalues --   -0.21323  -0.12140   0.02552   0.04671   0.05251
 Alpha virt. eigenvalues --    0.05767   0.18475   0.20385   0.20698   0.27192
 Alpha virt. eigenvalues --    0.33001   0.33420   0.33934   0.59190   0.74110

  Beta  occ. eigenvalues --  -90.03185 -19.74981  -8.38671  -6.30764  -6.30674
  Beta  occ. eigenvalues --   -6.29806  -1.05925  -0.80464  -0.44928  -0.43914
  Beta  occ. eigenvalues --   -0.39449  -0.35959
  Beta virt. eigenvalues --   -0.21323  -0.12140   0.02552   0.04671   0.05251
  Beta virt. eigenvalues --    0.05767   0.18475   0.20385   0.20698   0.27192
  Beta virt. eigenvalues --    0.33001   0.33420   0.33934   0.59190   0.74110

 Mulliken charges and spin densities:
               1          2
     1  O   -0.241399   0.000000
     2  S    0.241399  -0.000000
 Sum of Mulliken charges =   0.00000  -0.00000

 Dipole moment (field-independent basis, Debye):
    X=              0.0000    Y=              0.0000    Z=              2.5493  Tot=              2.5493
 Quadrupole moment (field-independent basis, Debye-Ang):
   XX=            -16.9484   YY=            -20.4849   ZZ=            -18.4946
   XY=              0.0000   XZ=              0.0000   YZ=              0.0000

 Summary of Natural Population Analysis:

                                       Natural Population
                Natural  -----------------------------------------------
    Atom  No    Charge         Core      Valence    Rydberg      Total
 -----------------------------------------------------------------------
      O    1   -0.18723      1.00000     3.18521    0.00203     4.18723
      S    2    0.18723      4.99998     2.80840    0.00438     7.81277
 =======================================================================
   * Total *    0.00000      5.99997     5.99362    0.00641    12.00000

 Normal termination of Gaussian 16 at Mon Apr 21 20:00:39 2025.
