 Gaussian 16, Revision A.03,
 Gaussian 16:  ES64L-G16RevA.03 25-Dec-2016

 --------------------------------------------
 #p opt UM062X/6-311+G** nosymm int=superfine
 --------------------------------------------

 -------------------
 Title Card Required
 -------------------
 Symbolic Z-matrix:
 Charge =  0 Multiplicity = 1

 SCF Done:  E(UM062X) =  -79.7003199655     A.U. after    8 cycles
 SCF Done:  E(UM062X) =  -79.7246551636     A.U. after    8 cycles
 SCF Done:  E(UM062X) =  -79.7394226955     A.U. after   10 cycles
 SCF Done:  E(UM062X) =  -79.7396014423     A.U. after    7 cycles
 Optimization completed.
    -- Stationary point found.

                          Input orientation:
 ---------------------------------------------------------------------
 Center     Atomic      Atomic             Coordinates (Angstroms)
 Number     Number       Type             X           Y           Z
 ---------------------------------------------------------------------
      1          6           0       -1.015518    0.000000    0.000000
      2          6           0        1.015621    0.000000    0.000000
      3          1           0        1.302554   -0.905801    0.524172
      4          1           0       -1.302452   -0.906826   -0.522405
      5          1           0        1.302558    0.906824    0.522404
      6          1           0        1.302622   -0.001022   -1.046513
      7          1           0       -1.302450    0.905802   -0.524171
      8          1           0       -1.302520    0.001021    1.046511
 ---------------------------------------------------------------------

 Alpha  occ. eigenvalues --  -10.54595 -10.54585  -0.79010  -0.72590  -0.48400
 Alpha  occ. eigenvalues --   -0.48399  -0.44374  -0.44373  -0.33142
 Alpha virt. eigenvalues --    0.02337   0.02568   0.05632   0.05632   0.08485
 Alpha virt. eigenvalues --    0.08485   0.09512   0.11069   0.13738   0.18199
 Alpha virt. eigenvalues --    0.18200   0.22033   0.22033   0.24298   0.26974

  Beta  occ. eigenvalues --  -10.54595 -10.54585  -0.79010  -0.72590  -0.48400
  Beta  occ. eigenvalues --   -0.48399  -0.44374  -0.44373  -0.33142
  Beta virt. eigenvalues --    0.02337   0.02568   0.05632   0.05632   0.08485
  Beta virt. eigenvalues --    0.08485   0.09512   0.11069   0.13738   0.18199
  Beta virt. eigenvalues --    0.18200   0.22033   0.22033   0.24298   0.26974

 Mulliken charges and spin densities:
               1          2
     1  C   -0.498151  -0.000000
     2  C   -0.498151   0.000000
     3  H    0.166051  -0.000000
     4  H    0.166051   0.000000
     5  H    0.166051  -0.000000
     6  H    0.166049  -0.000000
     7  H    0.166051   0.000000
     8  H    0.166049   0.000000
 Sum of Mulliken charges =  -0.00000  -0.00000

 Dipole moment (field-independent basis, Debye):
    X=             -0.0000    Y=              0.0000    Z=              0.0000  Tot=              0.0000
 Quadrupole moment (field-independent basis, Debye-Ang):
   XX=            -15.5932   YY=            -14.8770   ZZ=            -14.8768
   XY=              0.0000   XZ=             -0.0001   YZ=              0.0000

 Normal termination of Gaussian 16 at Tue Nov 19 12:06:42 2024.
