 Gaussian 16, Revision A.03,
 Gaussian 16:  ES64L-G16RevA.03 25-Dec-2016

 ---------------------------------------------------
 #p UM062X/6-311+G** force int=superfine pop=saveNBO
 ---------------------------------------------------

 -------------------
 Title Card Required
 -------------------
 Symbolic Z-matrix:
 Charge =  0 Multiplicity = 1

                         Standard orientation:
 ---------------------------------------------------------------------
 Center     Atomic      Atomic             Coordinates (Angstroms)
 Number     Number       Type             X           Y           Z
 ---------------------------------------------------------------------
      1          8           0        0.000000    0.000000    1.493562
      2          8           0        0.000000    0.000000   -1.493562
 ---------------------------------------------------------------------

 SCF Done:  E(UM062X) =  -149.814896756     A.U. after    9 cycles

 Unable to determine electronic state:  partially filled degenerate orbitals.
 Alpha  occ. eigenvalues --  -19.82965 -19.82962  -1.10685  -1.09871  -0.48911
 Alpha  occ. eigenvalues --   -0.48430  -0.41801  -0.40493
 Alpha virt. eigenvalues --   -0.30601  -0.29017   0.09707   0.12651   0.14470
 Alpha virt. eigenvalues --    0.14511   0.19726   0.19943   0.19985   0.29516
 Alpha virt. eigenvalues --    0.96912   0.99625   1.00854   1.01691   1.03011

  Beta  occ. eigenvalues --  -19.82965 -19.82962  -1.10685  -1.09871  -0.48911
  Beta  occ. eigenvalues --   -0.48430  -0.41801  -0.40493
  Beta virt. eigenvalues --   -0.30601  -0.29017   0.09707   0.12651   0.14470
  Beta virt. eigenvalues --    0.14511   0.19726   0.19943   0.19985   0.29516
  Beta virt. eigenvalues --    0.96912   0.99625   1.00854   1.01691   1.03011

 Mulliken charges and spin densities:
               1          2
     1  O   -0.000000  -0.000000
     2  O   -0.000000  -0.000000
 Sum of Mulliken charges =  -0.00000  -0.00000

 Dipole moment (field-independent basis, Debye):
    X=             -0.0000    Y=              0.0000    Z=             -0.0000  Tot=              0.0000
 Quadrupole moment (field-independent basis, Debye-Ang):
   XX=            -10.1904   YY=            -12.0214   ZZ=             -9.1515
   XY=              0.0000   XZ=             -0.0000   YZ=              0.0000

 Summary of Natural Population Analysis:

                                       Natural Population
                Natural  -----------------------------------------------
    Atom  No    Charge         Core      Valence    Rydberg      Total
 -----------------------------------------------------------------------
      O    1   -0.00000      1.00000     2.99909    0.00091     4.00000
      O    2   -0.00000      1.00000     2.99909    0.00091     4.00000
 =======================================================================
   * Total *   -0.00000      2.00000     5.99818    0.00182     8.00000

 Normal termination of Gaussian 16 at Mon Apr 21 19:54:09 2025.
