 Gaussian 16, Revision A.03,
 Gaussian 16:  ES64L-G16RevA.03 25-Dec-2016

 --------------------------------------------
 #p opt UM062X/6-311+G** nosymm int=superfine
 --------------------------------------------

 -------------------
 Title Card Required
 -------------------
 Symbolic Z-matrix:
 Charge =  0 Multiplicity = 1

 SCF Done:  E(UM062X) =  -797.425966051     A.U. after   13 cycles
 SCF Done:  E(UM062X) =  -797.426736541     A.U. after   12 cycles
 SCF Done:  E(UM062X) =  -797.427773446     A.U. after   14 cycles
 SCF Done:  E(UM062X) =  -797.427786271     A.U. after   12 cycles
 SCF Done:  E(UM062X) =  -797.427780796     A.U. after   14 cycles
 SCF Done:  E(UM062X) =  -797.427792572     A.U. after   12 cycles
 SCF Done:  E(UM062X) =  -797.427792601     A.U. after   13 cycles
 SCF Done:  E(UM062X) =  -797.427792379     A.U. after   13 cycles
 SCF Done:  E(UM062X) =  -797.427792788     A.U. after   21 cycles
 Optimization completed.
    -- Stationary point found.

                          Input orientation:
 ---------------------------------------------------------------------
 Center     Atomic      Atomic             Coordinates (Angstroms)
 Number     Number       Type             X           Y           Z
 ---------------------------------------------------------------------
      1         16           0       -1.768191    0.000000    0.000000
      2         16           0        1.768191    0.000000    0.000000
      3          1           0       -1.673834   -1.329589   -0.189213
      4          1           0        1.673889    0.221332    1.324594
 ---------------------------------------------------------------------

 Alpha  occ. eigenvalues --  -89.94773 -89.94773  -8.30948  -8.30948  -6.23107
 Alpha  occ. eigenvalues --   -6.23106  -6.22839  -6.22839  -6.22277  -6.22277
 Alpha  occ. eigenvalues --   -0.81862  -0.80850  -0.47381  -0.47330  -0.33566
 Alpha  occ. eigenvalues --   -0.33230  -0.33034
 Alpha virt. eigenvalues --   -0.19602   0.01957   0.03102   0.04520   0.04973
 Alpha virt. eigenvalues --    0.06401   0.07063   0.07326   0.07466   0.10416
 Alpha virt. eigenvalues --    0.13093   0.30501   0.31188   0.33473   0.34266

  Beta  occ. eigenvalues --  -89.94773 -89.94773  -8.30948  -8.30948  -6.23107
  Beta  occ. eigenvalues --   -6.23106  -6.22839  -6.22839  -6.22277  -6.22277
  Beta  occ. eigenvalues --   -0.81862  -0.80850  -0.47381  -0.47330  -0.33566
  Beta  occ. eigenvalues --   -0.33230  -0.33034
  Beta virt. eigenvalues --   -0.19602   0.01957   0.03102   0.04520   0.04973
  Beta virt. eigenvalues --    0.06401   0.07063   0.07326   0.07466   0.10416
  Beta virt. eigenvalues --    0.13093   0.30501   0.31188   0.33473   0.34266

 Mulliken charges and spin densities:
               1          2
     1  S   -0.086236  -0.000000
     2  S   -0.086248   0.000000
     3  H    0.086244   0.000000
     4  H    0.086239   0.000000
 Sum of Mulliken charges =  -0.00000  -0.00000

 Dipole moment (field-independent basis, Debye):
    X=             -0.0001    Y=             -0.9064    Z=              0.9285  Tot=              1.2976
 Quadrupole moment (field-independent basis, Debye-Ang):
   XX=            -25.0851   YY=            -28.0327   ZZ=            -28.0923
   XY=              2.3315   XZ=              2.2759   YZ=              1.2311

 Normal termination of Gaussian 16 at Mon Apr 21 21:13:25 2025.
