 Gaussian 16, Revision A.03,
 Gaussian 16:  ES64L-G16RevA.03 25-Dec-2016

 --------------------------------------------
 #p opt UM062X/6-311+G** nosymm int=superfine
 --------------------------------------------

 -------------------
 Title Card Required
 -------------------
 Symbolic Z-matrix:
 Charge =  0 Multiplicity = 1

 SCF Done:  E(UM062X) =  -78.2002009253     A.U. after    9 cycles
 SCF Done:  E(UM062X) =  -78.2171520611     A.U. after    9 cycles
 SCF Done:  E(UM062X) =  -78.2325971712     A.U. after    8 cycles
 SCF Done:  E(UM062X) =  -78.2329473980     A.U. after    8 cycles
 SCF Done:  E(UM062X) =  -78.2329488344     A.U. after    7 cycles
 Optimization completed.
    -- Stationary point found.

                          Input orientation:
 ---------------------------------------------------------------------
 Center     Atomic      Atomic             Coordinates (Angstroms)
 Number     Number       Type             X           Y           Z
 ---------------------------------------------------------------------
      1          6           0       -1.960595    0.000000    0.000000
      2          6           0        1.960595    0.000000    0.000000
      3          1           0       -2.667019   -0.858233    0.000000
      4          1           0       -2.666987    0.858261    0.000000
      5          1           0        2.667019    0.858233   -0.000000
      6          1           0        2.666987   -0.858261   -0.000000
 ---------------------------------------------------------------------

 Alpha  occ. eigenvalues --  -10.59422 -10.59422  -0.74430  -0.74382  -0.46129
 Alpha  occ. eigenvalues --   -0.46085  -0.30790  -0.28945
 Alpha virt. eigenvalues --   -0.07227  -0.06731   0.02523   0.03220   0.06616
 Alpha virt. eigenvalues --    0.08622   0.08708   0.10411   0.12373   0.15462
 Alpha virt. eigenvalues --    0.17542   0.19946   0.20821   0.21978   0.45546

  Beta  occ. eigenvalues --  -10.59422 -10.59422  -0.74430  -0.74382  -0.46129
  Beta  occ. eigenvalues --   -0.46085  -0.30790  -0.28945
  Beta virt. eigenvalues --   -0.07227  -0.06731   0.02523   0.03220   0.06616
  Beta virt. eigenvalues --    0.08622   0.08708   0.10411   0.12373   0.15462
  Beta virt. eigenvalues --    0.17542   0.19946   0.20821   0.21978   0.45546

 Mulliken charges and spin densities:
               1          2
     1  C   -0.238197   0.000000
     2  C   -0.238197  -0.000000
     3  H    0.119099  -0.000000
     4  H    0.119098  -0.000000
     5  H    0.119099   0.000000
     6  H    0.119098  -0.000000
 Sum of Mulliken charges =  -0.00000  -0.00000

 Dipole moment (field-independent basis, Debye):
    X=             -0.0000    Y=              0.0000    Z=              0.0000  Tot=              0.0000
 Quadrupole moment (field-independent basis, Debye-Ang):
   XX=             -3.5976   YY=            -14.6649   ZZ=            -12.9366
   XY=             -0.0001   XZ=             -0.0000   YZ=              0.0000

 Normal termination of Gaussian 16 at Tue Dec  3 11:17:49 2024.
