 Gaussian 16, Revision A.03,
 Gaussian 16:  ES64L-G16RevA.03 25-Dec-2016

 --------------------------------------------
 #p opt UM062X/6-311+G** nosymm int=superfine
 --------------------------------------------

 -------------------
 Title Card Required
 -------------------
 Symbolic Z-matrix:
 Charge =  0 Multiplicity = 1

 SCF Done:  E(UM062X) =  -78.2069789697     A.U. after    8 cycles
 SCF Done:  E(UM062X) =  -78.2078085912     A.U. after    9 cycles
 SCF Done:  E(UM062X) =  -78.2082457480     A.U. after    9 cycles
 Optimization completed.
    -- Stationary point found.

                          Input orientation:
 ---------------------------------------------------------------------
 Center     Atomic      Atomic             Coordinates (Angstroms)
 Number     Number       Type             X           Y           Z
 ---------------------------------------------------------------------
      1          6           0       -1.360595    0.000000    0.000000
      2          6           0        1.360595    0.000000    0.000000
      3          1           0       -1.755567   -1.002654    0.000000
      4          1           0       -1.755561    1.002663   -0.000000
      5          1           0        1.755567    1.002654   -0.000000
      6          1           0        1.755561   -1.002663   -0.000000
 ---------------------------------------------------------------------

 Alpha  occ. eigenvalues --  -10.63063 -10.63058  -0.75843  -0.74011  -0.53749
 Alpha  occ. eigenvalues --   -0.53008  -0.30608  -0.23357
 Alpha virt. eigenvalues --   -0.11120  -0.07807   0.03386   0.05273   0.05275
 Alpha virt. eigenvalues --    0.06937   0.09389   0.10338   0.11101   0.14023
 Alpha virt. eigenvalues --    0.16244   0.18590   0.21489   0.27020   0.39848

  Beta  occ. eigenvalues --  -10.63063 -10.63058  -0.75843  -0.74011  -0.53749
  Beta  occ. eigenvalues --   -0.53008  -0.30608  -0.23357
  Beta virt. eigenvalues --   -0.11120  -0.07807   0.03386   0.05273   0.05275
  Beta virt. eigenvalues --    0.06937   0.09389   0.10338   0.11101   0.14023
  Beta virt. eigenvalues --    0.16244   0.18590   0.21489   0.27020   0.39848

 Mulliken charges and spin densities:
               1          2
     1  C   -0.385722   0.000000
     2  C   -0.385722  -0.000000
     3  H    0.192861  -0.000000
     4  H    0.192861  -0.000000
     5  H    0.192861   0.000000
     6  H    0.192861   0.000000
 Sum of Mulliken charges =  -0.00000  -0.00000

 Dipole moment (field-independent basis, Debye):
    X=              0.0000    Y=             -0.0000    Z=             -0.0000  Tot=              0.0000
 Quadrupole moment (field-independent basis, Debye-Ang):
   XX=             -9.8476   YY=            -11.8402   ZZ=            -19.0663
   XY=             -0.0000   XZ=             -0.0000   YZ=              0.0000

 Normal termination of Gaussian 16 at Tue Dec  3 11:07:37 2024.
