 Gaussian 16, Revision A.03,
 Gaussian 16:  ES64L-G16RevA.03 25-Dec-2016

 --------------------------------------------
 #p opt UM062X/6-311+G** nosymm int=superfine
 --------------------------------------------

 -------------------
 Title Card Required
 -------------------
 Symbolic Z-matrix:
 Charge =  0 Multiplicity = 1

 SCF Done:  E(UM062X) =  -78.1992421027     A.U. after    9 cycles
 SCF Done:  E(UM062X) =  -78.2162765995     A.U. after    9 cycles
 SCF Done:  E(UM062X) =  -78.2319093681     A.U. after    8 cycles
 SCF Done:  E(UM062X) =  -78.2322713215     A.U. after    8 cycles
 SCF Done:  E(UM062X) =  -78.2322728203     A.U. after    7 cycles
 Optimization completed.
    -- Stationary point found.

                          Input orientation:
 ---------------------------------------------------------------------
 Center     Atomic      Atomic             Coordinates (Angstroms)
 Number     Number       Type             X           Y           Z
 ---------------------------------------------------------------------
      1          6           0       -1.885595    0.000000    0.000000
      2          6           0        1.885595    0.000000    0.000000
      3          1           0       -2.593006   -0.857823   -0.000000
      4          1           0       -2.592973    0.857851   -0.000000
      5          1           0        2.593006    0.857823    0.000000
      6          1           0        2.592973   -0.857851    0.000000
 ---------------------------------------------------------------------

 Alpha  occ. eigenvalues --  -10.59313 -10.59313  -0.74341  -0.74276  -0.46018
 Alpha  occ. eigenvalues --   -0.45958  -0.30890  -0.28624
 Alpha virt. eigenvalues --   -0.07204  -0.06603   0.02533   0.03300   0.06649
 Alpha virt. eigenvalues --    0.08620   0.08764   0.10432   0.12477   0.15452
 Alpha virt. eigenvalues --    0.17564   0.19955   0.20907   0.22325   0.45497

  Beta  occ. eigenvalues --  -10.59313 -10.59313  -0.74341  -0.74276  -0.46018
  Beta  occ. eigenvalues --   -0.45958  -0.30890  -0.28624
  Beta virt. eigenvalues --   -0.07204  -0.06603   0.02533   0.03300   0.06649
  Beta virt. eigenvalues --    0.08620   0.08764   0.10432   0.12477   0.15452
  Beta virt. eigenvalues --    0.17564   0.19955   0.20907   0.22325   0.45497

 Mulliken charges and spin densities:
               1          2
     1  C   -0.237528  -0.000000
     2  C   -0.237528   0.000000
     3  H    0.118764  -0.000000
     4  H    0.118764   0.000000
     5  H    0.118764  -0.000000
     6  H    0.118764   0.000000
 Sum of Mulliken charges =  -0.00000   0.00000

 Dipole moment (field-independent basis, Debye):
    X=             -0.0000    Y=              0.0000    Z=              0.0000  Tot=              0.0000
 Quadrupole moment (field-independent basis, Debye-Ang):
   XX=             -4.3948   YY=            -14.6945   ZZ=            -12.9516
   XY=             -0.0001   XZ=              0.0000   YZ=              0.0000

 Normal termination of Gaussian 16 at Tue Dec  3 11:16:29 2024.
