 Gaussian 16, Revision A.03,
 Gaussian 16:  ES64L-G16RevA.03 25-Dec-2016

 --------------------------------------------
 #p opt UM062X/6-311+G** nosymm int=superfine
 --------------------------------------------

 -------------------
 Title Card Required
 -------------------
 Symbolic Z-matrix:
 Charge =  0 Multiplicity = 1

 SCF Done:  E(UM062X) =  -582.387437290     A.U. after   10 cycles
 SCF Done:  E(UM062X) =  -582.389627249     A.U. after    9 cycles
 SCF Done:  E(UM062X) =  -582.390184800     A.U. after    8 cycles
 Optimization completed.
    -- Stationary point found.

                          Input orientation:
 ---------------------------------------------------------------------
 Center     Atomic      Atomic             Coordinates (Angstroms)
 Number     Number       Type             X           Y           Z
 ---------------------------------------------------------------------
      1         14           0       -2.169819    0.000000    0.000000
      2         14           0        2.169819    0.000000    0.000000
      3          1           0        2.578398   -1.417807   -0.000056
      4          1           0       -2.578361   -0.708807    1.227934
      5          1           0        2.578490    0.708979   -1.227791
      6          1           0        2.578370    0.708860    1.227900
      7          1           0       -2.578402    1.417806   -0.000111
      8          1           0       -2.578496   -0.709034   -1.227758
 ---------------------------------------------------------------------

 Alpha  occ. eigenvalues --  -67.01836 -67.01836  -5.56716  -5.56715  -3.87948
 Alpha  occ. eigenvalues --   -3.87947  -3.87716  -3.87716  -3.87716  -3.87716
 Alpha  occ. eigenvalues --   -0.61125  -0.60749  -0.42032  -0.42031  -0.41937
 Alpha  occ. eigenvalues --   -0.41937  -0.22446
 Alpha virt. eigenvalues --   -0.10042   0.02093   0.02926   0.02926   0.03322
 Alpha virt. eigenvalues --    0.05131   0.05131   0.05895   0.06818   0.07417
 Alpha virt. eigenvalues --    0.07417   0.08738   0.08738   0.12354   0.16065

  Beta  occ. eigenvalues --  -67.01836 -67.01836  -5.56716  -5.56715  -3.87948
  Beta  occ. eigenvalues --   -3.87947  -3.87716  -3.87716  -3.87716  -3.87716
  Beta  occ. eigenvalues --   -0.61125  -0.60749  -0.42032  -0.42031  -0.41937
  Beta  occ. eigenvalues --   -0.41937  -0.22446
  Beta virt. eigenvalues --   -0.10042   0.02093   0.02926   0.02926   0.03322
  Beta virt. eigenvalues --    0.05131   0.05131   0.05895   0.06818   0.07417
  Beta virt. eigenvalues --    0.07417   0.08738   0.08738   0.12354   0.16065

 Mulliken charges and spin densities:
               1          2
     1  Si   0.269723   0.000000
     2  Si   0.269724  -0.000000
     3  H   -0.089907  -0.000000
     4  H   -0.089908   0.000000
     5  H   -0.089909  -0.000000
     6  H   -0.089908  -0.000000
     7  H   -0.089907   0.000000
     8  H   -0.089909   0.000000
 Sum of Mulliken charges =  -0.00000   0.00000

 Dipole moment (field-independent basis, Debye):
    X=              0.0000    Y=             -0.0000    Z=              0.0000  Tot=              0.0000
 Quadrupole moment (field-independent basis, Debye-Ang):
   XX=            -28.2990   YY=            -32.1233   ZZ=            -32.1234
   XY=             -0.0003   XZ=              0.0000   YZ=              0.0000

 Normal termination of Gaussian 16 at Mon Apr 21 20:20:02 2025.
