 Gaussian 16, Revision A.03,
 Gaussian 16:  ES64L-G16RevA.03 25-Dec-2016

 --------------------------------------------
 #p opt UM062X/6-311+G** nosymm int=superfine
 --------------------------------------------

 -------------------
 Title Card Required
 -------------------
 Symbolic Z-matrix:
 Charge =  1 Multiplicity = 2

 SCF Done:  E(UM062X) =  -582.163408489     A.U. after   10 cycles
 SCF Done:  E(UM062X) =  -582.163649758     A.U. after    8 cycles
 SCF Done:  E(UM062X) =  -582.163667794     A.U. after    8 cycles
 Optimization completed.
    -- Stationary point found.

                          Input orientation:
 ---------------------------------------------------------------------
 Center     Atomic      Atomic             Coordinates (Angstroms)
 Number     Number       Type             X           Y           Z
 ---------------------------------------------------------------------
      1         14           0       -1.701292    0.000000    0.000000
      2         14           0        1.701292    0.000000    0.000000
      3          1           0        1.863083   -1.456054    0.000006
      4          1           0       -1.862869   -0.727917    1.261061
      5          1           0        1.863357    0.728055   -1.260917
      6          1           0        1.862715    0.728009    1.261028
      7          1           0       -1.863107    1.456051   -0.000100
      8          1           0       -1.863179   -0.728153   -1.260884
 ---------------------------------------------------------------------

 Alpha  occ. eigenvalues --  -67.23636 -67.23636  -5.78474  -5.78474  -4.10161
 Alpha  occ. eigenvalues --   -4.10160  -4.09351  -4.09351  -4.09351  -4.09351
 Alpha  occ. eigenvalues --   -0.83268  -0.81320  -0.62944  -0.62944  -0.62208
 Alpha  occ. eigenvalues --   -0.62208  -0.47165
 Alpha virt. eigenvalues --   -0.26228  -0.14468  -0.11936  -0.11234  -0.11233
 Alpha virt. eigenvalues --   -0.10057  -0.10057  -0.09860  -0.08433  -0.08433
 Alpha virt. eigenvalues --   -0.07746  -0.06440  -0.06439  -0.03858   0.00815

  Beta  occ. eigenvalues --  -67.23376 -67.23376  -5.78403  -5.78402  -4.09530
  Beta  occ. eigenvalues --   -4.09529  -4.09263  -4.09263  -4.09263  -4.09263
  Beta  occ. eigenvalues --   -0.80976  -0.79853  -0.62638  -0.62638  -0.62001
  Beta  occ. eigenvalues --   -0.62001
  Beta virt. eigenvalues --   -0.29737  -0.20971  -0.14549  -0.11790  -0.11790
  Beta virt. eigenvalues --   -0.10951  -0.10287  -0.10287  -0.09687  -0.07824
  Beta virt. eigenvalues --   -0.07824  -0.06328  -0.06214  -0.06214  -0.03592

 Mulliken charges and spin densities:
               1          2
     1  Si   0.500153   0.552358
     2  Si   0.500153   0.552358
     3  H   -0.000047  -0.017453
     4  H   -0.000057  -0.017451
     5  H   -0.000044  -0.017458
     6  H   -0.000062  -0.017447
     7  H   -0.000047  -0.017453
     8  H   -0.000050  -0.017454
 Sum of Mulliken charges =   1.00000   1.00000

 Dipole moment (field-independent basis, Debye):
    X=              0.0000    Y=              0.0000    Z=             -0.0000  Tot=              0.0000
 Quadrupole moment (field-independent basis, Debye-Ang):
   XX=             -7.1125   YY=            -25.9346   ZZ=            -25.9348
   XY=             -0.0001   XZ=              0.0000   YZ=              0.0000

 Normal termination of Gaussian 16 at Mon Apr 21 20:13:45 2025.
