 Gaussian 16, Revision A.03,
 Gaussian 16:  ES64L-G16RevA.03 25-Dec-2016

 ---------------------------------------
 #p UM062X/6-311+G** force int=superfine
 ---------------------------------------

 -------------------
 Title Card Required
 -------------------
 Symbolic Z-matrix:
 Charge =  0 Multiplicity = 1

                         Standard orientation:
 ---------------------------------------------------------------------
 Center     Atomic      Atomic             Coordinates (Angstroms)
 Number     Number       Type             X           Y           Z
 ---------------------------------------------------------------------
      1          6           0        0.000000    0.629728    0.000000
      2          6           0       -0.000000   -0.629728    0.000000
      3          1           0        0.918228    1.209737    0.000000
      4          1           0       -0.918079    1.209865    0.000000
      5          1           0       -0.918228   -1.209737    0.000000
      6          1           0        0.918079   -1.209865    0.000000
 ---------------------------------------------------------------------

 SCF Done:  E(UM062X) =  -78.5578518072     A.U. after    8 cycles

 The electronic state is 1-AG.
 Alpha  occ. eigenvalues --  -10.52782 -10.52605  -0.87768  -0.65620  -0.54856
 Alpha  occ. eigenvalues --   -0.49645  -0.40571  -0.34864
 Alpha virt. eigenvalues --    0.03402   0.03828   0.04140   0.05012   0.07525
 Alpha virt. eigenvalues --    0.08318   0.09739   0.14169   0.16078   0.17497
 Alpha virt. eigenvalues --    0.19729   0.23546   0.31916   0.37676   0.44314

  Beta  occ. eigenvalues --  -10.52782 -10.52605  -0.87768  -0.65620  -0.54856
  Beta  occ. eigenvalues --   -0.49645  -0.40571  -0.34864
  Beta virt. eigenvalues --    0.03402   0.03828   0.04140   0.05012   0.07525
  Beta virt. eigenvalues --    0.08318   0.09739   0.14169   0.16078   0.17497
  Beta virt. eigenvalues --    0.19729   0.23546   0.31916   0.37676   0.44314

 Mulliken charges and spin densities:
               1          2
     1  C   -0.287995  -0.000000
     2  C   -0.287995  -0.000000
     3  H    0.143989   0.000000
     4  H    0.144006   0.000000
     5  H    0.143989   0.000000
     6  H    0.144006   0.000000
 Sum of Mulliken charges =   0.00000   0.00000

 Dipole moment (field-independent basis, Debye):
    X=             -0.0000    Y=             -0.0000    Z=              0.0000  Tot=              0.0000
 Quadrupole moment (field-independent basis, Debye-Ang):
   XX=            -12.3179   YY=            -12.3315   ZZ=            -15.5998
   XY=             -0.0004   XZ=              0.0000   YZ=              0.0000

 Normal termination of Gaussian 16 at Tue Nov 19 11:43:40 2024.
