 Gaussian 16, Revision A.03,
 Gaussian 16:  ES64L-G16RevA.03 25-Dec-2016

 --------------------------------------------
 #p opt UM062X/6-311+G** nosymm int=superfine
 --------------------------------------------

 -------------------
 Title Card Required
 -------------------
 Symbolic Z-matrix:
 Charge =  1 Multiplicity = 2

 SCF Done:  E(UM062X) =  -80.1551059454     A.U. after   20 cycles
 SCF Done:  E(UM062X) =  -80.1559605345     A.U. after   10 cycles
 SCF Done:  E(UM062X) =  -80.1559633667     A.U. after   14 cycles
 Optimization completed.
    -- Stationary point found.

                          Input orientation:
 ---------------------------------------------------------------------
 Center     Atomic      Atomic             Coordinates (Angstroms)
 Number     Number       Type             X           Y           Z
 ---------------------------------------------------------------------
      1          5           0       -1.902734    0.000000    0.000000
      2          7           0        1.902734    0.000000    0.000000
      3          1           0       -3.108696   -0.000176    0.000000
      4          1           0        2.938289    0.000196   -0.000000
 ---------------------------------------------------------------------

 Alpha  occ. eigenvalues --  -14.95002  -7.53883  -1.08119  -0.86290  -0.61979
 Alpha  occ. eigenvalues --   -0.54559  -0.54559
 Alpha virt. eigenvalues --   -0.45032  -0.35020  -0.35020  -0.15726  -0.11773
 Alpha virt. eigenvalues --   -0.09958  -0.09958  -0.08388  -0.03990   0.01514
 Alpha virt. eigenvalues --    0.01514   0.03296   0.07837   0.12646   0.12646

  Beta  occ. eigenvalues --  -14.92521  -7.55118  -0.95274  -0.89922  -0.68365
  Beta  occ. eigenvalues --   -0.56316
  Beta virt. eigenvalues --   -0.36071  -0.36071  -0.19351  -0.19351  -0.14662
  Beta virt. eigenvalues --   -0.10658  -0.09770  -0.09770  -0.07048  -0.02963
  Beta virt. eigenvalues --    0.03527   0.03527   0.06383   0.08332   0.16105

 Mulliken charges and spin densities:
               1          2
     1  B    0.758079  -0.845656
     2  N   -0.243697   2.055793
     3  H    0.223299  -0.142939
     4  H    0.262319  -0.067198
 Sum of Mulliken charges =   1.00000   1.00000

 Dipole moment (field-independent basis, Debye):
    X=             -7.6427    Y=              0.0002    Z=              0.0000  Tot=              7.6427
 Quadrupole moment (field-independent basis, Debye-Ang):
   XX=             19.3830   YY=            -10.2783   ZZ=            -10.2783
   XY=              0.0011   XZ=             -0.0000   YZ=             -0.0000

 Normal termination of Gaussian 16 at Mon Apr 21 17:59:50 2025.
