 Gaussian 16, Revision A.03,
 Gaussian 16:  ES64L-G16RevA.03 25-Dec-2016

 --------------------------------------------
 #p opt UM062X/6-311+G** nosymm int=superfine
 --------------------------------------------

 -------------------
 Title Card Required
 -------------------
 Symbolic Z-matrix:
 Charge =  0 Multiplicity = 1

 SCF Done:  E(UM062X) =  -78.4132924207     A.U. after    8 cycles
 SCF Done:  E(UM062X) =  -78.4431706046     A.U. after    8 cycles
 SCF Done:  E(UM062X) =  -78.4588334572     A.U. after    8 cycles
 SCF Done:  E(UM062X) =  -78.4602394296     A.U. after    8 cycles
 SCF Done:  E(UM062X) =  -78.4602789452     A.U. after    7 cycles
 Optimization completed.
    -- Stationary point found.

                          Input orientation:
 ---------------------------------------------------------------------
 Center     Atomic      Atomic             Coordinates (Angstroms)
 Number     Number       Type             X           Y           Z
 ---------------------------------------------------------------------
      1          6           0       -0.874991    0.000000    0.000000
      2          6           0        0.874991    0.000000    0.000000
      3          1           0       -1.375067   -0.956176    0.000000
      4          1           0       -1.375092    0.956081    0.000000
      5          1           0        1.375067    0.956176    0.000000
      6          1           0        1.375092   -0.956081    0.000000
 ---------------------------------------------------------------------

 Alpha  occ. eigenvalues --  -10.59181 -10.59157  -0.79390  -0.69838  -0.52996
 Alpha  occ. eigenvalues --   -0.47574  -0.41844  -0.28100
 Alpha virt. eigenvalues --   -0.03667   0.03356   0.03369   0.05381   0.07595
 Alpha virt. eigenvalues --    0.08692   0.09764   0.11711   0.15625   0.16690
 Alpha virt. eigenvalues --    0.17253   0.20983   0.22657   0.29008   0.40810

  Beta  occ. eigenvalues --  -10.59181 -10.59157  -0.79390  -0.69838  -0.52996
  Beta  occ. eigenvalues --   -0.47574  -0.41844  -0.28100
  Beta virt. eigenvalues --   -0.03667   0.03356   0.03369   0.05381   0.07595
  Beta virt. eigenvalues --    0.08692   0.09764   0.11711   0.15625   0.16690
  Beta virt. eigenvalues --    0.17253   0.20983   0.22657   0.29008   0.40810

 Mulliken charges and spin densities:
               1          2
     1  C   -0.340799   0.000000
     2  C   -0.340799  -0.000000
     3  H    0.170398   0.000000
     4  H    0.170401   0.000000
     5  H    0.170398  -0.000000
     6  H    0.170401   0.000000
 Sum of Mulliken charges =  -0.00000  -0.00000

 Dipole moment (field-independent basis, Debye):
    X=              0.0000    Y=             -0.0000    Z=              0.0000  Tot=              0.0000
 Quadrupole moment (field-independent basis, Debye-Ang):
   XX=            -11.7000   YY=            -12.1926   ZZ=            -17.4792
   XY=             -0.0001   XZ=              0.0000   YZ=             -0.0000

 Normal termination of Gaussian 16 at Tue Nov 19 10:51:13 2024.
