 Gaussian 16, Revision A.03,
 Gaussian 16:  ES64L-G16RevA.03 25-Dec-2016

 ----------------------------------------------------------------------
 #p opt UM062X/6-311+G** nosymm int=superfine SCF=(MaxCycle=200,NoVarAc
 c,noincfock) guess=read
 ----------------------------------------------------------------------

 -------------------
 Title Card Required
 -------------------
 Symbolic Z-matrix:
 Charge =  1 Multiplicity = 2

 SCF Done:  E(UM062X) =  -379.294114240     A.U. after   16 cycles
 SCF Done:  E(UM062X) =  -379.294911053     A.U. after   29 cycles
 SCF Done:  E(UM062X) =  -379.294912791     A.U. after   14 cycles
 Optimization completed.
    -- Stationary point found.

                          Input orientation:
 ---------------------------------------------------------------------
 Center     Atomic      Atomic             Coordinates (Angstroms)
 Number     Number       Type             X           Y           Z
 ---------------------------------------------------------------------
      1          6           0       -2.269427    0.000000    0.000000
      2         15           0        2.269427    0.000000    0.000000
      3          1           0       -3.391163   -0.000000   -0.000000
 ---------------------------------------------------------------------

 Alpha  occ. eigenvalues --  -78.30741 -10.97245  -7.12319  -5.24467  -5.24119
 Alpha  occ. eigenvalues --   -5.23061  -0.99187  -0.84413  -0.64975  -0.50093
 Alpha  occ. eigenvalues --   -0.44374
 Alpha virt. eigenvalues --   -0.38088  -0.34585  -0.32815  -0.13137  -0.09561
 Alpha virt. eigenvalues --   -0.08320  -0.07977  -0.06668  -0.05304  -0.04947
 Alpha virt. eigenvalues --   -0.02538   0.00080   0.17509   0.17822   0.18102

  Beta  occ. eigenvalues --  -78.29987 -10.97209  -7.12092  -5.23906  -5.22909
  Beta  occ. eigenvalues --   -5.22192  -0.98989  -0.79217  -0.64818  -0.43360
  Beta virt. eigenvalues --   -0.37040  -0.34415  -0.31663  -0.27831  -0.13476
  Beta virt. eigenvalues --   -0.10687  -0.08046  -0.07956  -0.06536  -0.04988
  Beta virt. eigenvalues --   -0.04500  -0.02741  -0.00065   0.15340   0.16087

 Mulliken charges and spin densities:
               1          2
     1  C    0.296539   0.048039
     2  P    0.469501   0.953917
     3  H    0.233960  -0.001956
 Sum of Mulliken charges =   1.00000   1.00000

 Dipole moment (field-independent basis, Debye):
    X=             -2.7113    Y=             -0.0000    Z=             -0.0000  Tot=              2.7113
 Quadrupole moment (field-independent basis, Debye-Ang):
   XX=             20.8655   YY=            -17.3073   ZZ=            -19.3708
   XY=              0.0000   XZ=             -0.0000   YZ=             -1.2019

 Normal termination of Gaussian 16 at Tue Apr 22 00:10:24 2025.
