 Gaussian 16, Revision A.03,
 Gaussian 16:  ES64L-G16RevA.03 25-Dec-2016

 --------------------------------------------
 #p opt UM062X/6-311+G** nosymm int=superfine
 --------------------------------------------

 -------------------
 Title Card Required
 -------------------
 Symbolic Z-matrix:
 Charge =  0 Multiplicity = 1

 SCF Done:  E(UM062X) =  -77.2026680395     A.U. after   11 cycles
 SCF Done:  E(UM062X) =  -77.2786004582     A.U. after    8 cycles
 SCF Done:  E(UM062X) =  -77.3627444417     A.U. after    9 cycles
 SCF Done:  E(UM062X) =  -77.3805544099     A.U. after    8 cycles
 SCF Done:  E(UM062X) =  -77.3807014148     A.U. after    6 cycles
 Optimization completed.
    -- Stationary point found.

                          Input orientation:
 ---------------------------------------------------------------------
 Center     Atomic      Atomic             Coordinates (Angstroms)
 Number     Number       Type             X           Y           Z
 ---------------------------------------------------------------------
      1          6           0       -0.384466    0.000000    0.000000
      2          6           0        0.384466    0.000000    0.000000
      3          1           0       -1.114067   -0.842806    0.000000
      4          1           0       -1.113979    0.843108    0.000000
      5          1           0        1.114067    0.842806   -0.000000
      6          1           0        1.113979   -0.843108   -0.000000
 ---------------------------------------------------------------------

 Alpha  occ. eigenvalues --  -10.56108 -10.46025  -0.93516  -0.63480  -0.60577
 Alpha  occ. eigenvalues --   -0.53003  -0.51865  -0.28585
 Alpha virt. eigenvalues --    0.02945   0.03078   0.04195   0.05816   0.08061
 Alpha virt. eigenvalues --    0.09339   0.09846   0.15044   0.15969   0.18748
 Alpha virt. eigenvalues --    0.25054   0.25344   0.36740   0.41792   0.43741

  Beta  occ. eigenvalues --  -10.56108 -10.46025  -0.93516  -0.63480  -0.60577
  Beta  occ. eigenvalues --   -0.53003  -0.51865  -0.28585
  Beta virt. eigenvalues --    0.02945   0.03078   0.04195   0.05816   0.08061
  Beta virt. eigenvalues --    0.09339   0.09846   0.15044   0.15969   0.18748
  Beta virt. eigenvalues --    0.25054   0.25344   0.36740   0.41792   0.43741

 Mulliken charges and spin densities:
               1          2
     1  C   -0.242631   0.000000
     2  C   -0.242631  -0.000000
     3  H    0.121346  -0.000000
     4  H    0.121285  -0.000000
     5  H    0.121346  -0.000000
     6  H    0.121285  -0.000000
 Sum of Mulliken charges =  -0.00000  -0.00000

 Dipole moment (field-independent basis, Debye):
    X=              0.0000    Y=              0.0000    Z=             -0.0000  Tot=              0.0000
 Quadrupole moment (field-independent basis, Debye-Ang):
   XX=            -12.6993   YY=            -12.6001   ZZ=            -13.1901
   XY=              0.0009   XZ=             -0.0000   YZ=             -0.0000

 Normal termination of Gaussian 16 at Tue Nov 19 10:14:59 2024.
