 Gaussian 16, Revision A.03,
 Gaussian 16:  ES64L-G16RevA.03 25-Dec-2016

 --------------------------------------------
 #p opt UM062X/6-311+G** nosymm int=superfine
 --------------------------------------------

 -------------------
 Title Card Required
 -------------------
 Symbolic Z-matrix:
 Charge =  1 Multiplicity = 2

 SCF Done:  E(UM062X) =  -76.5999035687     A.U. after   64 cycles
 SCF Done:  E(UM062X) =  -76.6839614774     A.U. after   10 cycles
 SCF Done:  E(UM062X) =  -76.7028644009     A.U. after    9 cycles
 SCF Done:  E(UM062X) =  -76.7034172991     A.U. after   54 cycles
 Optimization completed.
    -- Stationary point found.

                          Input orientation:
 ---------------------------------------------------------------------
 Center     Atomic      Atomic             Coordinates (Angstroms)
 Number     Number       Type             X           Y           Z
 ---------------------------------------------------------------------
      1          6           0       -0.490861    0.000000    0.000000
      2          6           0        0.490861    0.000000    0.000000
      3          1           0       -1.563683   -0.000000    0.000000
      4          1           0        1.563681   -0.000000    0.000000
 ---------------------------------------------------------------------

 Alpha  occ. eigenvalues --  -10.90655 -10.89034  -1.32116  -0.95144  -0.91367
 Alpha  occ. eigenvalues --   -0.82385  -0.78902
 Alpha virt. eigenvalues --   -0.19489  -0.17745  -0.14727  -0.13810  -0.11959
 Alpha virt. eigenvalues --   -0.11422  -0.11098  -0.03468  -0.02750  -0.02267
 Alpha virt. eigenvalues --    0.02453   0.04256   0.17067   0.20859   0.25676

  Beta  occ. eigenvalues --  -10.90299 -10.88749  -1.26181  -0.93626  -0.90526
  Beta  occ. eigenvalues --   -0.76263
  Beta virt. eigenvalues --   -0.52023  -0.16628  -0.15567  -0.15374  -0.13402
  Beta virt. eigenvalues --   -0.11896  -0.11606  -0.11193  -0.02272  -0.01787
  Beta virt. eigenvalues --   -0.01248   0.02673   0.04686   0.17644   0.21244

 Mulliken charges and spin densities:
               1          2
     1  C    0.236752   0.520918
     2  C    0.236752   0.520918
     3  H    0.263249  -0.020918
     4  H    0.263247  -0.020918
 Sum of Mulliken charges =   1.00000   1.00000

 Dipole moment (field-independent basis, Debye):
    X=             -0.0000    Y=             -0.0000    Z=              0.0000  Tot=              0.0000
 Quadrupole moment (field-independent basis, Debye-Ang):
   XX=             -2.1309   YY=            -10.3589   ZZ=             -8.8333
   XY=              0.0000   XZ=             -0.0000   YZ=             -0.1179

 Normal termination of Gaussian 16 at Tue Nov 19 12:51:35 2024.
