 Gaussian 16, Revision A.03,
 Gaussian 16:  ES64L-G16RevA.03 25-Dec-2016

 --------------------------------------------
 #p opt UM062X/6-311+G** nosymm int=superfine
 --------------------------------------------

 -------------------
 Title Card Required
 -------------------
 Symbolic Z-matrix:
 Charge =  1 Multiplicity = 2

 SCF Done:  E(UM062X) =  -379.294461806     A.U. after   27 cycles
 SCF Done:  E(UM062X) =  -379.295253351     A.U. after   22 cycles
 SCF Done:  E(UM062X) =  -379.295255038     A.U. after   15 cycles
 Optimization completed.
    -- Stationary point found.

                          Input orientation:
 ---------------------------------------------------------------------
 Center     Atomic      Atomic             Coordinates (Angstroms)
 Number     Number       Type             X           Y           Z
 ---------------------------------------------------------------------
      1          6           0       -2.219427    0.000000    0.000000
      2         15           0        2.219427    0.000000    0.000000
      3          1           0       -3.341030    0.000000    0.000000
 ---------------------------------------------------------------------

 Alpha  occ. eigenvalues --  -78.30947 -10.97262  -7.12521  -5.24668  -5.24320
 Alpha  occ. eigenvalues --   -5.23264  -0.99217  -0.84587  -0.65039  -0.50260
 Alpha  occ. eigenvalues --   -0.44562
 Alpha virt. eigenvalues --   -0.38115  -0.34627  -0.32975  -0.13159  -0.09541
 Alpha virt. eigenvalues --   -0.08360  -0.08016  -0.06631  -0.05329  -0.04969
 Alpha virt. eigenvalues --   -0.02534   0.00072   0.17283   0.17696   0.17971

  Beta  occ. eigenvalues --  -78.30193 -10.97224  -7.12294  -5.24107  -5.23113
  Beta  occ. eigenvalues --   -5.22392  -0.99016  -0.79393  -0.64879  -0.43549
  Beta virt. eigenvalues --   -0.37062  -0.34458  -0.31819  -0.27988  -0.13510
  Beta virt. eigenvalues --   -0.10680  -0.08113  -0.07995  -0.06491  -0.05005
  Beta virt. eigenvalues --   -0.04535  -0.02753  -0.00096   0.15213   0.15927

 Mulliken charges and spin densities:
               1          2
     1  C    0.291217   0.048409
     2  P    0.473525   0.953555
     3  H    0.235258  -0.001965
 Sum of Mulliken charges =   1.00000   1.00000

 Dipole moment (field-independent basis, Debye):
    X=             -2.6183    Y=              0.0000    Z=              0.0000  Tot=              2.6183
 Quadrupole moment (field-independent basis, Debye-Ang):
   XX=             19.6380   YY=            -19.9014   ZZ=            -16.7675
   XY=             -0.0000   XZ=              0.0000   YZ=              0.2303

 Normal termination of Gaussian 16 at Mon Apr 21 19:28:22 2025.
