 Gaussian 16, Revision A.03,
 Gaussian 16:  ES64L-G16RevA.03 25-Dec-2016

 --------------------------------------------
 #p opt UM062X/6-311+G** nosymm int=superfine
 --------------------------------------------

 -------------------
 Title Card Required
 -------------------
 Symbolic Z-matrix:
 Charge =  0 Multiplicity = 1

 SCF Done:  E(UM062X) =  -437.271852410     A.U. after   13 cycles
 SCF Done:  E(UM062X) =  -437.272785001     A.U. after   11 cycles
 SCF Done:  E(UM062X) =  -437.273240165     A.U. after   12 cycles
 SCF Done:  E(UM062X) =  -437.273158169     A.U. after   11 cycles
 SCF Done:  E(UM062X) =  -437.273242101     A.U. after   13 cycles
 Optimization completed.
    -- Stationary point found.

                          Input orientation:
 ---------------------------------------------------------------------
 Center     Atomic      Atomic             Coordinates (Angstroms)
 Number     Number       Type             X           Y           Z
 ---------------------------------------------------------------------
      1          6           0       -1.202140    0.000000    0.000000
      2         16           0        1.202140    0.000000    0.000000
      3          1           0       -1.696410   -0.964953    0.000254
      4          1           0       -1.696626    0.964843    0.000022
 ---------------------------------------------------------------------

 Alpha  occ. eigenvalues --  -89.92529 -10.68875  -8.28253  -6.20463  -6.20059
 Alpha  occ. eigenvalues --   -6.19566  -0.81149  -0.72265  -0.56651  -0.38467
 Alpha  occ. eigenvalues --   -0.30180  -0.29732
 Alpha virt. eigenvalues --   -0.13962  -0.07132   0.01803   0.04959   0.05975
 Alpha virt. eigenvalues --    0.06540   0.08444   0.08485   0.09302   0.13956
 Alpha virt. eigenvalues --    0.16131   0.19735   0.35571   0.35958   0.37067

  Beta  occ. eigenvalues --  -89.92529 -10.68875  -8.28253  -6.20463  -6.20059
  Beta  occ. eigenvalues --   -6.19566  -0.81149  -0.72265  -0.56651  -0.38467
  Beta  occ. eigenvalues --   -0.30180  -0.29732
  Beta virt. eigenvalues --   -0.13962  -0.07132   0.01803   0.04959   0.05975
  Beta virt. eigenvalues --    0.06540   0.08444   0.08485   0.09302   0.13956
  Beta virt. eigenvalues --    0.16131   0.19735   0.35571   0.35958   0.37067

 Mulliken charges and spin densities:
               1          2
     1  C   -0.308345  -0.000000
     2  S   -0.112555   0.000000
     3  H    0.210451   0.000000
     4  H    0.210449   0.000000
 Sum of Mulliken charges =  -0.00000   0.00000

 Dipole moment (field-independent basis, Debye):
    X=             -3.3115    Y=             -0.0001    Z=              0.0003  Tot=              3.3115
 Quadrupole moment (field-independent basis, Debye-Ang):
   XX=            -15.8687   YY=            -21.2861   ZZ=            -21.9580
   XY=             -0.0002   XZ=             -0.0000   YZ=             -0.0001

 Normal termination of Gaussian 16 at Mon Apr 21 19:37:44 2025.
