 Gaussian 16, Revision A.03,
 Gaussian 16:  ES64L-G16RevA.03 25-Dec-2016

 --------------------------------------------
 #p opt UM062X/6-311+G** nosymm int=superfine
 --------------------------------------------

 -------------------
 Title Card Required
 -------------------
 Symbolic Z-matrix:
 Charge =  0 Multiplicity = 1

 SCF Done:  E(UM062X) =  -78.1943608656     A.U. after    9 cycles
 SCF Done:  E(UM062X) =  -78.2117830752     A.U. after    9 cycles
 SCF Done:  E(UM062X) =  -78.2282686185     A.U. after    8 cycles
 SCF Done:  E(UM062X) =  -78.2286822263     A.U. after    8 cycles
 SCF Done:  E(UM062X) =  -78.2286840374     A.U. after    7 cycles
 Optimization completed.
    -- Stationary point found.

                          Input orientation:
 ---------------------------------------------------------------------
 Center     Atomic      Atomic             Coordinates (Angstroms)
 Number     Number       Type             X           Y           Z
 ---------------------------------------------------------------------
      1          6           0       -1.660595    0.000000    0.000000
      2          6           0        1.660595    0.000000    0.000000
      3          1           0       -2.372405   -0.856019    0.000000
      4          1           0       -2.372367    0.856053   -0.000000
      5          1           0        2.372405    0.856019    0.000000
      6          1           0        2.372367   -0.856053   -0.000000
 ---------------------------------------------------------------------

 Alpha  occ. eigenvalues --  -10.58883 -10.58883  -0.74040  -0.73866  -0.45610
 Alpha  occ. eigenvalues --   -0.45460  -0.31507  -0.27292
 Alpha virt. eigenvalues --   -0.07203  -0.06114   0.02577   0.03580   0.06708
 Alpha virt. eigenvalues --    0.08570   0.08914   0.10496   0.12550   0.15431
 Alpha virt. eigenvalues --    0.17643   0.20018   0.21197   0.23428   0.44645

  Beta  occ. eigenvalues --  -10.58883 -10.58883  -0.74040  -0.73866  -0.45610
  Beta  occ. eigenvalues --   -0.45460  -0.31507  -0.27292
  Beta virt. eigenvalues --   -0.07203  -0.06114   0.02577   0.03580   0.06708
  Beta virt. eigenvalues --    0.08570   0.08914   0.10496   0.12550   0.15431
  Beta virt. eigenvalues --    0.17643   0.20018   0.21197   0.23428   0.44645

 Mulliken charges and spin densities:
               1          2
     1  C   -0.236583  -0.000000
     2  C   -0.236583   0.000000
     3  H    0.118292   0.000000
     4  H    0.118291  -0.000000
     5  H    0.118292   0.000000
     6  H    0.118291  -0.000000
 Sum of Mulliken charges =  -0.00000  -0.00000

 Dipole moment (field-independent basis, Debye):
    X=             -0.0000    Y=              0.0000    Z=             -0.0000  Tot=              0.0000
 Quadrupole moment (field-independent basis, Debye-Ang):
   XX=             -6.9517   YY=            -14.8112   ZZ=            -13.0052
   XY=             -0.0001   XZ=              0.0000   YZ=             -0.0000

 Normal termination of Gaussian 16 at Tue Dec  3 11:12:25 2024.
