 Gaussian 16, Revision A.03,
 Gaussian 16:  ES64L-G16RevA.03 25-Dec-2016

 --------------------------------------------
 #p opt UM062X/6-311+G** nosymm int=superfine
 --------------------------------------------

 -------------------
 Title Card Required
 -------------------
 Symbolic Z-matrix:
 Charge =  0 Multiplicity = 1

 SCF Done:  E(UM062X) =  -437.155185742     A.U. after   16 cycles
 SCF Done:  E(UM062X) =  -437.158218804     A.U. after   16 cycles
 SCF Done:  E(UM062X) =  -437.159201305     A.U. after   18 cycles
 SCF Done:  E(UM062X) =  -437.159202696     A.U. after   18 cycles
 Optimization completed.
    -- Stationary point found.

                          Input orientation:
 ---------------------------------------------------------------------
 Center     Atomic      Atomic             Coordinates (Angstroms)
 Number     Number       Type             X           Y           Z
 ---------------------------------------------------------------------
      1          6           0       -2.302140    0.000000    0.000000
      2         16           0        2.302140    0.000000    0.000000
      3          1           0       -2.995401   -0.864170    0.000064
      4          1           0       -2.996403    0.863364   -0.000059
 ---------------------------------------------------------------------

 Alpha  occ. eigenvalues --  -89.94887 -10.61829  -8.30943  -6.23738  -6.22142
 Alpha  occ. eigenvalues --   -6.22141  -0.76575  -0.75050  -0.48585  -0.32446
 Alpha  occ. eigenvalues --   -0.32338  -0.32333
 Alpha virt. eigenvalues --   -0.17382  -0.09112   0.01640   0.04428   0.05361
 Alpha virt. eigenvalues --    0.06270   0.07857   0.08053   0.08869   0.13717
 Alpha virt. eigenvalues --    0.17453   0.18941   0.35487   0.36441   0.36489

  Beta  occ. eigenvalues --  -89.94887 -10.61829  -8.30943  -6.23738  -6.22142
  Beta  occ. eigenvalues --   -6.22141  -0.76575  -0.75050  -0.48585  -0.32446
  Beta  occ. eigenvalues --   -0.32338  -0.32333
  Beta virt. eigenvalues --   -0.17382  -0.09112   0.01640   0.04428   0.05361
  Beta virt. eigenvalues --    0.06270   0.07857   0.08053   0.08869   0.13717
  Beta virt. eigenvalues --    0.17453   0.18941   0.35487   0.36441   0.36489

 Mulliken charges and spin densities:
               1          2
     1  C   -0.274129   0.000000
     2  S    0.004416  -0.000000
     3  H    0.134853   0.000000
     4  H    0.134859  -0.000000
 Sum of Mulliken charges =  -0.00000   0.00000

 Dipole moment (field-independent basis, Debye):
    X=             -2.3059    Y=             -0.0012    Z=              0.0000  Tot=              2.3059
 Quadrupole moment (field-independent basis, Debye-Ang):
   XX=             -9.1867   YY=            -22.3889   ZZ=            -21.6704
   XY=              0.0007   XZ=             -0.0000   YZ=              0.0001

 Normal termination of Gaussian 16 at Mon Apr 21 19:45:50 2025.
