 Gaussian 16, Revision A.03,
 Gaussian 16:  ES64L-G16RevA.03 25-Dec-2016

 ---------------------------------------------------
 #p UM062X/6-311+G** force int=superfine pop=saveNBO
 ---------------------------------------------------

 -------------------
 Title Card Required
 -------------------
 Symbolic Z-matrix:
 Charge =  0 Multiplicity = 1

                         Standard orientation:
 ---------------------------------------------------------------------
 Center     Atomic      Atomic             Coordinates (Angstroms)
 Number     Number       Type             X           Y           Z
 ---------------------------------------------------------------------
      1          6           0        0.000000    0.000000   -1.269808
      2          8           0        0.000000    0.000000    0.952356
 ---------------------------------------------------------------------

 SCF Done:  E(UM062X) =  -112.846645666     A.U. after   17 cycles

 The electronic state is 1-SG.
 Alpha  occ. eigenvalues --  -19.69457 -10.84943  -0.99882  -0.72397  -0.38268
 Alpha  occ. eigenvalues --   -0.36435  -0.36435
 Alpha virt. eigenvalues --   -0.18169  -0.18169  -0.11114   0.02997   0.06150
 Alpha virt. eigenvalues --    0.06150   0.06891   0.20081   0.22619   0.22619
 Alpha virt. eigenvalues --    0.32087   0.51139   0.51139   0.53415   0.66584

  Beta  occ. eigenvalues --  -19.69457 -10.84943  -0.99882  -0.72397  -0.38268
  Beta  occ. eigenvalues --   -0.36435  -0.36435
  Beta virt. eigenvalues --   -0.18169  -0.18169  -0.11114   0.02997   0.06150
  Beta virt. eigenvalues --    0.06150   0.06891   0.20081   0.22619   0.22619
  Beta virt. eigenvalues --    0.32087   0.51139   0.51139   0.53415   0.66584

 Mulliken charges and spin densities:
               1          2
     1  C    0.338885   0.000000
     2  O   -0.338885  -0.000000
 Sum of Mulliken charges =  -0.00000  -0.00000

 Dipole moment (field-independent basis, Debye):
    X=              0.0000    Y=              0.0000    Z=             -3.7743  Tot=              3.7743
 Quadrupole moment (field-independent basis, Debye-Ang):
   XX=            -11.5494   YY=            -11.5494   ZZ=            -10.6126
   XY=              0.0000   XZ=              0.0000   YZ=              0.0000

 Summary of Natural Population Analysis:

                                       Natural Population
                Natural  -----------------------------------------------
    Atom  No    Charge         Core      Valence    Rydberg      Total
 -----------------------------------------------------------------------
      C    1    0.28112      1.00000     1.71793    0.00095     2.71888
      O    2   -0.28112      1.00000     3.28032    0.00081     4.28112
 =======================================================================
   * Total *   -0.00000      2.00000     4.99825    0.00176     7.00000

 Normal termination of Gaussian 16 at Mon Apr 21 19:30:48 2025.
