 Gaussian 16, Revision A.03,
 Gaussian 16:  ES64L-G16RevA.03 25-Dec-2016

 --------------------------------------------
 #p opt UM062X/6-311+G** nosymm int=superfine
 --------------------------------------------

 -------------------
 Title Card Required
 -------------------
 Symbolic Z-matrix:
 Charge = -1 Multiplicity = 2

 SCF Done:  E(UM062X) =  -50.5575749851     A.U. after   16 cycles
 SCF Done:  E(UM062X) =  -50.5618468318     A.U. after   17 cycles
 SCF Done:  E(UM062X) =  -50.5621337426     A.U. after   28 cycles
 Optimization completed.
    -- Stationary point found.

                          Input orientation:
 ---------------------------------------------------------------------
 Center     Atomic      Atomic             Coordinates (Angstroms)
 Number     Number       Type             X           Y           Z
 ---------------------------------------------------------------------
      1          5           0       -1.891404    0.000000    0.000000
      2          5           0        1.891404    0.000000    0.000000
      3          1           0       -3.159409   -0.000960    0.000000
      4          1           0        3.159409    0.000960   -0.000000
 ---------------------------------------------------------------------

 Alpha  occ. eigenvalues --   -6.91106  -6.91105  -0.34636  -0.34449  -0.09816
 Alpha  occ. eigenvalues --   -0.06254   0.02622
 Alpha virt. eigenvalues --    0.10663   0.12398   0.13834   0.15514   0.16195
 Alpha virt. eigenvalues --    0.21709   0.21884   0.22072   0.22641   0.23351
 Alpha virt. eigenvalues --    0.25595   0.33219   0.37326   0.50852   0.57889

  Beta  occ. eigenvalues --   -6.91023  -6.91023  -0.33582  -0.33490  -0.08695
  Beta  occ. eigenvalues --   -0.05247
  Beta virt. eigenvalues --    0.10548   0.11452   0.12401   0.12886   0.13455
  Beta virt. eigenvalues --    0.13783   0.19187   0.20184   0.20464   0.21401
  Beta virt. eigenvalues --    0.21454   0.22050   0.33047   0.37391   0.50559

 Mulliken charges and spin densities:
               1          2
     1  B   -0.408224   0.510942
     2  B   -0.408224   0.510942
     3  H   -0.091776  -0.010942
     4  H   -0.091776  -0.010942
 Sum of Mulliken charges =  -1.00000   1.00000

 Dipole moment (field-independent basis, Debye):
    X=             -0.0000    Y=              0.0000    Z=             -0.0000  Tot=              0.0000
 Quadrupole moment (field-independent basis, Debye-Ang):
   XX=            -38.4125   YY=            -19.1893   ZZ=            -26.6754
   XY=             -0.0043   XZ=              0.0000   YZ=             -0.0000

 Normal termination of Gaussian 16 at Mon Apr 21 17:29:00 2025.
