 Gaussian 16, Revision A.03,
 Gaussian 16:  ES64L-G16RevA.03 25-Dec-2016

 --------------------------------------------
 #p opt UM062X/6-311+G** nosymm int=superfine
 --------------------------------------------

 -------------------
 Title Card Required
 -------------------
 Symbolic Z-matrix:
 Charge =  0 Multiplicity = 1

 SCF Done:  E(UM062X) =  -83.1274295282     A.U. after   10 cycles
 SCF Done:  E(UM062X) =  -83.1421091713     A.U. after    9 cycles
 SCF Done:  E(UM062X) =  -83.1449854421     A.U. after    9 cycles
 SCF Done:  E(UM062X) =  -83.1450022774     A.U. after    7 cycles
 Optimization completed.
    -- Stationary point found.

                          Input orientation:
 ---------------------------------------------------------------------
 Center     Atomic      Atomic             Coordinates (Angstroms)
 Number     Number       Type             X           Y           Z
 ---------------------------------------------------------------------
      1          5           0       -1.627429    0.000000    0.000000
      2          7           0        1.627429    0.000000    0.000000
      3          1           0        1.988834   -0.946232    0.000001
      4          1           0       -1.650778   -0.594179    1.029111
      5          1           0        1.988725    0.473169   -0.819483
      6          1           0        1.988712    0.473166    0.819490
      7          1           0       -1.650789    1.188323    0.000015
      8          1           0       -1.650793   -0.594156   -1.029124
 ---------------------------------------------------------------------

 Alpha  occ. eigenvalues --  -14.73611  -7.03647  -0.96718  -0.56822  -0.54580
 Alpha  occ. eigenvalues --   -0.54579  -0.39255  -0.39255  -0.34960
 Alpha virt. eigenvalues --   -0.01394   0.02229   0.04823   0.04823   0.05696
 Alpha virt. eigenvalues --    0.08461   0.10908   0.10908   0.17562   0.17562
 Alpha virt. eigenvalues --    0.18022   0.19700   0.19700   0.23080   0.28339

  Beta  occ. eigenvalues --  -14.73611  -7.03647  -0.96718  -0.56822  -0.54580
  Beta  occ. eigenvalues --   -0.54579  -0.39255  -0.39255  -0.34960
  Beta virt. eigenvalues --   -0.01394   0.02229   0.04823   0.04823   0.05696
  Beta virt. eigenvalues --    0.08461   0.10908   0.10908   0.17562   0.17562
  Beta virt. eigenvalues --    0.18022   0.19700   0.19700   0.23080   0.28339

 Mulliken charges and spin densities:
               1          2
     1  B    0.012360   0.000000
     2  N   -0.741929  -0.000000
     3  H    0.251002   0.000000
     4  H   -0.007812  -0.000000
     5  H    0.251003   0.000000
     6  H    0.251003   0.000000
     7  H   -0.007815  -0.000000
     8  H   -0.007812  -0.000000
 Sum of Mulliken charges =  -0.00000  -0.00000

 Dipole moment (field-independent basis, Debye):
    X=              2.1896    Y=              0.0002    Z=              0.0000  Tot=              2.1896
 Quadrupole moment (field-independent basis, Debye-Ang):
   XX=            -11.2381   YY=            -15.7093   ZZ=            -15.7093
   XY=              0.0000   XZ=             -0.0000   YZ=              0.0000

 Normal termination of Gaussian 16 at Mon Apr 21 17:38:41 2025.
