 Gaussian 16, Revision A.03,
 Gaussian 16:  ES64L-G16RevA.03 25-Dec-2016

 --------------------------------------------
 #p opt UM062X/6-311+G** nosymm int=superfine
 --------------------------------------------

 -------------------
 Title Card Required
 -------------------
 Symbolic Z-matrix:
 Charge =  0 Multiplicity = 1

 SCF Done:  E(UM062X) =  -684.918765790     A.U. after   11 cycles
 SCF Done:  E(UM062X) =  -684.919588770     A.U. after   10 cycles
 SCF Done:  E(UM062X) =  -684.920211539     A.U. after   10 cycles
 SCF Done:  E(UM062X) =  -684.920691858     A.U. after   12 cycles
 SCF Done:  E(UM062X) =  -684.920863504     A.U. after   12 cycles
 SCF Done:  E(UM062X) =  -684.920939055     A.U. after   12 cycles
 SCF Done:  E(UM062X) =  -684.920954238     A.U. after   12 cycles
 SCF Done:  E(UM062X) =  -684.920974816     A.U. after   12 cycles
 SCF Done:  E(UM062X) =  -684.921002703     A.U. after   12 cycles
 SCF Done:  E(UM062X) =  -684.921032009     A.U. after   12 cycles
 SCF Done:  E(UM062X) =  -684.921055509     A.U. after   10 cycles
 SCF Done:  E(UM062X) =  -684.921116912     A.U. after   13 cycles
 SCF Done:  E(UM062X) =  -684.921165471     A.U. after    8 cycles
 SCF Done:  E(UM062X) =  -684.921126100     A.U. after   12 cycles
 SCF Done:  E(UM062X) =  -684.921163741     A.U. after   11 cycles
 SCF Done:  E(UM062X) =  -684.921160162     A.U. after   11 cycles
 SCF Done:  E(UM062X) =  -684.921165289     A.U. after   10 cycles
 SCF Done:  E(UM062X) =  -684.921165881     A.U. after   10 cycles
 SCF Done:  E(UM062X) =  -684.921165996     A.U. after    8 cycles
 SCF Done:  E(UM062X) =  -684.921166038     A.U. after    9 cycles
 Optimization completed.
    -- Stationary point found.

                          Input orientation:
 ---------------------------------------------------------------------
 Center     Atomic      Atomic             Coordinates (Angstroms)
 Number     Number       Type             X           Y           Z
 ---------------------------------------------------------------------
      1         15           0       -2.192217    0.000000    0.000000
      2         15           0        2.192217    0.000000    0.000000
      3          1           0        2.092665   -1.045569    0.953724
      4          1           0       -2.090733    1.097818    0.892975
      5          1           0        2.095230   -0.913964   -1.081019
      6          1           0       -2.094610    0.851280   -1.130889
 ---------------------------------------------------------------------

 Alpha  occ. eigenvalues --  -78.05048 -78.05048  -6.87443  -6.87442  -4.98992
 Alpha  occ. eigenvalues --   -4.98991  -4.98866  -4.98866  -4.98684  -4.98683
 Alpha  occ. eigenvalues --   -0.71216  -0.70862  -0.45121  -0.44980  -0.36278
 Alpha  occ. eigenvalues --   -0.36133  -0.24524
 Alpha virt. eigenvalues --   -0.14965   0.01605   0.02864   0.03210   0.04016
 Alpha virt. eigenvalues --    0.04841   0.05925   0.06083   0.06131   0.06183
 Alpha virt. eigenvalues --    0.07958   0.13512   0.18470   0.28690   0.29369

  Beta  occ. eigenvalues --  -78.05048 -78.05048  -6.87443  -6.87442  -4.98992
  Beta  occ. eigenvalues --   -4.98991  -4.98866  -4.98866  -4.98684  -4.98683
  Beta  occ. eigenvalues --   -0.71216  -0.70862  -0.45121  -0.44980  -0.36278
  Beta  occ. eigenvalues --   -0.36133  -0.24524
  Beta virt. eigenvalues --   -0.14965   0.01605   0.02864   0.03210   0.04016
  Beta virt. eigenvalues --    0.04841   0.05925   0.06083   0.06131   0.06183
  Beta virt. eigenvalues --    0.07958   0.13512   0.18470   0.28690   0.29369

 Mulliken charges and spin densities:
               1          2
     1  P   -0.002167   0.000000
     2  P   -0.002318  -0.000000
     3  H    0.001678   0.000000
     4  H    0.001690  -0.000000
     5  H    0.000563   0.000000
     6  H    0.000554  -0.000000
 Sum of Mulliken charges =  -0.00000  -0.00000

 Dipole moment (field-independent basis, Debye):
    X=              0.0005    Y=             -0.0045    Z=             -0.1654  Tot=              0.1655
 Quadrupole moment (field-independent basis, Debye-Ang):
   XX=            -28.6654   YY=            -31.2397   ZZ=            -28.5603
   XY=             -4.3957   XZ=              0.1257   YZ=              0.0759

 Normal termination of Gaussian 16 at Mon Apr 21 21:00:17 2025.
