 Gaussian 16, Revision A.03,
 Gaussian 16:  ES64L-G16RevA.03 25-Dec-2016

 --------------------------------------------
 #p opt UM062X/6-311+G** nosymm int=superfine
 --------------------------------------------

 -------------------
 Title Card Required
 -------------------
 Symbolic Z-matrix:
 Charge =  0 Multiplicity = 1

 SCF Done:  E(UM062X) =  -78.2023191422     A.U. after    9 cycles
 SCF Done:  E(UM062X) =  -78.2191048185     A.U. after    9 cycles
 SCF Done:  E(UM062X) =  -78.2341516572     A.U. after    8 cycles
 SCF Done:  E(UM062X) =  -78.2344753543     A.U. after    8 cycles
 SCF Done:  E(UM062X) =  -78.2344766573     A.U. after    7 cycles
 Optimization completed.
    -- Stationary point found.

                          Input orientation:
 ---------------------------------------------------------------------
 Center     Atomic      Atomic             Coordinates (Angstroms)
 Number     Number       Type             X           Y           Z
 ---------------------------------------------------------------------
      1          6           0       -2.210595    0.000000    0.000000
      2          6           0        2.210595    0.000000    0.000000
      3          1           0       -2.914807   -0.859126    0.000000
      4          1           0       -2.914777    0.859152    0.000000
      5          1           0        2.914807    0.859126    0.000000
      6          1           0        2.914777   -0.859152   -0.000000
 ---------------------------------------------------------------------

 Alpha  occ. eigenvalues --  -10.59708 -10.59708  -0.74679  -0.74663  -0.46430
 Alpha  occ. eigenvalues --   -0.46413  -0.30645  -0.29732
 Alpha virt. eigenvalues --   -0.07339  -0.07072   0.02511   0.02990   0.06475
 Alpha virt. eigenvalues --    0.08526   0.08572   0.10320   0.11753   0.15518
 Alpha virt. eigenvalues --    0.17487   0.19950   0.20554   0.20930   0.45170

  Beta  occ. eigenvalues --  -10.59708 -10.59708  -0.74679  -0.74663  -0.46430
  Beta  occ. eigenvalues --   -0.46413  -0.30645  -0.29732
  Beta virt. eigenvalues --   -0.07339  -0.07072   0.02511   0.02990   0.06475
  Beta virt. eigenvalues --    0.08526   0.08572   0.10320   0.11753   0.15518
  Beta virt. eigenvalues --    0.17487   0.19950   0.20554   0.20930   0.45170

 Mulliken charges and spin densities:
               1          2
     1  C   -0.240741   0.000000
     2  C   -0.240741  -0.000000
     3  H    0.120371  -0.000000
     4  H    0.120371  -0.000000
     5  H    0.120371  -0.000000
     6  H    0.120371   0.000000
 Sum of Mulliken charges =  -0.00000  -0.00000

 Dipole moment (field-independent basis, Debye):
    X=             -0.0000    Y=              0.0000    Z=              0.0000  Tot=              0.0000
 Quadrupole moment (field-independent basis, Debye-Ang):
   XX=             -1.0661   YY=            -14.5954   ZZ=            -12.9018
   XY=             -0.0001   XZ=             -0.0000   YZ=             -0.0000

 Normal termination of Gaussian 16 at Tue Dec  3 11:22:11 2024.
