 Gaussian 16, Revision A.03,
 Gaussian 16:  ES64L-G16RevA.03 25-Dec-2016

 --------------------------------------------
 #p opt UM062X/6-311+G** nosymm int=superfine
 --------------------------------------------

 -------------------
 Title Card Required
 -------------------
 Symbolic Z-matrix:
 Charge =  0 Multiplicity = 1

 SCF Done:  E(UM062X) =  -381.104832405     A.U. after   12 cycles
 SCF Done:  E(UM062X) =  -381.106681443     A.U. after   11 cycles
 SCF Done:  E(UM062X) =  -381.106767721     A.U. after   10 cycles
 SCF Done:  E(UM062X) =  -381.102054483     A.U. after   13 cycles
 SCF Done:  E(UM062X) =  -381.106645830     A.U. after   11 cycles
 SCF Done:  E(UM062X) =  -381.106874480     A.U. after    7 cycles
 SCF Done:  E(UM062X) =  -381.106874451     A.U. after   11 cycles
 SCF Done:  E(UM062X) =  -381.106940793     A.U. after    9 cycles
 SCF Done:  E(UM062X) =  -381.106941220     A.U. after    8 cycles
 SCF Done:  E(UM062X) =  -381.106941365     A.U. after    8 cycles
 Optimization completed.
    -- Stationary point found.

                          Input orientation:
 ---------------------------------------------------------------------
 Center     Atomic      Atomic             Coordinates (Angstroms)
 Number     Number       Type             X           Y           Z
 ---------------------------------------------------------------------
      1          6           0       -1.080452    0.000000    0.000000
      2         15           0        1.080452    0.000000    0.000000
      3          1           0       -1.612842   -0.943052    0.006638
      4          1           0        1.082937   -1.419743    0.010259
      5          1           0       -1.594242    0.952862   -0.006637
 ---------------------------------------------------------------------

 Alpha  occ. eigenvalues --  -78.05563 -10.61210  -6.87527  -4.99003  -4.98971
 Alpha  occ. eigenvalues --   -4.98806  -0.77189  -0.65919  -0.51647  -0.40454
 Alpha  occ. eigenvalues --   -0.35035  -0.27728
 Alpha virt. eigenvalues --   -0.08507  -0.00180   0.02261   0.04285   0.05365
 Alpha virt. eigenvalues --    0.05743   0.07104   0.07469   0.10521   0.11197
 Alpha virt. eigenvalues --    0.14957   0.19014   0.21207   0.30413   0.32065

  Beta  occ. eigenvalues --  -78.05563 -10.61210  -6.87527  -4.99003  -4.98971
  Beta  occ. eigenvalues --   -4.98806  -0.77189  -0.65919  -0.51647  -0.40454
  Beta  occ. eigenvalues --   -0.35035  -0.27728
  Beta virt. eigenvalues --   -0.08507  -0.00180   0.02261   0.04285   0.05365
  Beta virt. eigenvalues --    0.05743   0.07104   0.07469   0.10521   0.11197
  Beta virt. eigenvalues --    0.14957   0.19014   0.21207   0.30413   0.32065

 Mulliken charges and spin densities:
               1          2
     1  C   -0.455443   0.000000
     2  P    0.099275  -0.000000
     3  H    0.188353  -0.000000
     4  H   -0.021018   0.000000
     5  H    0.188833  -0.000000
 Sum of Mulliken charges =   0.00000  -0.00000

 Dipole moment (field-independent basis, Debye):
    X=             -0.7241    Y=             -0.5728    Z=              0.0042  Tot=              0.9232
 Quadrupole moment (field-independent basis, Debye-Ang):
   XX=            -19.0861   YY=            -20.0677   ZZ=            -23.8134
   XY=             -1.1754   XZ=              0.0084   YZ=             -0.0266

 Normal termination of Gaussian 16 at Mon Apr 21 19:13:22 2025.
