 Gaussian 16, Revision A.03,
 Gaussian 16:  ES64L-G16RevA.03 25-Dec-2016

 ---------------------------------------
 #p UM062X/6-311+G** force int=superfine
 ---------------------------------------

 -------------------
 Title Card Required
 -------------------
 Symbolic Z-matrix:
 Charge =  1 Multiplicity = 2

                         Standard orientation:
 ---------------------------------------------------------------------
 Center     Atomic      Atomic             Coordinates (Angstroms)
 Number     Number       Type             X           Y           Z
 ---------------------------------------------------------------------
      1          6           0        0.887257    0.930425   -1.692885
      2          6           0       -0.887258   -0.930421    1.692886
      3          1           0       -1.804941   -1.106496    1.144673
      4          1           0        0.771754    0.025829   -2.277724
      5          1           0       -0.772007   -0.026385    2.278644
      6          1           0       -0.113071   -1.688072    1.709327
      7          1           0        1.804886    1.106718   -1.144653
      8          1           0        0.113389    1.688383   -1.710275
 ---------------------------------------------------------------------

 SCF Done:  E(UM062X) =  -79.3150895019     A.U. after   10 cycles

 The electronic state is 2-A.
 Alpha  occ. eigenvalues --  -10.83050 -10.83049  -1.01656  -1.01427  -0.72754
 Alpha  occ. eigenvalues --   -0.72753  -0.72691  -0.72690  -0.46421
 Alpha virt. eigenvalues --   -0.37821  -0.12438  -0.10072  -0.09135  -0.09135
 Alpha virt. eigenvalues --   -0.06198  -0.06197  -0.04421  -0.02658   0.00424
 Alpha virt. eigenvalues --    0.00427   0.01486   0.01488   0.02366   0.09062

  Beta  occ. eigenvalues --  -10.82824 -10.82824  -0.98994  -0.98874  -0.72218
  Beta  occ. eigenvalues --   -0.72217  -0.72144  -0.72144
  Beta virt. eigenvalues --   -0.31829  -0.26685  -0.17059  -0.10452  -0.10450
  Beta virt. eigenvalues --   -0.10243  -0.06151  -0.06150  -0.05644  -0.01692
  Beta virt. eigenvalues --    0.00306   0.00310   0.01735   0.01737   0.02257

 Mulliken charges and spin densities:
               1          2
     1  C   -0.239815   0.558278
     2  C   -0.239813   0.558279
     3  H    0.246635  -0.019410
     4  H    0.246590  -0.019421
     5  H    0.246610  -0.019424
     6  H    0.246568  -0.019444
     7  H    0.246637  -0.019410
     8  H    0.246588  -0.019446
 Sum of Mulliken charges =   1.00000   1.00000

 Dipole moment (field-independent basis, Debye):
    X=              0.0000    Y=             -0.0000    Z=             -0.0000  Tot=              0.0000
 Quadrupole moment (field-independent basis, Debye-Ang):
   XX=             -7.4215   YY=             -7.0544   ZZ=              2.3385
   XY=              3.8787   XZ=             -7.0564   YZ=             -7.3982

 Normal termination of Gaussian 16 at Tue Nov 19 08:45:52 2024.
