 Gaussian 16, Revision A.03,
 Gaussian 16:  ES64L-G16RevA.03 25-Dec-2016

 --------------------------------------------
 #p opt UM062X/6-311+G** nosymm int=superfine
 --------------------------------------------

 -------------------
 Title Card Required
 -------------------
 Symbolic Z-matrix:
 Charge =  0 Multiplicity = 1

 SCF Done:  E(UM062X) =  -685.026579729     A.U. after   11 cycles
 SCF Done:  E(UM062X) =  -685.028130374     A.U. after   10 cycles
 SCF Done:  E(UM062X) =  -685.028451562     A.U. after   10 cycles
 SCF Done:  E(UM062X) =  -685.028464259     A.U. after    9 cycles
 SCF Done:  E(UM062X) =  -685.028468010     A.U. after    8 cycles
 SCF Done:  E(UM062X) =  -685.028471414     A.U. after    9 cycles
 SCF Done:  E(UM062X) =  -685.028473579     A.U. after    9 cycles
 SCF Done:  E(UM062X) =  -685.028473943     A.U. after    8 cycles
 SCF Done:  E(UM062X) =  -685.028473978     A.U. after    7 cycles
 Optimization completed.
    -- Stationary point found.

                          Input orientation:
 ---------------------------------------------------------------------
 Center     Atomic      Atomic             Coordinates (Angstroms)
 Number     Number       Type             X           Y           Z
 ---------------------------------------------------------------------
      1         15           0       -1.367217    0.000000    0.000000
      2         15           0        1.367217    0.000000    0.000000
      3          1           0        1.390784   -1.411539    0.118360
      4          1           0       -1.391062    1.414840   -0.067674
      5          1           0        1.437034   -0.053078   -1.414712
      6          1           0       -1.437046   -0.132912   -1.409485
 ---------------------------------------------------------------------

 Alpha  occ. eigenvalues --  -78.03920 -78.03920  -6.86315  -6.86314  -4.97857
 Alpha  occ. eigenvalues --   -4.97855  -4.97792  -4.97792  -4.97595  -4.97595
 Alpha  occ. eigenvalues --   -0.73192  -0.68579  -0.45102  -0.44901  -0.37363
 Alpha  occ. eigenvalues --   -0.34896  -0.29970
 Alpha virt. eigenvalues --   -0.05401   0.01174   0.03461   0.03693   0.03881
 Alpha virt. eigenvalues --    0.04332   0.05166   0.06185   0.06396   0.07844
 Alpha virt. eigenvalues --    0.09597   0.16018   0.19267   0.28466   0.28935

  Beta  occ. eigenvalues --  -78.03920 -78.03920  -6.86315  -6.86314  -4.97857
  Beta  occ. eigenvalues --   -4.97855  -4.97792  -4.97792  -4.97595  -4.97595
  Beta  occ. eigenvalues --   -0.73192  -0.68579  -0.45102  -0.44901  -0.37363
  Beta  occ. eigenvalues --   -0.34896  -0.29970
  Beta virt. eigenvalues --   -0.05401   0.01174   0.03461   0.03693   0.03881
  Beta virt. eigenvalues --    0.04332   0.05166   0.06185   0.06396   0.07844
  Beta virt. eigenvalues --    0.09597   0.16018   0.19267   0.28466   0.28935

 Mulliken charges and spin densities:
               1          2
     1  P   -0.047422  -0.000000
     2  P   -0.047400   0.000000
     3  H    0.026862  -0.000000
     4  H    0.026869   0.000000
     5  H    0.020547  -0.000000
     6  H    0.020544   0.000000
 Sum of Mulliken charges =  -0.00000  -0.00000

 Dipole moment (field-independent basis, Debye):
    X=              0.0000    Y=             -0.0746    Z=             -1.1337  Tot=              1.1361
 Quadrupole moment (field-independent basis, Debye-Ang):
   XX=            -30.5630   YY=            -29.4170   ZZ=            -29.5351
   XY=             -2.4615   XZ=              0.1619   YZ=             -0.0076

 Normal termination of Gaussian 16 at Mon Apr 21 20:47:17 2025.
