 Gaussian 16, Revision A.03,
 Gaussian 16:  ES64L-G16RevA.03 25-Dec-2016

 --------------------------------------------
 #p opt UM062X/6-311+G** nosymm int=superfine
 --------------------------------------------

 -------------------
 Title Card Required
 -------------------
 Symbolic Z-matrix:
 Charge =  1 Multiplicity = 2

 SCF Done:  E(UM062X) =  -77.9316093046     A.U. after   10 cycles
 SCF Done:  E(UM062X) =  -77.9756832149     A.U. after    9 cycles
 SCF Done:  E(UM062X) =  -78.0220369242     A.U. after   11 cycles
 SCF Done:  E(UM062X) =  -78.0320889229     A.U. after   10 cycles
 SCF Done:  E(UM062X) =  -78.0333239187     A.U. after    9 cycles
 SCF Done:  E(UM062X) =  -78.0333386577     A.U. after    7 cycles
 Optimization completed.
    -- Stationary point found.

                          Input orientation:
 ---------------------------------------------------------------------
 Center     Atomic      Atomic             Coordinates (Angstroms)
 Number     Number       Type             X           Y           Z
 ---------------------------------------------------------------------
      1          6           0       -1.074476    0.000000    0.000000
      2          6           0        1.074476    0.000000    0.000000
      3          1           0       -1.520845   -0.989546    0.000000
      4          1           0       -1.520805    0.989623    0.000000
      5          1           0        1.520845    0.989546    0.000000
      6          1           0        1.520805   -0.989623    0.000000
 ---------------------------------------------------------------------

 Alpha  occ. eigenvalues --  -10.92335 -10.92323  -1.05751  -1.00312  -0.80389
 Alpha  occ. eigenvalues --   -0.77870  -0.65216  -0.55184
 Alpha virt. eigenvalues --   -0.37188  -0.26979  -0.14001  -0.10961  -0.10280
 Alpha virt. eigenvalues --   -0.08245  -0.07516  -0.07093  -0.04752  -0.03990
 Alpha virt. eigenvalues --   -0.03154  -0.00184   0.01981   0.09272   0.17921

  Beta  occ. eigenvalues --  -10.92095 -10.92088  -1.02752  -0.98039  -0.79897
  Beta  occ. eigenvalues --   -0.77512  -0.63591
  Beta virt. eigenvalues --   -0.34710  -0.28246  -0.24693  -0.15250  -0.11255
  Beta virt. eigenvalues --   -0.10395  -0.07638  -0.07421  -0.07387  -0.04106
  Beta virt. eigenvalues --   -0.03854  -0.02655   0.00362   0.01091   0.10081

 Mulliken charges and spin densities:
               1          2
     1  C   -0.068130   0.541563
     2  C   -0.068131   0.541564
     3  H    0.284063  -0.020781
     4  H    0.284068  -0.020782
     5  H    0.284063  -0.020781
     6  H    0.284068  -0.020782
 Sum of Mulliken charges =   1.00000   1.00000

 Dipole moment (field-independent basis, Debye):
    X=             -0.0000    Y=             -0.0000    Z=              0.0000  Tot=              0.0000
 Quadrupole moment (field-independent basis, Debye-Ang):
   XX=             -1.1771   YY=             -8.0664   ZZ=            -12.6338
   XY=             -0.0001   XZ=              0.0000   YZ=              0.0000

 Normal termination of Gaussian 16 at Tue Nov 19 11:27:09 2024.
