 Gaussian 16, Revision A.03,
 Gaussian 16:  ES64L-G16RevA.03 25-Dec-2016

 --------------------------------------------
 #p opt UM062X/6-311+G** nosymm int=superfine
 --------------------------------------------

 -------------------
 Title Card Required
 -------------------
 Symbolic Z-matrix:
 Charge =  0 Multiplicity = 1

 SCF Done:  E(UM062X) =  -685.047031547     A.U. after   10 cycles
 SCF Done:  E(UM062X) =  -685.047715580     A.U. after    9 cycles
 SCF Done:  E(UM062X) =  -685.047797226     A.U. after    9 cycles
 SCF Done:  E(UM062X) =  -685.047798216     A.U. after    8 cycles
 SCF Done:  E(UM062X) =  -685.047798458     A.U. after    7 cycles
 SCF Done:  E(UM062X) =  -685.047798493     A.U. after    7 cycles
 Optimization completed.
    -- Stationary point found.

                          Input orientation:
 ---------------------------------------------------------------------
 Center     Atomic      Atomic             Coordinates (Angstroms)
 Number     Number       Type             X           Y           Z
 ---------------------------------------------------------------------
      1         15           0       -1.242217    0.000000    0.000000
      2         15           0        1.242217    0.000000    0.000000
      3          1           0        1.304652   -1.414293    0.012998
      4          1           0       -1.304481    1.404364   -0.167892
      5          1           0        1.383269    0.070485   -1.407444
      6          1           0       -1.383329   -0.249572   -1.386929
 ---------------------------------------------------------------------

 Alpha  occ. eigenvalues --  -78.03353 -78.03353  -6.85845  -6.85843  -4.97392
 Alpha  occ. eigenvalues --   -4.97385  -4.97346  -4.97346  -4.97138  -4.97137
 Alpha  occ. eigenvalues --   -0.74687  -0.67740  -0.45532  -0.45304  -0.38897
 Alpha  occ. eigenvalues --   -0.34007  -0.30691
 Alpha virt. eigenvalues --   -0.02446   0.00947   0.03564   0.03830   0.04091
 Alpha virt. eigenvalues --    0.04199   0.05023   0.06354   0.06475   0.07959
 Alpha virt. eigenvalues --    0.10087   0.15574   0.19213   0.28526   0.29280

  Beta  occ. eigenvalues --  -78.03353 -78.03353  -6.85845  -6.85843  -4.97392
  Beta  occ. eigenvalues --   -4.97385  -4.97346  -4.97346  -4.97138  -4.97137
  Beta  occ. eigenvalues --   -0.74687  -0.67740  -0.45532  -0.45304  -0.38897
  Beta  occ. eigenvalues --   -0.34007  -0.30691
  Beta virt. eigenvalues --   -0.02446   0.00947   0.03564   0.03830   0.04091
  Beta virt. eigenvalues --    0.04199   0.05023   0.06354   0.06475   0.07959
  Beta virt. eigenvalues --    0.10087   0.15574   0.19213   0.28526   0.29280

 Mulliken charges and spin densities:
               1          2
     1  P   -0.050774  -0.000000
     2  P   -0.050752   0.000000
     3  H    0.026480  -0.000000
     4  H    0.026471   0.000000
     5  H    0.024288  -0.000000
     6  H    0.024288   0.000000
 Sum of Mulliken charges =  -0.00000   0.00000

 Dipole moment (field-independent basis, Debye):
    X=              0.0001    Y=             -0.0805    Z=             -1.2534  Tot=              1.2559
 Quadrupole moment (field-independent basis, Debye-Ang):
   XX=            -31.0066   YY=            -28.9742   ZZ=            -29.6429
   XY=             -2.2039   XZ=              0.1414   YZ=             -0.0434

 Normal termination of Gaussian 16 at Mon Apr 21 20:43:36 2025.
