 Gaussian 16, Revision A.03,
 Gaussian 16:  ES64L-G16RevA.03 25-Dec-2016

 --------------------------------------------
 #p opt UM062X/6-311+G** nosymm int=superfine
 --------------------------------------------

 -------------------
 Title Card Required
 -------------------
 Symbolic Z-matrix:
 Charge = -1 Multiplicity = 2

 SCF Done:  E(UM062X) =  -50.6182684113     A.U. after   14 cycles
 SCF Done:  E(UM062X) =  -50.6182699831     A.U. after    8 cycles
 Optimization completed.
    -- Stationary point found.

                          Input orientation:
 ---------------------------------------------------------------------
 Center     Atomic      Atomic             Coordinates (Angstroms)
 Number     Number       Type             X           Y           Z
 ---------------------------------------------------------------------
      1          5           0       -1.141404    0.000000    0.000000
      2          5           0        1.141404    0.000000    0.000000
      3          1           0       -2.323873   -0.000903   -0.000000
      4          1           0        2.323873    0.000903    0.000000
 ---------------------------------------------------------------------

 Alpha  occ. eigenvalues --   -6.92302  -6.92289  -0.36963  -0.34824  -0.16829
 Alpha  occ. eigenvalues --   -0.01669  -0.00456
 Alpha virt. eigenvalues --    0.13710   0.14262   0.14813   0.15282   0.18460
 Alpha virt. eigenvalues --    0.20245   0.21345   0.21516   0.22458   0.23105
 Alpha virt. eigenvalues --    0.26136   0.37556   0.40797   0.55591   0.58470

  Beta  occ. eigenvalues --   -6.92253  -6.92245  -0.35326  -0.33899  -0.15512
  Beta  occ. eigenvalues --    0.01181
  Beta virt. eigenvalues --    0.10434   0.13778   0.14056   0.14724   0.15554
  Beta virt. eigenvalues --    0.19141   0.19216   0.20531   0.20596   0.23822
  Beta virt. eigenvalues --    0.24325   0.24788   0.37738   0.40884   0.55002

 Mulliken charges and spin densities:
               1          2
     1  B   -0.521321   0.526474
     2  B   -0.521321   0.526474
     3  H    0.021321  -0.026474
     4  H    0.021321  -0.026474
 Sum of Mulliken charges =  -1.00000   1.00000

 Dipole moment (field-independent basis, Debye):
    X=              0.0000    Y=              0.0000    Z=              0.0000  Tot=              0.0000
 Quadrupole moment (field-independent basis, Debye-Ang):
   XX=            -23.8738   YY=            -30.9823   ZZ=            -23.7225
   XY=              0.0083   XZ=              0.0000   YZ=             -0.0000

 Normal termination of Gaussian 16 at Mon Apr 21 17:30:50 2025.
