 Gaussian 16, Revision A.03,
 Gaussian 16:  ES64L-G16RevA.03 25-Dec-2016

 --------------------------------------------
 #p opt UM062X/6-311+G** nosymm int=superfine
 --------------------------------------------

 -------------------
 Title Card Required
 -------------------
 Symbolic Z-matrix:
 Charge =  0 Multiplicity = 1

 SCF Done:  E(UM062X) =  -683.643523082     A.U. after   12 cycles
 SCF Done:  E(UM062X) =  -683.644353042     A.U. after   10 cycles
 SCF Done:  E(UM062X) =  -683.644803027     A.U. after   10 cycles
 SCF Done:  E(UM062X) =  -683.644803653     A.U. after   10 cycles
 Optimization completed.
    -- Stationary point found.

                          Input orientation:
 ---------------------------------------------------------------------
 Center     Atomic      Atomic             Coordinates (Angstroms)
 Number     Number       Type             X           Y           Z
 ---------------------------------------------------------------------
      1         15           0       -1.784490    0.000000    0.000000
      2         15           0        1.784490    0.000000    0.000000
      3          1           0       -1.689940   -1.420027   -0.000000
      4          1           0        1.689940    1.420027   -0.000000
 ---------------------------------------------------------------------

 Alpha  occ. eigenvalues --  -78.08508 -78.08508  -6.90481  -6.90481  -5.01890
 Alpha  occ. eigenvalues --   -5.01890  -5.01888  -5.01888  -5.01694  -5.01694
 Alpha  occ. eigenvalues --   -0.69046  -0.67566  -0.40632  -0.40221  -0.27637
 Alpha  occ. eigenvalues --   -0.24976
 Alpha virt. eigenvalues --   -0.15940  -0.12896   0.01983   0.03067   0.03736
 Alpha virt. eigenvalues --    0.04640   0.05346   0.05860   0.06538   0.08097
 Alpha virt. eigenvalues --    0.08688   0.11999   0.27730   0.30102   0.30148

  Beta  occ. eigenvalues --  -78.08508 -78.08508  -6.90481  -6.90481  -5.01890
  Beta  occ. eigenvalues --   -5.01890  -5.01888  -5.01888  -5.01694  -5.01694
  Beta  occ. eigenvalues --   -0.69046  -0.67566  -0.40632  -0.40221  -0.27637
  Beta  occ. eigenvalues --   -0.24976
  Beta virt. eigenvalues --   -0.15940  -0.12896   0.01983   0.03067   0.03736
  Beta virt. eigenvalues --    0.04640   0.05346   0.05860   0.06538   0.08097
  Beta virt. eigenvalues --    0.08688   0.11999   0.27730   0.30102   0.30148

 Mulliken charges and spin densities:
               1          2
     1  P    0.006044  -0.000000
     2  P    0.006044   0.000000
     3  H   -0.006044   0.000000
     4  H   -0.006044  -0.000000
 Sum of Mulliken charges =  -0.00000  -0.00000

 Dipole moment (field-independent basis, Debye):
    X=             -0.0000    Y=              0.0000    Z=             -0.0000  Tot=              0.0000
 Quadrupole moment (field-independent basis, Debye-Ang):
   XX=            -26.9080   YY=            -28.4018   ZZ=            -30.8400
   XY=              2.9699   XZ=             -0.0000   YZ=             -0.0000

 Normal termination of Gaussian 16 at Mon Apr 21 21:13:20 2025.
