 Gaussian 16, Revision A.03,
 Gaussian 16:  ES64L-G16RevA.03 25-Dec-2016

 --------------------------------------------
 #p opt UM062X/6-311+G** nosymm int=superfine
 --------------------------------------------

 -------------------
 Title Card Required
 -------------------
 Symbolic Z-matrix:
 Charge =  0 Multiplicity = 3

 SCF Done:  E(UM062X) =  -50.4936591648     A.U. after   13 cycles
 SCF Done:  E(UM062X) =  -50.4945659240     A.U. after   10 cycles
 SCF Done:  E(UM062X) =  -50.4945726033     A.U. after   11 cycles
 Optimization completed.
    -- Stationary point found.

                          Input orientation:
 ---------------------------------------------------------------------
 Center     Atomic      Atomic             Coordinates (Angstroms)
 Number     Number       Type             X           Y           Z
 ---------------------------------------------------------------------
      1          5           0       -1.728410    0.000000    0.000000
      2          5           0        1.728410    0.000000    0.000000
      3          1           0       -2.933667   -0.000082   -0.000000
      4          1           0        2.933667    0.000082    0.000000
 ---------------------------------------------------------------------

 Alpha  occ. eigenvalues --   -7.14191  -7.14190  -0.56799  -0.56458  -0.34239
 Alpha  occ. eigenvalues --   -0.29229  -0.18278
 Alpha virt. eigenvalues --   -0.09214  -0.06562  -0.04964   0.02650   0.02802
 Alpha virt. eigenvalues --    0.05923   0.07159   0.07185   0.08140   0.08238
 Alpha virt. eigenvalues --    0.11827   0.17968   0.22499   0.34374   0.39148

  Beta  occ. eigenvalues --   -7.13270  -7.13269  -0.53461  -0.53233  -0.25151
  Beta virt. eigenvalues --   -0.09420  -0.04712  -0.04212  -0.02624  -0.02151
  Beta virt. eigenvalues --    0.01764   0.02526   0.06994   0.07298   0.07469
  Beta virt. eigenvalues --    0.08221   0.09188   0.09617   0.18930   0.23813

 Mulliken charges and spin densities:
               1          2
     1  B   -0.066432   0.921015
     2  B   -0.066432   0.921015
     3  H    0.066432   0.078985
     4  H    0.066432   0.078985
 Sum of Mulliken charges =  -0.00000   2.00000

 Dipole moment (field-independent basis, Debye):
    X=             -0.0000    Y=             -0.0000    Z=             -0.0000  Tot=              0.0000
 Quadrupole moment (field-independent basis, Debye-Ang):
   XX=             -8.9793   YY=            -13.6238   ZZ=            -17.6661
   XY=              0.0000   XZ=              0.0000   YZ=              0.0099

 1\1\GINC-NODE06\FOpt\UM062X\6-311+G(d,p)\B2H2(3)\SZHAO\21-Apr-2025\0\\
 #p opt UM062X/6-311+G** nosymm int=superfine\\Title Card Required\\0,3
 \B,-1.72841047,0.,0.\B,1.72841047,0.,0.\H,-2.9336668175,-0.0000822124,
 -0.0000003609\H,2.9336668266,0.0000822113,0.0000000422\\Version=ES64L-
 G16RevA.03\HF=-50.4945726\S2=2.016466\S2-1=0.\S2A=2.000014\RMSD=1.301e
 -09\RMSF=4.780e-07\Dipole=0.,0.,0.\Quadrupole=3.303795,-0.1492318,-3.1
 545633,0.0000094,0.,0.0073697\PG=C*V [C*(H1B1B1H1)]\\@

 Normal termination of Gaussian 16 at Mon Apr 21 17:29:08 2025.
