 Gaussian 16, Revision A.03,
 Gaussian 16:  ES64L-G16RevA.03 25-Dec-2016

 ---------------------------------------------------------
 #p opt UM062X/6-311+G** nosymm int=superfine SCF=NoVarAcc
 ---------------------------------------------------------

 -------------------
 Title Card Required
 -------------------
 Symbolic Z-matrix:
 Charge =  1 Multiplicity = 2

 SCF Done:  E(UM062X) =  -77.9613588026     A.U. after    9 cycles
 SCF Done:  E(UM062X) =  -77.9615405519     A.U. after    8 cycles
 SCF Done:  E(UM062X) =  -77.9616169513     A.U. after    8 cycles
 Optimization completed.
    -- Stationary point found.

                          Input orientation:
 ---------------------------------------------------------------------
 Center     Atomic      Atomic             Coordinates (Angstroms)
 Number     Number       Type             X           Y           Z
 ---------------------------------------------------------------------
      1          6           0       -1.256027    0.000000    0.000000
      2          6           0        1.256027    0.000000    0.000000
      3          1           0       -1.665172   -1.005468    0.000000
      4          1           0       -1.665167    1.005473   -0.000000
      5          1           0        1.665172    1.005468    0.000000
      6          1           0        1.665167   -1.005473    0.000000
 ---------------------------------------------------------------------

 Alpha  occ. eigenvalues --  -10.92311 -10.92304  -1.03657  -1.00820  -0.79762
 Alpha  occ. eigenvalues --   -0.78611  -0.60055  -0.52518
 Alpha virt. eigenvalues --   -0.38717  -0.32830  -0.13582  -0.10798  -0.10474
 Alpha virt. eigenvalues --   -0.07887  -0.07553  -0.06751  -0.04665  -0.04099
 Alpha virt. eigenvalues --   -0.03451   0.00883   0.01714   0.09214   0.18539

  Beta  occ. eigenvalues --  -10.92056 -10.92051  -1.00812  -0.98411  -0.79351
  Beta  occ. eigenvalues --   -0.78252  -0.58271
  Beta virt. eigenvalues --   -0.32930  -0.30634  -0.29131  -0.14693  -0.11044
  Beta virt. eigenvalues --   -0.10700  -0.07393  -0.07365  -0.06903  -0.03801
  Beta virt. eigenvalues --   -0.03771  -0.03590   0.00482   0.01307   0.10174

 Mulliken charges and spin densities:
               1          2
     1  C   -0.066923   0.541832
     2  C   -0.066923   0.541832
     3  H    0.283462  -0.020916
     4  H    0.283462  -0.020916
     5  H    0.283462  -0.020916
     6  H    0.283462  -0.020916
 Sum of Mulliken charges =   1.00000   1.00000

 Dipole moment (field-independent basis, Debye):
    X=             -0.0000    Y=             -0.0000    Z=              0.0000  Tot=              0.0000
 Quadrupole moment (field-independent basis, Debye-Ang):
   XX=              1.6315   YY=             -7.8940   ZZ=            -12.8781
   XY=              0.0000   XZ=              0.0000   YZ=              0.0000

 Normal termination of Gaussian 16 at Tue Dec  3 13:22:43 2024.
