 Gaussian 16, Revision A.03,
 Gaussian 16:  ES64L-G16RevA.03 25-Dec-2016

 --------------------------------------------
 #p opt UM062X/6-311+G** nosymm int=superfine
 --------------------------------------------

 -------------------
 Title Card Required
 -------------------
 Symbolic Z-matrix:
 Charge =  0 Multiplicity = 1

 SCF Done:  E(UM062X) =  -685.043398680     A.U. after   10 cycles
 SCF Done:  E(UM062X) =  -685.044277171     A.U. after    9 cycles
 SCF Done:  E(UM062X) =  -685.044395786     A.U. after    9 cycles
 SCF Done:  E(UM062X) =  -685.044397872     A.U. after    8 cycles
 SCF Done:  E(UM062X) =  -685.044398393     A.U. after    8 cycles
 SCF Done:  E(UM062X) =  -685.044398548     A.U. after    7 cycles
 Optimization completed.
    -- Stationary point found.

                          Input orientation:
 ---------------------------------------------------------------------
 Center     Atomic      Atomic             Coordinates (Angstroms)
 Number     Number       Type             X           Y           Z
 ---------------------------------------------------------------------
      1         15           0       -1.267217    0.000000    0.000000
      2         15           0        1.267217    0.000000    0.000000
      3          1           0        1.321011   -1.414788    0.021342
      4          1           0       -1.320888    1.405833   -0.160489
      5          1           0        1.392181    0.057640   -1.409803
      6          1           0       -1.392354   -0.237887   -1.390767
 ---------------------------------------------------------------------

 Alpha  occ. eigenvalues --  -78.03478 -78.03478  -6.85945  -6.85943  -4.97490
 Alpha  occ. eigenvalues --   -4.97484  -4.97441  -4.97441  -4.97235  -4.97234
 Alpha  occ. eigenvalues --   -0.74328  -0.67920  -0.45397  -0.45218  -0.38562
 Alpha  occ. eigenvalues --   -0.34183  -0.30577
 Alpha virt. eigenvalues --   -0.03055   0.00990   0.03562   0.03810   0.04076
 Alpha virt. eigenvalues --    0.04150   0.05045   0.06323   0.06455   0.07921
 Alpha virt. eigenvalues --    0.09976   0.15698   0.19201   0.28594   0.29214

  Beta  occ. eigenvalues --  -78.03478 -78.03478  -6.85945  -6.85943  -4.97490
  Beta  occ. eigenvalues --   -4.97484  -4.97441  -4.97441  -4.97235  -4.97234
  Beta  occ. eigenvalues --   -0.74328  -0.67920  -0.45397  -0.45218  -0.38562
  Beta  occ. eigenvalues --   -0.34183  -0.30577
  Beta virt. eigenvalues --   -0.03055   0.00990   0.03562   0.03810   0.04076
  Beta virt. eigenvalues --    0.04150   0.05045   0.06323   0.06455   0.07921
  Beta virt. eigenvalues --    0.09976   0.15698   0.19201   0.28594   0.29214

 Mulliken charges and spin densities:
               1          2
     1  P   -0.050162   0.000000
     2  P   -0.050120   0.000000
     3  H    0.026556  -0.000000
     4  H    0.026547  -0.000000
     5  H    0.023588  -0.000000
     6  H    0.023591   0.000000
 Sum of Mulliken charges =  -0.00000   0.00000

 Dipole moment (field-independent basis, Debye):
    X=              0.0002    Y=             -0.0796    Z=             -1.2341  Tot=              1.2366
 Quadrupole moment (field-independent basis, Debye-Ang):
   XX=            -30.9304   YY=            -29.0440   ZZ=            -29.6447
   XY=             -2.2311   XZ=              0.1439   YZ=             -0.0392

 Normal termination of Gaussian 16 at Mon Apr 21 20:45:55 2025.
