 Gaussian 16, Revision A.03,
 Gaussian 16:  ES64L-G16RevA.03 25-Dec-2016

 --------------------------------------------
 #p opt UM062X/6-311+G** nosymm int=superfine
 --------------------------------------------

 -------------------
 Title Card Required
 -------------------
 Symbolic Z-matrix:
 Charge =  0 Multiplicity = 1

 SCF Done:  E(UM062X) =  -95.6306763394     A.U. after   13 cycles
 SCF Done:  E(UM062X) =  -95.6479588947     A.U. after   11 cycles
 SCF Done:  E(UM062X) =  -95.6585715704     A.U. after   12 cycles
 SCF Done:  E(UM062X) =  -95.6587692963     A.U. after   11 cycles
 SCF Done:  E(UM062X) =  -95.6588225679     A.U. after   10 cycles
 SCF Done:  E(UM062X) =  -95.6588407255     A.U. after   14 cycles
 SCF Done:  E(UM062X) =  -95.6588443716     A.U. after   12 cycles
 SCF Done:  E(UM062X) =  -95.6588466280     A.U. after    9 cycles
 SCF Done:  E(UM062X) =  -95.6588469003     A.U. after    8 cycles
 Optimization completed.
    -- Stationary point found.

                          Input orientation:
 ---------------------------------------------------------------------
 Center     Atomic      Atomic             Coordinates (Angstroms)
 Number     Number       Type             X           Y           Z
 ---------------------------------------------------------------------
      1          6           0       -1.455542    0.000000    0.000000
      2          7           0        1.455542    0.000000    0.000000
      3          1           0        1.446759   -1.016045    0.138380
      4          1           0       -1.512138    1.078775    0.004818
      5          1           0        1.446699    0.367264    0.957398
      6          1           0       -1.512038   -0.521164   -0.944552
      7          1           0       -1.620299   -0.545161    0.918727
 ---------------------------------------------------------------------

 Alpha  occ. eigenvalues --  -14.75132 -10.61285  -0.90290  -0.79923  -0.52061
 Alpha  occ. eigenvalues --   -0.51922  -0.50604  -0.36011  -0.27712
 Alpha virt. eigenvalues --   -0.10416   0.01687   0.04861   0.05359   0.06819
 Alpha virt. eigenvalues --    0.10224   0.13323   0.15966   0.16706   0.17480
 Alpha virt. eigenvalues --    0.19582   0.21367   0.22230   0.30627   0.41334

  Beta  occ. eigenvalues --  -14.75132 -10.61285  -0.90290  -0.79923  -0.52061
  Beta  occ. eigenvalues --   -0.51922  -0.50604  -0.36011  -0.27712
  Beta virt. eigenvalues --   -0.10416   0.01687   0.04861   0.05359   0.06819
  Beta virt. eigenvalues --    0.10224   0.13323   0.15966   0.16706   0.17480
  Beta virt. eigenvalues --    0.19582   0.21367   0.22230   0.30627   0.41334

 Mulliken charges and spin densities:
               1          2
     1  C   -0.428233  -0.000001
     2  N   -0.595654   0.000001
     3  H    0.221278  -0.000000
     4  H    0.199013   0.000000
     5  H    0.221276  -0.000000
     6  H    0.199043   0.000000
     7  H    0.183277   0.000000
 Sum of Mulliken charges =  -0.00000  -0.00000

 Dipole moment (field-independent basis, Debye):
    X=             -2.6630    Y=             -0.9659    Z=              1.6314  Tot=              3.2689
 Quadrupole moment (field-independent basis, Debye-Ang):
   XX=            -15.2296   YY=            -13.3504   ZZ=            -14.1572
   XY=             -1.5620   XZ=              2.6380   YZ=              0.7355

 Normal termination of Gaussian 16 at Mon Apr 21 18:13:35 2025.
