 Gaussian 16, Revision A.03,
 Gaussian 16:  ES64L-G16RevA.03 25-Dec-2016

 --------------------------------------------
 #p opt UM062X/6-311+G** nosymm int=superfine
 --------------------------------------------

 -------------------
 Title Card Required
 -------------------
 Symbolic Z-matrix:
 Charge =  0 Multiplicity = 1

 SCF Done:  E(UM062X) =  -379.562584932     A.U. after   16 cycles
 SCF Done:  E(UM062X) =  -379.564010248     A.U. after   10 cycles
 SCF Done:  E(UM062X) =  -379.564016437     A.U. after    8 cycles
 Optimization completed.
    -- Stationary point found.

                          Input orientation:
 ---------------------------------------------------------------------
 Center     Atomic      Atomic             Coordinates (Angstroms)
 Number     Number       Type             X           Y           Z
 ---------------------------------------------------------------------
      1          6           0       -1.915377    0.000000    0.000000
      2         15           0        1.915377    0.000000    0.000000
      3          1           0       -3.038149   -0.000000    0.000000
 ---------------------------------------------------------------------

 Alpha  occ. eigenvalues --  -78.07058 -10.72071  -6.88963  -5.00875  -4.99937
 Alpha  occ. eigenvalues --   -4.99937  -0.76818  -0.60373  -0.42491  -0.23606
 Alpha  occ. eigenvalues --   -0.23606
 Alpha virt. eigenvalues --   -0.15633  -0.15633  -0.11728   0.01078   0.04120
 Alpha virt. eigenvalues --    0.05978   0.05978   0.07662   0.08437   0.08437
 Alpha virt. eigenvalues --    0.13039   0.16081   0.33066   0.33402   0.33402

  Beta  occ. eigenvalues --  -78.07058 -10.72071  -6.88963  -5.00875  -4.99937
  Beta  occ. eigenvalues --   -4.99937  -0.76818  -0.60373  -0.42491  -0.23606
  Beta  occ. eigenvalues --   -0.23606
  Beta virt. eigenvalues --   -0.15633  -0.15633  -0.11728   0.01078   0.04120
  Beta virt. eigenvalues --    0.05978   0.05978   0.07662   0.08437   0.08437
  Beta virt. eigenvalues --    0.13039   0.16081   0.33066   0.33402   0.33402

 Mulliken charges and spin densities:
               1          2
     1  C   -0.094992  -0.000000
     2  P   -0.069315   0.000000
     3  H    0.164307   0.000000
 Sum of Mulliken charges =  -0.00000  -0.00000

 Dipole moment (field-independent basis, Debye):
    X=             -3.3265    Y=             -0.0000    Z=              0.0000  Tot=              3.3265
 Quadrupole moment (field-independent basis, Debye-Ang):
   XX=            -10.0675   YY=            -24.1778   ZZ=            -24.1778
   XY=             -0.0000   XZ=              0.0000   YZ=              0.0000

 Normal termination of Gaussian 16 at Mon Apr 21 19:25:09 2025.
