 Gaussian 16, Revision A.03,
 Gaussian 16:  ES64L-G16RevA.03 25-Dec-2016

 --------------------------------------------
 #p opt UM062X/6-311+G** nosymm int=superfine
 --------------------------------------------

 -------------------
 Title Card Required
 -------------------
 Symbolic Z-matrix:
 Charge = -1 Multiplicity = 2

 SCF Done:  E(UM062X) =  -50.7851911489     A.U. after   11 cycles

 Alpha  occ. eigenvalues --   -6.81095  -6.80985  -0.36253  -0.29140  -0.20024
 Alpha  occ. eigenvalues --   -0.03169  -0.01486
 Alpha virt. eigenvalues --    0.14342   0.15632   0.18443   0.19027   0.20175
 Alpha virt. eigenvalues --    0.21261   0.21862   0.26301   0.28480   0.29554
 Alpha virt. eigenvalues --    0.34047   0.39800   0.52092   0.55749   0.59197

  Beta  occ. eigenvalues --   -6.81046  -6.80941  -0.33428  -0.28242  -0.19532
  Beta  occ. eigenvalues --    0.00589
  Beta virt. eigenvalues --    0.11660   0.14556   0.15176   0.17544   0.19295
  Beta virt. eigenvalues --    0.19520   0.21067   0.21690   0.24254   0.31271
  Beta virt. eigenvalues --    0.32030   0.35167   0.40239   0.52869   0.56261

 Mulliken charges and spin densities:
               1          2
     1  B   -0.445870   0.525653
     2  B   -0.445870   0.525653
     3  H   -0.054130  -0.025653
     4  H   -0.054130  -0.025653
 Sum of Mulliken charges =  -1.00000   1.00000

 Dipole moment (field-independent basis, Debye):
    X=              0.0000    Y=             -0.0000    Z=              0.0000  Tot=              0.0000
 Quadrupole moment (field-independent basis, Debye-Ang):
   XX=            -22.2141   YY=            -26.4187   ZZ=            -20.3344
   XY=              0.0038   XZ=             -0.0000   YZ=              0.0000

 Optimization completed.
    -- Stationary point found.

                          Input orientation:
 ---------------------------------------------------------------------
 Center     Atomic      Atomic             Coordinates (Angstroms)
 Number     Number       Type             X           Y           Z
 ---------------------------------------------------------------------
      1          5           0       -0.766404    0.000000    0.000000
      2          5           0        0.766404    0.000000    0.000000
      3          1           0       -1.950183   -0.000904    0.000000
      4          1           0        1.950183    0.000904    0.000000
 ---------------------------------------------------------------------

 Normal termination of Gaussian 16 at Mon Apr 21 17:30:03 2025.
