 Gaussian 16, Revision A.03,
 Gaussian 16:  ES64L-G16RevA.03 25-Dec-2016

 --------------------------------------------
 #p opt UM062X/6-311+G** nosymm int=superfine
 --------------------------------------------

 -------------------
 Title Card Required
 -------------------
 Symbolic Z-matrix:
 Charge =  0 Multiplicity = 1

 SCF Done:  E(UM062X) =  -79.6959086436     A.U. after    8 cycles
 SCF Done:  E(UM062X) =  -79.7210088493     A.U. after    8 cycles
 SCF Done:  E(UM062X) =  -79.7370791856     A.U. after   10 cycles
 SCF Done:  E(UM062X) =  -79.7373003332     A.U. after    7 cycles
 Optimization completed.
    -- Stationary point found.

                          Input orientation:
 ---------------------------------------------------------------------
 Center     Atomic      Atomic             Coordinates (Angstroms)
 Number     Number       Type             X           Y           Z
 ---------------------------------------------------------------------
      1          6           0       -1.023153    0.000000    0.000000
      2          6           0        1.023257    0.000000    0.000000
      3          1           0        1.307049   -0.906455    0.524551
      4          1           0       -1.306946   -0.907480   -0.522783
      5          1           0        1.307052    0.907479    0.522782
      6          1           0        1.307119   -0.001023   -1.047269
      7          1           0       -1.306944    0.906455   -0.524550
      8          1           0       -1.307017    0.001022    1.047267
 ---------------------------------------------------------------------

 Alpha  occ. eigenvalues --  -10.54649 -10.54640  -0.78916  -0.72655  -0.48382
 Alpha  occ. eigenvalues --   -0.48381  -0.44464  -0.44463  -0.32914
 Alpha virt. eigenvalues --    0.02344   0.02459   0.05630   0.05630   0.08476
 Alpha virt. eigenvalues --    0.08476   0.09533   0.10799   0.13677   0.18192
 Alpha virt. eigenvalues --    0.18193   0.22043   0.22043   0.24302   0.26938

  Beta  occ. eigenvalues --  -10.54649 -10.54640  -0.78916  -0.72655  -0.48382
  Beta  occ. eigenvalues --   -0.48381  -0.44464  -0.44463  -0.32914
  Beta virt. eigenvalues --    0.02344   0.02459   0.05630   0.05630   0.08476
  Beta virt. eigenvalues --    0.08476   0.09533   0.10799   0.13677   0.18192
  Beta virt. eigenvalues --    0.18193   0.22043   0.22043   0.24302   0.26938

 Mulliken charges and spin densities:
               1          2
     1  C   -0.498721  -0.000000
     2  C   -0.498721   0.000000
     3  H    0.166241  -0.000000
     4  H    0.166240   0.000000
     5  H    0.166241   0.000000
     6  H    0.166239   0.000000
     7  H    0.166241   0.000000
     8  H    0.166239  -0.000000
 Sum of Mulliken charges =  -0.00000  -0.00000

 Dipole moment (field-independent basis, Debye):
    X=             -0.0000    Y=              0.0000    Z=              0.0000  Tot=              0.0000
 Quadrupole moment (field-independent basis, Debye-Ang):
   XX=            -15.5924   YY=            -14.8734   ZZ=            -14.8732
   XY=              0.0000   XZ=             -0.0001   YZ=              0.0000

 Normal termination of Gaussian 16 at Tue Nov 19 12:07:10 2024.
