 Gaussian 16, Revision A.03,
 Gaussian 16:  ES64L-G16RevA.03 25-Dec-2016

 --------------------------------------------
 #p opt UM062X/6-311+G** nosymm int=superfine
 --------------------------------------------

 -------------------
 Title Card Required
 -------------------
 Symbolic Z-matrix:
 Charge =  1 Multiplicity = 2

 SCF Done:  E(UM062X) =  -76.8995630613     A.U. after    9 cycles
 SCF Done:  E(UM062X) =  -76.9001244544     A.U. after    9 cycles
 SCF Done:  E(UM062X) =  -76.9001267988     A.U. after    6 cycles
 Optimization completed.
    -- Stationary point found.

                          Input orientation:
 ---------------------------------------------------------------------
 Center     Atomic      Atomic             Coordinates (Angstroms)
 Number     Number       Type             X           Y           Z
 ---------------------------------------------------------------------
      1          6           0       -0.633769    0.000000    0.000000
      2          6           0        0.633769    0.000000    0.000000
      3          1           0       -1.715588    0.000000   -0.000000
      4          1           0        1.715588   -0.000000    0.000000
 ---------------------------------------------------------------------

 Alpha  occ. eigenvalues --  -10.94603 -10.94415  -1.21981  -0.97274  -0.89390
 Alpha  occ. eigenvalues --   -0.72266  -0.69604
 Alpha virt. eigenvalues --   -0.28005  -0.25993  -0.15769  -0.14489  -0.11510
 Alpha virt. eigenvalues --   -0.10254  -0.09997  -0.06659  -0.04825  -0.04395
 Alpha virt. eigenvalues --    0.02264   0.04545   0.15289   0.18884   0.29476

  Beta  occ. eigenvalues --  -10.94356 -10.94193  -1.17228  -0.95680  -0.88846
  Beta  occ. eigenvalues --   -0.67124
  Beta virt. eigenvalues --   -0.45903  -0.24377  -0.21515  -0.15620  -0.14811
  Beta virt. eigenvalues --   -0.11641  -0.10519  -0.10222  -0.06177  -0.04264
  Beta virt. eigenvalues --   -0.03661   0.02003   0.04779   0.15848   0.19737

 Mulliken charges and spin densities:
               1          2
     1  C    0.187267   0.519392
     2  C    0.187268   0.519392
     3  H    0.312733  -0.019392
     4  H    0.312733  -0.019392
 Sum of Mulliken charges =   1.00000   1.00000

 Dipole moment (field-independent basis, Debye):
    X=              0.0000    Y=             -0.0000    Z=              0.0000  Tot=              0.0000
 Quadrupole moment (field-independent basis, Debye-Ang):
   XX=             -0.3410   YY=            -11.4876   ZZ=             -9.7000
   XY=             -0.0000   XZ=              0.0000   YZ=              0.1816

 Normal termination of Gaussian 16 at Tue Nov 19 13:01:41 2024.
