 Gaussian 16, Revision A.03,
 Gaussian 16:  ES64L-G16RevA.03 25-Dec-2016

 --------------------------------------------
 #p opt UM062X/6-311+G** nosymm int=superfine
 --------------------------------------------

 -------------------
 Title Card Required
 -------------------
 Symbolic Z-matrix:
 Charge =  0 Multiplicity = 1

 SCF Done:  E(UM062X) =  -474.436063405     A.U. after   18 cycles
 SCF Done:  E(UM062X) =  -474.439100055     A.U. after   15 cycles
 SCF Done:  E(UM062X) =  -474.440998793     A.U. after   17 cycles
 SCF Done:  E(UM062X) =  -474.441027529     A.U. after   15 cycles
 SCF Done:  E(UM062X) =  -474.441028507     A.U. after   12 cycles
 SCF Done:  E(UM062X) =  -474.441028942     A.U. after   13 cycles
 SCF Done:  E(UM062X) =  -474.441028998     A.U. after   10 cycles
 Optimization completed.
    -- Stationary point found.

                          Input orientation:
 ---------------------------------------------------------------------
 Center     Atomic      Atomic             Coordinates (Angstroms)
 Number     Number       Type             X           Y           Z
 ---------------------------------------------------------------------
      1          8           0       -1.339392    0.000000    0.000000
      2         16           0        1.339392    0.000000    0.000000
      3          1           0       -1.360488   -0.934907   -0.255577
      4          1           0        1.210427    0.415143    1.273314
 ---------------------------------------------------------------------

 Alpha  occ. eigenvalues --  -89.97629 -19.67503  -8.33678  -6.25898  -6.25525
 Alpha  occ. eigenvalues --   -6.24971  -1.08748  -0.83344  -0.52743  -0.49257
 Alpha  occ. eigenvalues --   -0.39910  -0.38152  -0.35115
 Alpha virt. eigenvalues --   -0.17678   0.01608   0.04033   0.04717   0.05625
 Alpha virt. eigenvalues --    0.07376   0.14711   0.19481   0.20010   0.21377
 Alpha virt. eigenvalues --    0.26485   0.31214   0.34044   0.35523   0.39963

  Beta  occ. eigenvalues --  -89.97629 -19.67503  -8.33678  -6.25898  -6.25525
  Beta  occ. eigenvalues --   -6.24971  -1.08748  -0.83344  -0.52743  -0.49257
  Beta  occ. eigenvalues --   -0.39910  -0.38152  -0.35115
  Beta virt. eigenvalues --   -0.17678   0.01608   0.04033   0.04717   0.05625
  Beta virt. eigenvalues --    0.07376   0.14711   0.19481   0.20010   0.21377
  Beta virt. eigenvalues --    0.26485   0.31214   0.34044   0.35523   0.39963

 Mulliken charges and spin densities:
               1          2
     1  O   -0.427212  -0.000000
     2  S    0.066341   0.000000
     3  H    0.249079   0.000000
     4  H    0.111793  -0.000000
 Sum of Mulliken charges =   0.00000   0.00000

 Dipole moment (field-independent basis, Debye):
    X=              1.9376    Y=             -1.2725    Z=              0.6529  Tot=              2.4083
 Quadrupole moment (field-independent basis, Debye-Ang):
   XX=            -18.2317   YY=            -19.8656   ZZ=            -18.6952
   XY=              3.0317   XZ=              2.2464   YZ=              1.8627

 Normal termination of Gaussian 16 at Thu May 15 13:00:12 2025.
