 Gaussian 16, Revision A.03,
 Gaussian 16:  ES64L-G16RevA.03 25-Dec-2016

 --------------------------------------------
 #p opt UM062X/6-311+G** nosymm int=superfine
 --------------------------------------------

 -------------------
 Title Card Required
 -------------------
 Symbolic Z-matrix:
 Charge = -1 Multiplicity = 2

 SCF Done:  E(UM062X) =  -51.8465749925     A.U. after   12 cycles
 SCF Done:  E(UM062X) =  -51.8465930049     A.U. after    9 cycles
 Optimization completed.
    -- Stationary point found.

                          Input orientation:
 ---------------------------------------------------------------------
 Center     Atomic      Atomic             Coordinates (Angstroms)
 Number     Number       Type             X           Y           Z
 ---------------------------------------------------------------------
      1          5           0       -2.097274    0.000000    0.000000
      2          5           0        2.097274    0.000000    0.000000
      3          1           0       -2.766635   -1.012872   -0.000015
      4          1           0        2.766635    1.012872   -0.000490
      5          1           0       -2.766638    1.012870   -0.000013
      6          1           0        2.766638   -1.012870    0.000462
 ---------------------------------------------------------------------

 Alpha  occ. eigenvalues --   -6.87938  -6.87937  -0.38070  -0.37989  -0.22183
 Alpha  occ. eigenvalues --   -0.22133  -0.05547  -0.02540
 Alpha virt. eigenvalues --    0.11740   0.12965   0.14984   0.15552   0.15676
 Alpha virt. eigenvalues --    0.17475   0.19798   0.20767   0.20826   0.23067
 Alpha virt. eigenvalues --    0.32074   0.33356   0.33930   0.36840   0.50602

  Beta  occ. eigenvalues --   -6.87341  -6.87340  -0.36734  -0.36581  -0.21489
  Beta  occ. eigenvalues --   -0.21425   0.01789
  Beta virt. eigenvalues --    0.12595   0.13070   0.14064   0.14484   0.16195
  Beta virt. eigenvalues --    0.17875   0.18163   0.22138   0.22390   0.24110
  Beta virt. eigenvalues --    0.25290   0.32128   0.33531   0.34074   0.37669

 Mulliken charges and spin densities:
               1          2
     1  B   -0.342955   0.491897
     2  B   -0.342955   0.491898
     3  H   -0.078523   0.004051
     4  H   -0.078523   0.004051
     5  H   -0.078523   0.004051
     6  H   -0.078523   0.004051
 Sum of Mulliken charges =  -1.00000   1.00000

 Dipole moment (field-independent basis, Debye):
    X=              0.0000    Y=             -0.0000    Z=             -0.0000  Tot=              0.0000
 Quadrupole moment (field-independent basis, Debye-Ang):
   XX=            -42.4429   YY=            -24.4930   ZZ=            -18.9809
   XY=              0.0000   XZ=             -0.0000   YZ=              0.0013

 Normal termination of Gaussian 16 at Mon Apr 21 17:24:21 2025.
