 Gaussian 16, Revision A.03,
 Gaussian 16:  ES64L-G16RevA.03 25-Dec-2016

 --------------------------------------------
 #p opt UM062X/6-311+G** nosymm int=superfine
 --------------------------------------------

 -------------------
 Title Card Required
 -------------------
 Symbolic Z-matrix:
 Charge =  0 Multiplicity = 1

 SCF Done:  E(UM062X) =  -80.3986591774     A.U. after   19 cycles
 SCF Done:  E(UM062X) =  -80.4027294602     A.U. after   13 cycles
 SCF Done:  E(UM062X) =  -80.4028709520     A.U. after   15 cycles
 SCF Done:  E(UM062X) =  -80.4027541836     A.U. after   15 cycles
 SCF Done:  E(UM062X) =  -80.4045258241     A.U. after   20 cycles
 SCF Done:  E(UM062X) =  -80.4046485322     A.U. after   17 cycles
 SCF Done:  E(UM062X) =  -80.4044577950     A.U. after   18 cycles
 SCF Done:  E(UM062X) =  -80.4076126252     A.U. after   18 cycles
 SCF Done:  E(UM062X) =  -80.4188428497     A.U. after   19 cycles
 SCF Done:  E(UM062X) =  -80.4328565294     A.U. after   18 cycles
 SCF Done:  E(UM062X) =  -80.4388739273     A.U. after   15 cycles
 SCF Done:  E(UM062X) =  -80.4390455950     A.U. after   16 cycles
 SCF Done:  E(UM062X) =  -80.4394491353     A.U. after   16 cycles
 SCF Done:  E(UM062X) =  -80.4408700038     A.U. after   22 cycles
 SCF Done:  E(UM062X) =  -80.4412118949     A.U. after   14 cycles
 SCF Done:  E(UM062X) =  -80.4415141407     A.U. after   16 cycles
 SCF Done:  E(UM062X) =  -80.4415839636     A.U. after   14 cycles
 SCF Done:  E(UM062X) =  -80.4416064352     A.U. after   15 cycles
 SCF Done:  E(UM062X) =  -80.4416092709     A.U. after   12 cycles
 SCF Done:  E(UM062X) =  -80.4416093567     A.U. after   13 cycles
 Optimization completed.
    -- Stationary point found.

                          Input orientation:
 ---------------------------------------------------------------------
 Center     Atomic      Atomic             Coordinates (Angstroms)
 Number     Number       Type             X           Y           Z
 ---------------------------------------------------------------------
      1          5           0       -1.417066    0.000000    0.000000
      2          7           0        1.417066    0.000000    0.000000
      3          1           0       -2.585769   -0.281344   -0.177941
      4          1           0        1.316644    0.870704    0.551909
 ---------------------------------------------------------------------

 Alpha  occ. eigenvalues --  -14.78345  -7.17835  -0.85039  -0.58895  -0.41918
 Alpha  occ. eigenvalues --   -0.32184  -0.29199
 Alpha virt. eigenvalues --   -0.08585  -0.07192  -0.06264   0.01064   0.04174
 Alpha virt. eigenvalues --    0.05265   0.05331   0.11961   0.15650   0.17233
 Alpha virt. eigenvalues --    0.18300   0.21077   0.25604   0.35493   0.39367

  Beta  occ. eigenvalues --  -14.78345  -7.17835  -0.85039  -0.58895  -0.41918
  Beta  occ. eigenvalues --   -0.32184  -0.29199
  Beta virt. eigenvalues --   -0.08585  -0.07192  -0.06264   0.01064   0.04174
  Beta virt. eigenvalues --    0.05265   0.05331   0.11961   0.15650   0.17233
  Beta virt. eigenvalues --    0.18300   0.21077   0.25604   0.35493   0.39367

 Mulliken charges and spin densities:
               1          2
     1  B    0.062336  -0.000000
     2  N   -0.277826   0.000000
     3  H    0.034437  -0.000000
     4  H    0.181054   0.000000
 Sum of Mulliken charges =  -0.00000   0.00000

 Dipole moment (field-independent basis, Debye):
    X=             -3.7451    Y=              0.9244    Z=              0.5864  Tot=              3.9018
 Quadrupole moment (field-independent basis, Debye-Ang):
   XX=             -9.9442   YY=            -13.2985   ZZ=            -14.4137
   XY=              2.1332   XZ=              1.3525   YZ=              1.1822

 Normal termination of Gaussian 16 at Mon Apr 21 18:08:29 2025.
