 Gaussian 16, Revision A.03,
 Gaussian 16:  ES64L-G16RevA.03 25-Dec-2016

 ---------------------------------------------------
 #p UM062X/6-311+G** force int=superfine pop=saveNBO
 ---------------------------------------------------

 -------------------
 Title Card Required
 -------------------
 Symbolic Z-matrix:
 Charge =  0 Multiplicity = 1

                         Standard orientation:
 ---------------------------------------------------------------------
 Center     Atomic      Atomic             Coordinates (Angstroms)
 Number     Number       Type             X           Y           Z
 ---------------------------------------------------------------------
      1          8           0        0.000000    0.000000    1.468562
      2          8           0        0.000000    0.000000   -1.468562
 ---------------------------------------------------------------------

 SCF Done:  E(UM062X) =  -149.819316746     A.U. after    9 cycles

 Unable to determine electronic state:  partially filled degenerate orbitals.
 Alpha  occ. eigenvalues --  -19.83021 -19.83018  -1.10746  -1.09854  -0.48956
 Alpha  occ. eigenvalues --   -0.48424  -0.42016  -0.40613
 Alpha virt. eigenvalues --   -0.30513  -0.28822   0.09756   0.12664   0.14495
 Alpha virt. eigenvalues --    0.14537   0.19777   0.20039   0.20131   0.29636
 Alpha virt. eigenvalues --    0.95905   0.99514   1.00735   1.01820   1.03141

  Beta  occ. eigenvalues --  -19.83021 -19.83018  -1.10746  -1.09854  -0.48956
  Beta  occ. eigenvalues --   -0.48424  -0.42016  -0.40613
  Beta virt. eigenvalues --   -0.30513  -0.28822   0.09756   0.12664   0.14495
  Beta virt. eigenvalues --    0.14537   0.19777   0.20039   0.20131   0.29636
  Beta virt. eigenvalues --    0.95905   0.99514   1.00735   1.01820   1.03141

 Mulliken charges and spin densities:
               1          2
     1  O    0.000000   0.000000
     2  O    0.000000   0.000000
 Sum of Mulliken charges =   0.00000   0.00000

 Dipole moment (field-independent basis, Debye):
    X=              0.0000    Y=             -0.0000    Z=              0.0000  Tot=              0.0000
 Quadrupole moment (field-independent basis, Debye-Ang):
   XX=            -12.0177   YY=            -10.1913   ZZ=             -9.1405
   XY=              0.0000   XZ=             -0.0000   YZ=              0.0000

 Summary of Natural Population Analysis:

                                       Natural Population
                Natural  -----------------------------------------------
    Atom  No    Charge         Core      Valence    Rydberg      Total
 -----------------------------------------------------------------------
      O    1    0.00000      1.00000     2.99909    0.00091     4.00000
      O    2    0.00000      1.00000     2.99909    0.00091     4.00000
 =======================================================================
   * Total *    0.00000      2.00000     5.99819    0.00181     8.00000

 Normal termination of Gaussian 16 at Mon Apr 21 19:54:09 2025.
