 Gaussian 16, Revision A.03,
 Gaussian 16:  ES64L-G16RevA.03 25-Dec-2016

 --------------------------------------------
 #p opt UM062X/6-311+G** nosymm int=superfine
 --------------------------------------------

 -------------------
 Title Card Required
 -------------------
 Symbolic Z-matrix:
 Charge =  0 Multiplicity = 1

 SCF Done:  E(UM062X) =  -579.947905994     A.U. after    8 cycles
 SCF Done:  E(UM062X) =  -579.947912716     A.U. after    8 cycles
 Optimization completed.
    -- Stationary point found.

                          Input orientation:
 ---------------------------------------------------------------------
 Center     Atomic      Atomic             Coordinates (Angstroms)
 Number     Number       Type             X           Y           Z
 ---------------------------------------------------------------------
      1         14           0       -1.153705    0.000000    0.000000
      2         14           0        1.153705    0.000000    0.000000
      3          1           0       -2.615420   -0.000054   -0.000000
      4          1           0        2.615420    0.000011    0.000000
 ---------------------------------------------------------------------

 Alpha  occ. eigenvalues --  -67.04901 -67.04901  -5.59307  -5.59299  -3.90500
 Alpha  occ. eigenvalues --   -3.90500  -3.90491  -3.90491  -3.90309  -3.90249
 Alpha  occ. eigenvalues --   -0.61272  -0.55967  -0.42871  -0.24164  -0.24164
 Alpha virt. eigenvalues --   -0.09383  -0.05752  -0.05752   0.01561   0.02208
 Alpha virt. eigenvalues --    0.03669   0.05137   0.05137   0.07028   0.07028
 Alpha virt. eigenvalues --    0.12156   0.14036   0.24625   0.28495   0.29772

  Beta  occ. eigenvalues --  -67.04901 -67.04901  -5.59307  -5.59299  -3.90500
  Beta  occ. eigenvalues --   -3.90500  -3.90491  -3.90491  -3.90309  -3.90249
  Beta  occ. eigenvalues --   -0.61272  -0.55967  -0.42871  -0.24164  -0.24164
  Beta virt. eigenvalues --   -0.09383  -0.05752  -0.05752   0.01561   0.02208
  Beta virt. eigenvalues --    0.03669   0.05137   0.05137   0.07028   0.07028
  Beta virt. eigenvalues --    0.12156   0.14036   0.24625   0.28495   0.29772

 Mulliken charges and spin densities:
               1          2
     1  Si  -0.046792  -0.000000
     2  Si  -0.046792   0.000000
     3  H    0.046792   0.000000
     4  H    0.046792  -0.000000
 Sum of Mulliken charges =  -0.00000   0.00000

 Dipole moment (field-independent basis, Debye):
    X=              0.0000    Y=             -0.0000    Z=              0.0000  Tot=              0.0000
 Quadrupole moment (field-independent basis, Debye-Ang):
   XX=            -19.3267   YY=            -31.9745   ZZ=            -31.9745
   XY=              0.0002   XZ=              0.0000   YZ=              0.0000

 Normal termination of Gaussian 16 at Mon Apr 21 21:17:53 2025.
