 Gaussian 16, Revision A.03,
 Gaussian 16:  ES64L-G16RevA.03 25-Dec-2016

 --------------------------------------------
 #p opt UM062X/6-311+G** nosymm int=superfine
 --------------------------------------------

 -------------------
 Title Card Required
 -------------------
 Symbolic Z-matrix:
 Charge =  0 Multiplicity = 3

 SCF Done:  E(UM062X) =  -50.7424896690     A.U. after   10 cycles

 Alpha  occ. eigenvalues --   -7.08269  -7.08203  -0.60815  -0.53058  -0.44031
 Alpha  occ. eigenvalues --   -0.26537  -0.26537
 Alpha virt. eigenvalues --    0.00721   0.00721   0.02482   0.02511   0.05558
 Alpha virt. eigenvalues --    0.05558   0.07112   0.08525   0.08525   0.10642
 Alpha virt. eigenvalues --    0.14696   0.22700   0.30948   0.35367   0.39144

  Beta  occ. eigenvalues --   -7.08034  -7.07944  -0.55183  -0.51234  -0.43001
  Beta virt. eigenvalues --   -0.07371  -0.07371   0.00995   0.03031   0.03052
  Beta virt. eigenvalues --    0.03052   0.05253   0.08888   0.08888   0.09607
  Beta virt. eigenvalues --    0.13410   0.13410   0.17290   0.23966   0.33257

 Mulliken charges and spin densities:
               1          2
     1  B   -0.062262   1.034608
     2  B   -0.062262   1.034608
     3  H    0.062262  -0.034608
     4  H    0.062262  -0.034608
 Sum of Mulliken charges =  -0.00000   2.00000

 Dipole moment (field-independent basis, Debye):
    X=             -0.0000    Y=              0.0000    Z=              0.0000  Tot=              0.0000
 Quadrupole moment (field-independent basis, Debye-Ang):
   XX=            -12.1367   YY=            -14.6620   ZZ=            -14.6620
   XY=              0.0000   XZ=              0.0000   YZ=             -0.0000

 Optimization completed.
    -- Stationary point found.

                          Input orientation:
 ---------------------------------------------------------------------
 Center     Atomic      Atomic             Coordinates (Angstroms)
 Number     Number       Type             X           Y           Z
 ---------------------------------------------------------------------
      1          5           0       -0.828410    0.000000    0.000000
      2          5           0        0.828410    0.000000    0.000000
      3          1           0       -2.000953   -0.000080    0.000000
      4          1           0        2.000953    0.000080    0.000000
 ---------------------------------------------------------------------

 1\1\GINC-NODE03\FOpt\UM062X\6-311+G(d,p)\B2H2(3)\SZHAO\21-Apr-2025\0\\
 #p opt UM062X/6-311+G** nosymm int=superfine\\Title Card Required\\0,3
 \B,-0.82841047,0.,0.\B,0.82841047,0.,0.\H,-2.00095276,-0.00008027,0.\H
 ,2.00095276,0.00008027,0.\\Version=ES64L-G16RevA.03\HF=-50.7424897\S2=
 2.006064\S2-1=0.\S2A=2.000013\RMSD=2.393e-09\RMSF=1.228e-04\Dipole=0.,
 0.,0.\Quadrupole=1.2516674,-0.6258337,-0.6258337,0.0000299,0.,0.\PG=C*
 V [C*(H1B1B1H1)]\\@

 Normal termination of Gaussian 16 at Mon Apr 21 17:22:23 2025.
