 Gaussian 16, Revision A.03,
 Gaussian 16:  ES64L-G16RevA.03 25-Dec-2016

 --------------------------------------------
 #p opt UM062X/6-311+G** nosymm int=superfine
 --------------------------------------------

 -------------------
 Title Card Required
 -------------------
 Symbolic Z-matrix:
 Charge =  1 Multiplicity = 2

 SCF Done:  E(UM062X) =  -80.1521604009     A.U. after   18 cycles
 SCF Done:  E(UM062X) =  -80.1530458054     A.U. after   12 cycles
 SCF Done:  E(UM062X) =  -80.1530488675     A.U. after   14 cycles
 Optimization completed.
    -- Stationary point found.

                          Input orientation:
 ---------------------------------------------------------------------
 Center     Atomic      Atomic             Coordinates (Angstroms)
 Number     Number       Type             X           Y           Z
 ---------------------------------------------------------------------
      1          5           0       -2.127734    0.000000    0.000000
      2          7           0        2.127734    0.000000    0.000000
      3          1           0       -3.334543   -0.000285   -0.000000
      4          1           0        3.163430   -0.000035   -0.000000
 ---------------------------------------------------------------------

 Alpha  occ. eigenvalues --  -14.93512  -7.54306  -1.06748  -0.86613  -0.60500
 Alpha  occ. eigenvalues --   -0.53137  -0.53137
 Alpha virt. eigenvalues --   -0.46347  -0.35344  -0.35344  -0.16764  -0.12480
 Alpha virt. eigenvalues --   -0.10003  -0.09924  -0.09924  -0.03585   0.02315
 Alpha virt. eigenvalues --    0.02315   0.03705   0.07708   0.11675   0.12636

  Beta  occ. eigenvalues --  -14.91017  -7.55534  -0.93883  -0.90280  -0.68797
  Beta  occ. eigenvalues --   -0.54755
  Beta virt. eigenvalues --   -0.36397  -0.36397  -0.18020  -0.18020  -0.14830
  Beta virt. eigenvalues --   -0.10719  -0.09970  -0.09970  -0.06945  -0.03328
  Beta virt. eigenvalues --    0.04363   0.04363   0.06361   0.09000   0.15638

 Mulliken charges and spin densities:
               1          2
     1  B    0.769689  -0.852634
     2  N   -0.238686   2.060753
     3  H    0.221329  -0.142145
     4  H    0.247667  -0.065974
 Sum of Mulliken charges =   1.00000   1.00000

 Dipole moment (field-independent basis, Debye):
    X=             -8.8970    Y=             -0.0003    Z=             -0.0000  Tot=              8.8970
 Quadrupole moment (field-independent basis, Debye-Ang):
   XX=             24.8158   YY=            -10.2742   ZZ=            -10.2742
   XY=              0.0003   XZ=              0.0000   YZ=              0.0000

 Normal termination of Gaussian 16 at Mon Apr 21 17:55:36 2025.
