 Gaussian 16, Revision A.03,
 Gaussian 16:  ES64L-G16RevA.03 25-Dec-2016

 --------------------------------------------
 #p opt UM062X/6-311+G** nosymm int=superfine
 --------------------------------------------

 -------------------
 Title Card Required
 -------------------
 Symbolic Z-matrix:
 Charge =  1 Multiplicity = 2

 SCF Done:  E(UM062X) =  -78.0919540297     A.U. after    9 cycles
 SCF Done:  E(UM062X) =  -78.1142472293     A.U. after    9 cycles
 SCF Done:  E(UM062X) =  -78.1218577801     A.U. after    9 cycles
 SCF Done:  E(UM062X) =  -78.1223542166     A.U. after    8 cycles
 SCF Done:  E(UM062X) =  -78.1223593471     A.U. after    6 cycles
 Optimization completed.
    -- Stationary point found.

                          Input orientation:
 ---------------------------------------------------------------------
 Center     Atomic      Atomic             Coordinates (Angstroms)
 Number     Number       Type             X           Y           Z
 ---------------------------------------------------------------------
      1          6           0       -0.890684    0.000000    0.000000
      2          6           0        0.890684    0.000000    0.000000
      3          1           0       -1.385930   -0.965129    0.000000
      4          1           0       -1.385955    0.965084    0.000000
      5          1           0        1.385930    0.965129   -0.000000
      6          1           0        1.385955   -0.965084   -0.000000
 ---------------------------------------------------------------------

 Alpha  occ. eigenvalues --  -10.91597 -10.91573  -1.09964  -0.99304  -0.81733
 Alpha  occ. eigenvalues --   -0.76211  -0.71980  -0.59499
 Alpha virt. eigenvalues --   -0.34430  -0.17153  -0.14388  -0.11313  -0.08796
 Alpha virt. eigenvalues --   -0.08530  -0.07393  -0.07304  -0.04698  -0.04457
 Alpha virt. eigenvalues --   -0.01794  -0.01380   0.02609   0.09704   0.18522

  Beta  occ. eigenvalues --  -10.91369 -10.91353  -1.06620  -0.97187  -0.81022
  Beta  occ. eigenvalues --   -0.75859  -0.70716
  Beta virt. eigenvalues --   -0.37502  -0.26262  -0.15937  -0.15331  -0.11682
  Beta virt. eigenvalues --   -0.08658  -0.08016  -0.07709  -0.07303  -0.04489
  Beta virt. eigenvalues --   -0.04019  -0.01387  -0.00765   0.01985   0.10275

 Mulliken charges and spin densities:
               1          2
     1  C   -0.063503   0.540066
     2  C   -0.063503   0.540066
     3  H    0.281752  -0.020034
     4  H    0.281751  -0.020033
     5  H    0.281752  -0.020034
     6  H    0.281751  -0.020033
 Sum of Mulliken charges =   1.00000   1.00000

 Dipole moment (field-independent basis, Debye):
    X=              0.0000    Y=              0.0000    Z=              0.0000  Tot=              0.0000
 Quadrupole moment (field-independent basis, Debye-Ang):
   XX=             -3.6267   YY=             -8.2904   ZZ=            -12.1793
   XY=              0.0000   XZ=             -0.0000   YZ=             -0.0000

 Normal termination of Gaussian 16 at Tue Nov 19 11:11:55 2024.
