 Gaussian 16, Revision A.03,
 Gaussian 16:  ES64L-G16RevA.03 25-Dec-2016

 --------------------------------------------
 #p opt UM062X/6-311+G** nosymm int=superfine
 --------------------------------------------

 -------------------
 Title Card Required
 -------------------
 Symbolic Z-matrix:
 Charge =  1 Multiplicity = 2

 SCF Done:  E(UM062X) =  -1615.45526153     A.U. after   22 cycles
 SCF Done:  E(UM062X) =  -1615.54636720     A.U. after   20 cycles
 SCF Done:  E(UM062X) =  -1615.58263401     A.U. after   20 cycles
 SCF Done:  E(UM062X) =  -1615.58268359     A.U. after   20 cycles
 SCF Done:  E(UM062X) =  -1615.58372636     A.U. after   19 cycles
 SCF Done:  E(UM062X) =  -1615.57843517     A.U. after   23 cycles
 SCF Done:  E(UM062X) =  -1615.58065780     A.U. after   21 cycles
 SCF Done:  E(UM062X) =  -1615.58402012     A.U. after   17 cycles
 SCF Done:  E(UM062X) =  -1615.58330833     A.U. after   21 cycles
 SCF Done:  E(UM062X) =  -1615.58425234     A.U. after   17 cycles
 SCF Done:  E(UM062X) =  -1615.58429190     A.U. after   17 cycles
 SCF Done:  E(UM062X) =  -1615.58432641     A.U. after   16 cycles
 SCF Done:  E(UM062X) =  -1615.58432750     A.U. after   14 cycles
 SCF Done:  E(UM062X) =  -1615.58432772     A.U. after   13 cycles
 SCF Done:  E(UM062X) =  -1615.58432776     A.U. after   11 cycles
 Optimization completed.
    -- Stationary point found.

                          Input orientation:
 ---------------------------------------------------------------------
 Center     Atomic      Atomic             Coordinates (Angstroms)
 Number     Number       Type             X           Y           Z
 ---------------------------------------------------------------------
      1          6           0       -1.298259    0.000000    0.000000
      2          6           0        1.298259    0.000000    0.000000
      3          6           0       -0.000022   -2.138864    0.000053
      4          6           0       -0.000031   -3.519246    0.000099
      5          6           0       -1.132560   -4.319578    0.258794
      6          6           0       -1.234191   -1.480814    0.238260
      7          6           0        0.660341   -5.715242   -0.152351
      8          1           0        1.276340   -6.591059   -0.298219
      9          6           0       -1.505902    0.819677    1.176908
     10          6           0       -0.660454   -5.715223    0.152638
     11          1           0       -1.276468   -6.591021    0.298561
     12          6           0        1.132479   -4.319612   -0.258564
     13          6           0        1.234150   -1.480835   -0.238198
     14          6           0        1.694028    2.237295   -1.213333
     15          6           0       -1.508844    0.333646   -1.398679
     16          6           0       -1.889815    2.872537    2.455331
     17          1           0       -2.043319    3.945419    2.458494
     18          6           0       -2.314694   -3.673784    0.536322
     19          1           0       -3.228661   -4.215913    0.750545
     20          6           0       -1.565648    1.649628   -1.958893
     21          6           0        2.349662   -2.247589   -0.513733
     22          1           0        3.299564   -1.750301   -0.680677
     23          6           0        1.508857    0.333573    1.398694
     24          6           0        1.565608    1.649508    1.959010
     25          6           0        2.314621   -3.673851   -0.536132
     26          1           0        3.228579   -4.216006   -0.750327
     27          6           0       -1.693832    2.237216    1.213538
     28          6           0       -1.475382    0.154692    2.434634
     29          1           0       -1.294823   -0.908852    2.462004
     30          6           0        1.628600   -0.745618    2.325860
     31          1           0        1.626619   -1.763112    1.966891
     32          6           0       -1.892692    2.183476    3.648942
     33          1           0       -2.054001    2.707556    4.583123
     34          6           0       -2.349714   -2.247523    0.513856
     35          1           0       -3.299605   -1.750208    0.680786
     36          6           0       -1.676287    1.803203   -3.356798
     37          1           0       -1.697758    2.810775   -3.755472
     38          6           0        1.506082    0.819748   -1.176845
     39          6           0       -1.648949    3.135318    0.089169
     40          1           0       -1.696390    4.184326    0.364947
     41          6           0       -1.786874    0.732981   -4.213922
     42          1           0       -1.891996    0.892628   -5.280118
     43          6           0       -1.564153    2.890478   -1.232041
     44          1           0       -1.545772    3.770931   -1.867275
     45          6           0        1.676288    1.802985    3.356921
     46          1           0        1.697721    2.810529    3.755670
     47          6           0       -1.667904    0.805157    3.632668
     48          1           0       -1.636117    0.241991    4.557413
     49          6           0       -1.628674   -0.745471   -2.325926
     50          1           0       -1.626763   -1.762993   -1.967041
     51          6           0        1.786899    0.732700    4.213961
     52          1           0        1.892020    0.892267    5.280169
     53          6           0        1.890199    2.872731   -2.455030
     54          1           0        2.043697    3.945616   -2.458067
     55          6           0        1.779726   -0.559027    3.680349
     56          1           0        1.889286   -1.421034    4.326944
     57          6           0        1.893206    2.183793   -3.648707
     58          1           0        2.054679    2.707956   -4.582812
     59          6           0        1.648805    3.135336   -0.088928
     60          1           0        1.696050    4.184367   -0.364656
     61          6           0       -1.779776   -0.558779   -3.680403
     62          1           0       -1.889382   -1.420733   -4.327060
     63          6           0        1.563954    2.890411    1.232259
     64          1           0        1.545356    3.770815    1.867555
     65          6           0        1.475536    0.154922   -2.434662
     66          1           0        1.294775   -0.908577   -2.462193
     67          6           0        1.668247    0.805502   -3.632605
     68          1           0        1.636474    0.242446   -4.557416
 ---------------------------------------------------------------------

 Alpha  occ. eigenvalues --  -10.71243 -10.71241 -10.68566 -10.68566 -10.68564
 Alpha  occ. eigenvalues --  -10.68564 -10.68240 -10.68240 -10.68104 -10.68104
 Alpha  occ. eigenvalues --  -10.66993 -10.66993 -10.66574 -10.66574 -10.66468
 Alpha  occ. eigenvalues --  -10.66468 -10.66013 -10.66012 -10.65836 -10.65833
 Alpha  occ. eigenvalues --  -10.65833 -10.65765 -10.65764 -10.65743 -10.65743
 Alpha  occ. eigenvalues --  -10.65690 -10.65689 -10.65666 -10.65666 -10.65618
 Alpha  occ. eigenvalues --  -10.65618 -10.65574 -10.65574 -10.65517 -10.65517
 Alpha  occ. eigenvalues --  -10.65281 -10.65281 -10.65022 -10.65021 -10.64045
 Alpha  occ. eigenvalues --  -10.63947 -10.63270  -1.12534  -1.10276  -1.10121
 Alpha  occ. eigenvalues --   -1.08444  -1.07786  -1.05815  -1.04802  -1.02587
 Alpha  occ. eigenvalues --   -1.02106  -1.00816  -1.00545  -0.97942  -0.97630
 Alpha  occ. eigenvalues --   -0.96893  -0.96260  -0.95040  -0.93489  -0.93475
 Alpha  occ. eigenvalues --   -0.92815  -0.91907  -0.87496  -0.87380  -0.84975
 Alpha  occ. eigenvalues --   -0.84732  -0.83093  -0.81427  -0.81314  -0.79849
 Alpha  occ. eigenvalues --   -0.79740  -0.79527  -0.77573  -0.76416  -0.76195
 Alpha  occ. eigenvalues --   -0.75748  -0.75456  -0.73640  -0.70246  -0.69731
 Alpha  occ. eigenvalues --   -0.69114  -0.68515  -0.67743  -0.67619  -0.66960
 Alpha  occ. eigenvalues --   -0.66835  -0.65676  -0.65365  -0.65148  -0.64838
 Alpha  occ. eigenvalues --   -0.63344  -0.62971  -0.62351  -0.62184  -0.61211
 Alpha  occ. eigenvalues --   -0.61100  -0.60714  -0.60467  -0.60092  -0.60084
 Alpha  occ. eigenvalues --   -0.59594  -0.58940  -0.58784  -0.58147  -0.57838
 Alpha  occ. eigenvalues --   -0.57623  -0.56714  -0.55869  -0.55673  -0.55637
 Alpha  occ. eigenvalues --   -0.54996  -0.54053  -0.53172  -0.52837  -0.52672
 Alpha  occ. eigenvalues --   -0.52483  -0.52305  -0.52285  -0.51155  -0.51005
 Alpha  occ. eigenvalues --   -0.50963  -0.50914  -0.50381  -0.49489  -0.49267
 Alpha  occ. eigenvalues --   -0.48918  -0.48563  -0.47870  -0.44683  -0.44515
 Alpha  occ. eigenvalues --   -0.44123  -0.42878  -0.40505  -0.40419  -0.39286
 Alpha  occ. eigenvalues --   -0.38147  -0.37619  -0.37194  -0.32271
 Alpha virt. eigenvalues --   -0.19623  -0.15755  -0.15580  -0.14403  -0.10542
 Alpha virt. eigenvalues --   -0.09932  -0.08864  -0.08551  -0.08353  -0.07577
 Alpha virt. eigenvalues --   -0.07520  -0.07479  -0.06645  -0.06381  -0.06141

  Beta  occ. eigenvalues --  -10.71111 -10.71111 -10.68597 -10.68597 -10.68587
  Beta  occ. eigenvalues --  -10.68587 -10.68199 -10.68199 -10.68063 -10.68063
  Beta  occ. eigenvalues --  -10.67009 -10.67008 -10.66565 -10.66565 -10.66456
  Beta  occ. eigenvalues --  -10.66455 -10.65977 -10.65977 -10.65834 -10.65834
  Beta  occ. eigenvalues --  -10.65811 -10.65740 -10.65740 -10.65717 -10.65717
  Beta  occ. eigenvalues --  -10.65683 -10.65683 -10.65667 -10.65667 -10.65603
  Beta  occ. eigenvalues --  -10.65603 -10.65589 -10.65589 -10.65523 -10.65523
  Beta  occ. eigenvalues --  -10.65294 -10.65294 -10.65018 -10.65018 -10.64044
  Beta  occ. eigenvalues --  -10.63946 -10.63269  -1.12367  -1.10181  -1.09966
  Beta  occ. eigenvalues --   -1.08326  -1.07681  -1.05651  -1.04683  -1.02458
  Beta  occ. eigenvalues --   -1.01992  -1.00659  -1.00370  -0.97841  -0.97538
  Beta  occ. eigenvalues --   -0.96768  -0.96154  -0.94989  -0.93427  -0.93375
  Beta  occ. eigenvalues --   -0.92723  -0.91815  -0.87136  -0.87101  -0.84902
  Beta  occ. eigenvalues --   -0.84668  -0.83015  -0.81332  -0.81199  -0.79764
  Beta  occ. eigenvalues --   -0.79668  -0.79456  -0.77454  -0.76255  -0.76045
  Beta  occ. eigenvalues --   -0.75583  -0.75420  -0.73514  -0.70132  -0.69582
  Beta  occ. eigenvalues --   -0.68974  -0.68410  -0.67681  -0.67566  -0.66836
  Beta  occ. eigenvalues --   -0.66736  -0.65597  -0.65226  -0.65011  -0.64732
  Beta  occ. eigenvalues --   -0.63080  -0.62929  -0.62268  -0.62098  -0.60954
  Beta  occ. eigenvalues --   -0.60861  -0.60573  -0.60337  -0.60039  -0.60024
  Beta  occ. eigenvalues --   -0.59471  -0.58796  -0.58703  -0.58067  -0.57587
  Beta  occ. eigenvalues --   -0.57388  -0.56550  -0.55616  -0.55577  -0.55499
  Beta  occ. eigenvalues --   -0.54979  -0.53704  -0.53040  -0.52750  -0.52587
  Beta  occ. eigenvalues --   -0.52434  -0.52213  -0.52175  -0.50960  -0.50936
  Beta  occ. eigenvalues --   -0.50822  -0.50466  -0.49649  -0.49171  -0.48974
  Beta  occ. eigenvalues --   -0.48761  -0.48504  -0.47522  -0.44170  -0.44033
  Beta  occ. eigenvalues --   -0.43382  -0.42539  -0.40353  -0.40078  -0.38665
  Beta  occ. eigenvalues --   -0.37932  -0.37381  -0.37029
  Beta virt. eigenvalues --   -0.22346  -0.17461  -0.15520  -0.15490  -0.14430
  Beta virt. eigenvalues --   -0.10312  -0.09539  -0.08493  -0.08382  -0.08275
  Beta virt. eigenvalues --   -0.07574  -0.07563  -0.07230  -0.06625  -0.06332

 Mulliken charges and spin densities:
               1          2
     1  C    0.008048   0.296820
     2  C    0.008092   0.296836
     3  C    0.217288   0.007047
     4  C    0.109965   0.001485
     5  C    0.112802   0.005276
     6  C    0.017368  -0.029490
     7  C   -0.306966   0.001330
     8  H    0.176379  -0.000058
     9  C    0.239897  -0.032982
    10  C   -0.307016   0.001331
    11  H    0.176379  -0.000058
    12  C    0.112798   0.005278
    13  C    0.017393  -0.029476
    14  C    0.279313   0.053131
    15  C    0.321868  -0.041418
    16  C   -0.247320  -0.033139
    17  H    0.163840   0.001012
    18  C   -0.452548  -0.001128
    19  H    0.175822   0.000369
    20  C    0.208470   0.098804
    21  C   -0.136542   0.016084
    22  H    0.174467  -0.000283
    23  C    0.321844  -0.041413
    24  C    0.208282   0.098801
    25  C   -0.452515  -0.001128
    26  H    0.175822   0.000369
    27  C    0.279318   0.053130
    28  C   -0.076674   0.054620
    29  H    0.204561  -0.003138
    30  C   -0.286962   0.031551
    31  H    0.226190  -0.001725
    32  C   -0.372309   0.056084
    33  H    0.181742  -0.002979
    34  C   -0.136498   0.016084
    35  H    0.174467  -0.000283
    36  C   -0.056647  -0.049322
    37  H    0.162626   0.001410
    38  C    0.239983  -0.032978
    39  C   -0.278510   0.061232
    40  H    0.167021  -0.003894
    41  C   -0.233631   0.054968
    42  H    0.180290  -0.002677
    43  C   -0.268742   0.019262
    44  H    0.159599  -0.001114
    45  C   -0.056679  -0.049316
    46  H    0.162623   0.001409
    47  C   -0.130979  -0.023466
    48  H    0.169194  -0.000563
    49  C   -0.287089   0.031568
    50  H    0.226184  -0.001725
    51  C   -0.233686   0.054955
    52  H    0.180291  -0.002677
    53  C   -0.247302  -0.033135
    54  H    0.163834   0.001012
    55  C   -0.320363  -0.029741
    56  H    0.175160   0.000859
    57  C   -0.372453   0.056090
    58  H    0.181739  -0.002979
    59  C   -0.278371   0.061247
    60  H    0.167004  -0.003896
    61  C   -0.320414  -0.029738
    62  H    0.175161   0.000859
    63  C   -0.268582   0.019266
    64  H    0.159587  -0.001115
    65  C   -0.076472   0.054632
    66  H    0.204532  -0.003138
    67  C   -0.131167  -0.023473
    68  H    0.169194  -0.000562
 Sum of Mulliken charges =   1.00000   1.00000

 Dipole moment (field-independent basis, Debye):
    X=             -0.0002    Y=              2.4009    Z=              0.0001  Tot=              2.4009
 Quadrupole moment (field-independent basis, Debye-Ang):
   XX=           -222.5145   YY=           -175.0856   ZZ=           -176.2868
   XY=              0.0001   XZ=             -1.8667   YZ=             -0.0019

 Normal termination of Gaussian 16 at Fri Nov  8 16:10:55 2024.
