 Gaussian 16, Revision A.03,
 Gaussian 16:  ES64L-G16RevA.03 25-Dec-2016

 --------------------------------------------
 #p opt UM062X/6-311+G** nosymm int=superfine
 --------------------------------------------

 -------------------
 Title Card Required
 -------------------
 Symbolic Z-matrix:
 Charge = -1 Multiplicity = 2

 SCF Done:  E(UM062X) =  -50.5410777971     A.U. after   16 cycles
 SCF Done:  E(UM062X) =  -50.5410795258     A.U. after    8 cycles
 Optimization completed.
    -- Stationary point found.

                          Input orientation:
 ---------------------------------------------------------------------
 Center     Atomic      Atomic             Coordinates (Angstroms)
 Number     Number       Type             X           Y           Z
 ---------------------------------------------------------------------
      1          5           0       -1.316404    0.000000    0.000000
      2          5           0        1.316404    0.000000    0.000000
      3          1           0       -2.501551   -0.000905   -0.000000
      4          1           0        2.501551    0.000905    0.000000
 ---------------------------------------------------------------------

 Alpha  occ. eigenvalues --   -6.94841  -6.94833  -0.37640  -0.36289  -0.15055
 Alpha  occ. eigenvalues --   -0.01454  -0.00322
 Alpha virt. eigenvalues --    0.11319   0.11881   0.12697   0.14499   0.15154
 Alpha virt. eigenvalues --    0.20097   0.21328   0.21376   0.21423   0.22422
 Alpha virt. eigenvalues --    0.25434   0.36453   0.38733   0.53519   0.57060

  Beta  occ. eigenvalues --   -6.94782  -6.94777  -0.36218  -0.35334  -0.13629
  Beta  occ. eigenvalues --    0.01224
  Beta virt. eigenvalues --    0.10151   0.12616   0.13587   0.13658   0.13754
  Beta virt. eigenvalues --    0.14504   0.19258   0.20016   0.20383   0.22440
  Beta virt. eigenvalues --    0.22753   0.22934   0.36551   0.38739   0.52891

 Mulliken charges and spin densities:
               1          2
     1  B   -0.535914   0.527624
     2  B   -0.535913   0.527624
     3  H    0.035914  -0.027624
     4  H    0.035914  -0.027624
 Sum of Mulliken charges =  -1.00000   1.00000

 Dipole moment (field-independent basis, Debye):
    X=              0.0000    Y=             -0.0000    Z=              0.0000  Tot=              0.0000
 Quadrupole moment (field-independent basis, Debye-Ang):
   XX=            -24.9649   YY=            -31.9665   ZZ=            -24.5175
   XY=              0.0144   XZ=              0.0000   YZ=             -0.0000

 Normal termination of Gaussian 16 at Mon Apr 21 17:31:03 2025.
