 Gaussian 16, Revision A.03,
 Gaussian 16:  ES64L-G16RevA.03 25-Dec-2016

 --------------------------------------------
 #p opt UM062X/6-311+G** nosymm int=superfine
 --------------------------------------------

 -------------------
 Title Card Required
 -------------------
 Symbolic Z-matrix:
 Charge =  1 Multiplicity = 2

 SCF Done:  E(UM062X) =  -79.3290650907     A.U. after   10 cycles
 SCF Done:  E(UM062X) =  -79.3294307893     A.U. after    9 cycles
 SCF Done:  E(UM062X) =  -79.3294312781     A.U. after    8 cycles
 Optimization completed.
    -- Stationary point found.

                          Input orientation:
 ---------------------------------------------------------------------
 Center     Atomic      Atomic             Coordinates (Angstroms)
 Number     Number       Type             X           Y           Z
 ---------------------------------------------------------------------
      1          6           0       -1.683473    0.000000    0.000000
      2          6           0        1.683473    0.000000    0.000000
      3          1           0        1.723159   -0.937588    0.542646
      4          1           0       -1.721813   -0.938692   -0.540829
      5          1           0        1.722602    0.938782    0.540617
      6          1           0        1.721902   -0.001161   -1.083338
      7          1           0       -1.723201    0.937683   -0.542479
      8          1           0       -1.722647    0.000936    1.083312
 ---------------------------------------------------------------------

 Alpha  occ. eigenvalues --  -10.84566 -10.84564  -1.03245  -1.02381  -0.74101
 Alpha  occ. eigenvalues --   -0.74101  -0.73721  -0.73720  -0.50523
 Alpha virt. eigenvalues --   -0.36545  -0.13515  -0.10210  -0.10036  -0.10036
 Alpha virt. eigenvalues --   -0.06246  -0.06246  -0.04788  -0.03260  -0.01320
 Alpha virt. eigenvalues --   -0.01318   0.01275   0.01276   0.04088   0.07942

  Beta  occ. eigenvalues --  -10.84361 -10.84361  -1.00509  -0.99935  -0.73591
  Beta  occ. eigenvalues --   -0.73591  -0.73206  -0.73206
  Beta virt. eigenvalues --   -0.32655  -0.26201  -0.15577  -0.11141  -0.11140
  Beta virt. eigenvalues --   -0.10087  -0.06345  -0.06344  -0.05128  -0.02347
  Beta virt. eigenvalues --   -0.01666  -0.01663   0.01566   0.01567   0.04743

 Mulliken charges and spin densities:
               1          2
     1  C   -0.267010   0.562462
     2  C   -0.267011   0.562461
     3  H    0.255699  -0.020807
     4  H    0.255656  -0.020813
     5  H    0.255680  -0.020811
     6  H    0.255631  -0.020843
     7  H    0.255700  -0.020808
     8  H    0.255654  -0.020841
 Sum of Mulliken charges =   1.00000   1.00000

 Dipole moment (field-independent basis, Debye):
    X=             -0.0000    Y=             -0.0000    Z=             -0.0001  Tot=              0.0001
 Quadrupole moment (field-independent basis, Debye-Ang):
   XX=              2.5166   YY=            -11.0710   ZZ=            -11.0713
   XY=             -0.0014   XZ=              0.0008   YZ=             -0.0000

 Normal termination of Gaussian 16 at Wed Nov 13 12:46:33 2024.
