 Gaussian 16, Revision A.03,
 Gaussian 16:  ES64L-G16RevA.03 25-Dec-2016

 --------------------------------------------
 #p opt UM062X/6-311+G** nosymm int=superfine
 --------------------------------------------

 -------------------
 Title Card Required
 -------------------
 Symbolic Z-matrix:
 Charge =  0 Multiplicity = 1

 SCF Done:  E(UM062X) =  -685.053068194     A.U. after   10 cycles
 SCF Done:  E(UM062X) =  -685.053378446     A.U. after    9 cycles
 SCF Done:  E(UM062X) =  -685.053406966     A.U. after    8 cycles
 SCF Done:  E(UM062X) =  -685.053407097     A.U. after    7 cycles
 SCF Done:  E(UM062X) =  -685.053407115     A.U. after    6 cycles
 Optimization completed.
    -- Stationary point found.

                          Input orientation:
 ---------------------------------------------------------------------
 Center     Atomic      Atomic             Coordinates (Angstroms)
 Number     Number       Type             X           Y           Z
 ---------------------------------------------------------------------
      1         15           0       -1.192217    0.000000    0.000000
      2         15           0        1.192217    0.000000    0.000000
      3          1           0        1.273540   -1.412829    0.002533
      4          1           0       -1.273337    1.401762   -0.176591
      5          1           0        1.368949    0.092010   -1.401697
      6          1           0       -1.368736   -0.268814   -1.378780
 ---------------------------------------------------------------------

 Alpha  occ. eigenvalues --  -78.03085 -78.03084  -6.85641  -6.85637  -4.97195
 Alpha  occ. eigenvalues --   -4.97183  -4.97152  -4.97151  -4.96938  -4.96936
 Alpha  occ. eigenvalues --   -0.75514  -0.67364  -0.45844  -0.45548  -0.39608
 Alpha  occ. eigenvalues --   -0.33622  -0.30882
 Alpha virt. eigenvalues --   -0.01256   0.00864   0.03543   0.03881   0.03966
 Alpha virt. eigenvalues --    0.04542   0.04972   0.06437   0.06524   0.08061
 Alpha virt. eigenvalues --    0.10307   0.15289   0.19227   0.28210   0.29387

  Beta  occ. eigenvalues --  -78.03085 -78.03084  -6.85641  -6.85637  -4.97195
  Beta  occ. eigenvalues --   -4.97183  -4.97152  -4.97151  -4.96938  -4.96936
  Beta  occ. eigenvalues --   -0.75514  -0.67364  -0.45844  -0.45548  -0.39608
  Beta  occ. eigenvalues --   -0.33622  -0.30882
  Beta virt. eigenvalues --   -0.01256   0.00864   0.03543   0.03881   0.03966
  Beta virt. eigenvalues --    0.04542   0.04972   0.06437   0.06524   0.08061
  Beta virt. eigenvalues --    0.10307   0.15289   0.19227   0.28210   0.29387

 Mulliken charges and spin densities:
               1          2
     1  P   -0.051521   0.000000
     2  P   -0.051538  -0.000000
     3  H    0.026121   0.000000
     4  H    0.026115  -0.000000
     5  H    0.025412   0.000000
     6  H    0.025411  -0.000000
 Sum of Mulliken charges =  -0.00000  -0.00000

 Dipole moment (field-independent basis, Debye):
    X=             -0.0001    Y=             -0.0825    Z=             -1.2961  Tot=              1.2987
 Quadrupole moment (field-independent basis, Debye-Ang):
   XX=            -31.1267   YY=            -28.8349   ZZ=            -29.6359
   XY=             -2.1604   XZ=              0.1371   YZ=             -0.0515

 Normal termination of Gaussian 16 at Mon Apr 21 20:45:13 2025.
