 Gaussian 16, Revision A.03,
 Gaussian 16:  ES64L-G16RevA.03 25-Dec-2016

 --------------------------------------------
 #p opt UM062X/6-311+G** nosymm int=superfine
 --------------------------------------------

 -------------------
 Title Card Required
 -------------------
 Symbolic Z-matrix:
 Charge =  0 Multiplicity = 3

 SCF Done:  E(UM062X) =  -39.1365702624     A.U. after   10 cycles
 SCF Done:  E(UM062X) =  -39.1412099558     A.U. after   10 cycles
 SCF Done:  E(UM062X) =  -39.1418897546     A.U. after   10 cycles
 SCF Done:  E(UM062X) =  -39.1418952612     A.U. after    8 cycles
 Optimization completed.
    -- Stationary point found.

                          Input orientation:
 ---------------------------------------------------------------------
 Center     Atomic      Atomic             Coordinates (Angstroms)
 Number     Number       Type             X           Y           Z
 ---------------------------------------------------------------------
      1          6           0       -0.707306   -0.000000    0.000000
      2          1           0       -1.125709   -0.993617   -0.000000
      3          1           0       -1.125715    0.993614    0.000001
 ---------------------------------------------------------------------

 Alpha  occ. eigenvalues --  -10.57320  -0.76755  -0.52570  -0.34343  -0.30446
 Alpha virt. eigenvalues --    0.04596   0.05773   0.08324   0.08751   0.16286
 Alpha virt. eigenvalues --    0.21416   0.43517   0.47238   0.56990   0.57891
 Alpha virt. eigenvalues --    0.67581   0.70750   1.06140   1.22559   1.25123

  Beta  occ. eigenvalues --  -10.55502  -0.67890  -0.50471
  Beta virt. eigenvalues --   -0.06205  -0.03570   0.03143   0.06531   0.13576
  Beta virt. eigenvalues --    0.14683   0.19158   0.22184   0.44455   0.44659
  Beta virt. eigenvalues --    0.58837   0.59056   0.75769   0.76276   1.19370

 Mulliken charges and spin densities:
               1          2
     1  C   -0.354691   2.063649
     2  H    0.177345  -0.031825
     3  H    0.177345  -0.031825
 Sum of Mulliken charges =  -0.00000   2.00000

 Dipole moment (field-independent basis, Debye):
    X=             -0.6867    Y=             -0.0000    Z=              0.0000  Tot=              0.6867
 Quadrupole moment (field-independent basis, Debye-Ang):
   XX=             -6.7276   YY=             -5.8981   ZZ=             -8.3966
   XY=             -0.0000   XZ=             -0.0000   YZ=              0.0000

 1\1\GINC-NODE02\FOpt\UM062X\6-311+G(d,p)\C1H2(3)\SZHAO\16-Apr-2025\0\\
 #p opt UM062X/6-311+G** nosymm int=superfine\\Title Card Required\\0,3
 \C,-0.7073055568,-0.0000001111,0.0000000487\H,-1.1257090478,-0.9936166
 633,-0.0000000394\H,-1.1257154154,0.9936137644,0.0000005107\\Version=E
 S64L-G16RevA.03\HF=-39.1418953\S2=2.00628\S2-1=0.\S2A=2.000011\RMSD=3.
 066e-09\RMSF=5.035e-05\Dipole=-0.2701524,-0.0000009,0.0000001\Quadrupo
 le=0.2080653,0.8247344,-1.0327997,-0.0000031,-0.0000004,0.0000005\PG=C
 01 [X(C1H2)]\\@

 Normal termination of Gaussian 16 at Wed Apr 16 08:32:09 2025.
