 Gaussian 16, Revision A.03,
 Gaussian 16:  ES64L-G16RevA.03 25-Dec-2016

 ---------------------------------------------------
 #p UM062X/6-311+G** force int=superfine pop=saveNBO
 ---------------------------------------------------

 -------------------
 Title Card Required
 -------------------
 Symbolic Z-matrix:
 Charge =  0 Multiplicity = 1

                         Standard orientation:
 ---------------------------------------------------------------------
 Center     Atomic      Atomic             Coordinates (Angstroms)
 Number     Number       Type             X           Y           Z
 ---------------------------------------------------------------------
      1          6           0        0.000000    0.000000   -2.212665
      2          8           0        0.000000    0.000000    1.659499
 ---------------------------------------------------------------------

 SCF Done:  E(UM062X) =  -112.635013130     A.U. after   20 cycles

 The electronic state is 1-SG.
 Alpha  occ. eigenvalues --  -19.69212 -10.83027  -0.99149  -0.72422  -0.37960
 Alpha  occ. eigenvalues --   -0.30058  -0.30058
 Alpha virt. eigenvalues --   -0.22622  -0.22622  -0.18237   0.02301   0.05959
 Alpha virt. eigenvalues --    0.05959   0.07247   0.18559   0.21229   0.21229
 Alpha virt. eigenvalues --    0.24952   0.50923   0.50923   0.51828   0.60927

  Beta  occ. eigenvalues --  -19.69212 -10.83027  -0.99149  -0.72422  -0.37960
  Beta  occ. eigenvalues --   -0.30058  -0.30058
  Beta virt. eigenvalues --   -0.22622  -0.22622  -0.18237   0.02301   0.05959
  Beta virt. eigenvalues --    0.05959   0.07247   0.18559   0.21229   0.21229
  Beta virt. eigenvalues --    0.24952   0.50923   0.50923   0.51828   0.60927

 Mulliken charges and spin densities:
               1          2
     1  C    0.295036  -0.000000
     2  O   -0.295036   0.000000
 Sum of Mulliken charges =  -0.00000  -0.00000

 Dipole moment (field-independent basis, Debye):
    X=              0.0000    Y=              0.0000    Z=             -5.4534  Tot=              5.4534
 Quadrupole moment (field-independent basis, Debye-Ang):
   XX=            -12.3753   YY=            -12.3753   ZZ=             -7.9862
   XY=              0.0000   XZ=              0.0000   YZ=              0.0000

 Summary of Natural Population Analysis:

                                       Natural Population
                Natural  -----------------------------------------------
    Atom  No    Charge         Core      Valence    Rydberg      Total
 -----------------------------------------------------------------------
      C    1    0.15178      1.00000     1.84812    0.00010     2.84822
      O    2   -0.15178      1.00000     3.15110    0.00068     4.15178
 =======================================================================
   * Total *   -0.00000      2.00000     4.99922    0.00078     7.00000

 Normal termination of Gaussian 16 at Mon Apr 21 19:32:05 2025.
