 Gaussian 16, Revision A.03,
 Gaussian 16:  ES64L-G16RevA.03 25-Dec-2016

 --------------------------------------------
 #p opt UM062X/6-311+G** nosymm int=superfine
 --------------------------------------------

 -------------------
 Title Card Required
 -------------------
 Symbolic Z-matrix:
 Charge =  0 Multiplicity = 1

 SCF Done:  E(UM062X) =  -81.7660614610     A.U. after   16 cycles
 SCF Done:  E(UM062X) =  -81.7727180548     A.U. after   13 cycles
 SCF Done:  E(UM062X) =  -81.7767035961     A.U. after   13 cycles
 SCF Done:  E(UM062X) =  -81.7786929468     A.U. after   15 cycles
 SCF Done:  E(UM062X) =  -81.7879598193     A.U. after   14 cycles
 SCF Done:  E(UM062X) =  -81.7940869680     A.U. after   13 cycles
 SCF Done:  E(UM062X) =  -81.7988978038     A.U. after   11 cycles
 SCF Done:  E(UM062X) =  -81.8005853789     A.U. after   12 cycles
 SCF Done:  E(UM062X) =  -81.8007074781     A.U. after   11 cycles
 SCF Done:  E(UM062X) =  -81.8007124584     A.U. after   10 cycles
 Optimization completed.
    -- Stationary point found.

                          Input orientation:
 ---------------------------------------------------------------------
 Center     Atomic      Atomic             Coordinates (Angstroms)
 Number     Number       Type             X           Y           Z
 ---------------------------------------------------------------------
      1          5           0       -1.395399    0.000000    0.000000
      2          7           0        1.395399    0.000000    0.000000
      3          1           0       -1.788210   -1.105070   -0.027102
      4          1           0        1.461633    0.805904    0.628447
      5          1           0       -1.788209    1.105065   -0.027325
      6          1           0        1.461634   -0.805776    0.628611
 ---------------------------------------------------------------------

 Alpha  occ. eigenvalues --  -14.72224  -7.16732  -0.87917  -0.61512  -0.49783
 Alpha  occ. eigenvalues --   -0.48528  -0.33989  -0.27044
 Alpha virt. eigenvalues --   -0.07476  -0.05537   0.01173   0.03098   0.04273
 Alpha virt. eigenvalues --    0.05348   0.10668   0.12912   0.13765   0.17242
 Alpha virt. eigenvalues --    0.20541   0.20959   0.21346   0.30086   0.32904

  Beta  occ. eigenvalues --  -14.72224  -7.16732  -0.87917  -0.61512  -0.49783
  Beta  occ. eigenvalues --   -0.48528  -0.33989  -0.27044
  Beta virt. eigenvalues --   -0.07476  -0.05537   0.01173   0.03098   0.04273
  Beta virt. eigenvalues --    0.05348   0.10668   0.12912   0.13765   0.17242
  Beta virt. eigenvalues --    0.20541   0.20959   0.21346   0.30086   0.32904

 Mulliken charges and spin densities:
               1          2
     1  B    0.186538   0.000000
     2  N   -0.729641  -0.000000
     3  H    0.052499  -0.000000
     4  H    0.219053   0.000000
     5  H    0.052499  -0.000000
     6  H    0.219053   0.000000
 Sum of Mulliken charges =   0.00000   0.00000

 Dipole moment (field-independent basis, Debye):
    X=             -3.7829    Y=              0.0002    Z=              1.7501  Tot=              4.1681
 Quadrupole moment (field-independent basis, Debye-Ang):
   XX=            -14.6071   YY=            -13.4049   ZZ=            -14.4477
   XY=              0.0003   XZ=              2.9522   YZ=             -0.0001

 Normal termination of Gaussian 16 at Mon Apr 21 17:44:39 2025.
