 Gaussian 16, Revision A.03,
 Gaussian 16:  ES64L-G16RevA.03 25-Dec-2016

 --------------------------------------------
 #p opt UM062X/6-311+G** nosymm int=superfine
 --------------------------------------------

 -------------------
 Title Card Required
 -------------------
 Symbolic Z-matrix:
 Charge =  0 Multiplicity = 3

 SCF Done:  E(UM062X) =  -50.4813065739     A.U. after   11 cycles
 SCF Done:  E(UM062X) =  -50.4822166388     A.U. after   12 cycles
 SCF Done:  E(UM062X) =  -50.4822236165     A.U. after    9 cycles
 Optimization completed.
    -- Stationary point found.

                          Input orientation:
 ---------------------------------------------------------------------
 Center     Atomic      Atomic             Coordinates (Angstroms)
 Number     Number       Type             X           Y           Z
 ---------------------------------------------------------------------
      1          5           0       -1.903410    0.000000    0.000000
      2          5           0        1.903410    0.000000    0.000000
      3          1           0       -3.108766   -0.000082    0.000000
      4          1           0        3.108766    0.000082   -0.000000
 ---------------------------------------------------------------------

 Alpha  occ. eigenvalues --   -7.14389  -7.14389  -0.56886  -0.56677  -0.33623
 Alpha  occ. eigenvalues --   -0.30491  -0.17904
 Alpha virt. eigenvalues --   -0.09940  -0.06451  -0.05367   0.02679   0.02853
 Alpha virt. eigenvalues --    0.05768   0.07052   0.07123   0.08072   0.08124
 Alpha virt. eigenvalues --    0.11565   0.16927   0.22181   0.33413   0.39375

  Beta  occ. eigenvalues --   -7.13481  -7.13480  -0.53580  -0.53423  -0.24089
  Beta virt. eigenvalues --   -0.11093  -0.04584  -0.04074  -0.03053  -0.02531
  Beta virt. eigenvalues --    0.01845   0.02445   0.07031   0.07303   0.07810
  Beta virt. eigenvalues --    0.08080   0.08942   0.09580   0.17491   0.23523

 Mulliken charges and spin densities:
               1          2
     1  B   -0.063502   0.925690
     2  B   -0.063503   0.925696
     3  H    0.063502   0.074307
     4  H    0.063503   0.074307
 Sum of Mulliken charges =  -0.00000   2.00000

 Dipole moment (field-independent basis, Debye):
    X=             -0.0000    Y=             -0.0000    Z=             -0.0000  Tot=              0.0000
 Quadrupole moment (field-independent basis, Debye-Ang):
   XX=             -8.0035   YY=            -13.6727   ZZ=            -17.6888
   XY=              0.0000   XZ=             -0.0000   YZ=             -0.0001

 1\1\GINC-NODE06\FOpt\UM062X\6-311+G(d,p)\B2H2(3)\SZHAO\21-Apr-2025\0\\
 #p opt UM062X/6-311+G** nosymm int=superfine\\Title Card Required\\0,3
 \B,-1.90341047,0.,0.\B,1.90341047,0.,0.\H,-3.1087661549,-0.0000822337,
 0.0000000016\H,3.1087661604,0.000082233,-0.0000000016\\Version=ES64L-G
 16RevA.03\HF=-50.4822236\S2=2.020221\S2-1=0.\S2A=2.000017\RMSD=4.823e-
 09\RMSF=4.340e-07\Dipole=-0.000004,0.,0.\Quadrupole=3.8052294,-0.40969
 03,-3.3955391,0.0000113,0.,-0.0000595\PG=C*V [C*(H1B1B1H1)]\\@

 Normal termination of Gaussian 16 at Mon Apr 21 17:29:29 2025.
