 Gaussian 16, Revision A.03,
 Gaussian 16:  ES64L-G16RevA.03 25-Dec-2016

 --------------------------------------------
 #p opt UM062X/6-311+G** nosymm int=superfine
 --------------------------------------------

 -------------------
 Title Card Required
 -------------------
 Symbolic Z-matrix:
 Charge =  0 Multiplicity = 1

 SCF Done:  E(UM062X) =  -582.509541502     A.U. after    9 cycles
 SCF Done:  E(UM062X) =  -582.509743110     A.U. after    7 cycles
 SCF Done:  E(UM062X) =  -582.509763267     A.U. after    7 cycles
 Optimization completed.
    -- Stationary point found.

                          Input orientation:
 ---------------------------------------------------------------------
 Center     Atomic      Atomic             Coordinates (Angstroms)
 Number     Number       Type             X           Y           Z
 ---------------------------------------------------------------------
      1         14           0       -1.344819    0.000000    0.000000
      2         14           0        1.344819    0.000000    0.000000
      3          1           0        1.831249   -1.396877   -0.000037
      4          1           0       -1.831299   -0.698288    1.209806
      5          1           0        1.831379    0.698428   -1.209692
      6          1           0        1.831302    0.698338    1.209776
      7          1           0       -1.831251    1.396877   -0.000099
      8          1           0       -1.831380   -0.698480   -1.209661
 ---------------------------------------------------------------------

 Alpha  occ. eigenvalues --  -66.99936 -66.99936  -5.54897  -5.54895  -3.86055
 Alpha  occ. eigenvalues --   -3.86041  -3.85992  -3.85992  -3.85991  -3.85991
 Alpha  occ. eigenvalues --   -0.62501  -0.58608  -0.41696  -0.41696  -0.40204
 Alpha  occ. eigenvalues --   -0.40203  -0.31351
 Alpha virt. eigenvalues --   -0.00077   0.01957   0.03102   0.03102   0.04465
 Alpha virt. eigenvalues --    0.05658   0.05658   0.05823   0.05956   0.05957
 Alpha virt. eigenvalues --    0.08990   0.09067   0.09068   0.15636   0.17848

  Beta  occ. eigenvalues --  -66.99936 -66.99936  -5.54897  -5.54895  -3.86055
  Beta  occ. eigenvalues --   -3.86041  -3.85992  -3.85992  -3.85991  -3.85991
  Beta  occ. eigenvalues --   -0.62501  -0.58608  -0.41696  -0.41696  -0.40204
  Beta  occ. eigenvalues --   -0.40203  -0.31351
  Beta virt. eigenvalues --   -0.00077   0.01957   0.03102   0.03102   0.04465
  Beta virt. eigenvalues --    0.05658   0.05658   0.05823   0.05956   0.05957
  Beta virt. eigenvalues --    0.08990   0.09067   0.09068   0.15636   0.17848

 Mulliken charges and spin densities:
               1          2
     1  Si   0.299162   0.000000
     2  Si   0.299162  -0.000000
     3  H   -0.099723  -0.000000
     4  H   -0.099720   0.000000
     5  H   -0.099719   0.000000
     6  H   -0.099720  -0.000000
     7  H   -0.099723   0.000000
     8  H   -0.099719  -0.000000
 Sum of Mulliken charges =  -0.00000   0.00000

 Dipole moment (field-independent basis, Debye):
    X=              0.0000    Y=              0.0000    Z=             -0.0000  Tot=              0.0000
 Quadrupole moment (field-independent basis, Debye-Ang):
   XX=            -31.7671   YY=            -31.5004   ZZ=            -31.5002
   XY=              0.0004   XZ=             -0.0000   YZ=             -0.0000

 Normal termination of Gaussian 16 at Mon Apr 21 20:18:29 2025.
