 Gaussian 16, Revision A.03,
 Gaussian 16:  ES64L-G16RevA.03 25-Dec-2016

 ---------------------------------------
 #p UM062X/6-311+G** force int=superfine
 ---------------------------------------

 -------------------
 Title Card Required
 -------------------
 Symbolic Z-matrix:
 Charge =  1 Multiplicity = 2

                         Standard orientation:
 ---------------------------------------------------------------------
 Center     Atomic      Atomic             Coordinates (Angstroms)
 Number     Number       Type             X           Y           Z
 ---------------------------------------------------------------------
      1          6           0        1.117985    0.939227   -1.641676
      2          6           0       -1.117986   -0.939223    1.641677
      3          1           0       -2.014440   -0.983727    1.035194
      4          1           0        0.939044    0.082763   -2.280324
      5          1           0       -0.939436   -0.083356    2.281236
      6          1           0       -0.432223   -1.777643    1.655860
      7          1           0        2.014409    0.983956   -1.035166
      8          1           0        0.432654    1.777986   -1.656807
 ---------------------------------------------------------------------

 SCF Done:  E(UM062X) =  -79.3140536503     A.U. after   10 cycles

 The electronic state is 2-A.
 Alpha  occ. eigenvalues --  -10.82831 -10.82831  -1.01459  -1.01265  -0.72573
 Alpha  occ. eigenvalues --   -0.72572  -0.72526  -0.72525  -0.45979
 Alpha virt. eigenvalues --   -0.37888  -0.12294  -0.10023  -0.09002  -0.09002
 Alpha virt. eigenvalues --   -0.06190  -0.06189  -0.04451  -0.02521   0.00641
 Alpha virt. eigenvalues --    0.00644   0.01550   0.01552   0.02261   0.09184

  Beta  occ. eigenvalues --  -10.82604 -10.82604  -0.98792  -0.98704  -0.72032
  Beta  occ. eigenvalues --   -0.72031  -0.71978  -0.71977
  Beta virt. eigenvalues --   -0.31262  -0.26683  -0.17104  -0.10248  -0.10181
  Beta virt. eigenvalues --   -0.10178  -0.06122  -0.06122  -0.05786  -0.01549
  Beta virt. eigenvalues --    0.00582   0.00585   0.01796   0.01798   0.02260

 Mulliken charges and spin densities:
               1          2
     1  C   -0.234684   0.559492
     2  C   -0.234686   0.559491
     3  H    0.244917  -0.019824
     4  H    0.244862  -0.019846
     5  H    0.244882  -0.019849
     6  H    0.244887  -0.019818
     7  H    0.244917  -0.019825
     8  H    0.244905  -0.019821
 Sum of Mulliken charges =   1.00000   1.00000

 Dipole moment (field-independent basis, Debye):
    X=              0.0000    Y=             -0.0000    Z=             -0.0000  Tot=              0.0000
 Quadrupole moment (field-independent basis, Debye-Ang):
   XX=             -5.2688   YY=             -6.9924   ZZ=              1.4930
   XY=              4.9169   XZ=             -8.5934   YZ=             -7.2182

 Normal termination of Gaussian 16 at Tue Nov 19 08:46:36 2024.
