 Gaussian 16, Revision A.03,
 Gaussian 16:  ES64L-G16RevA.03 25-Dec-2016

 --------------------------------------------
 #p opt UM062X/6-311+G** nosymm int=superfine
 --------------------------------------------

 -------------------
 Title Card Required
 -------------------
 Symbolic Z-matrix:
 Charge =  1 Multiplicity = 2

 SCF Done:  E(UM062X) =  -579.683895928     A.U. after   15 cycles
 SCF Done:  E(UM062X) =  -579.686554674     A.U. after   14 cycles
 SCF Done:  E(UM062X) =  -579.691093952     A.U. after   15 cycles
 SCF Done:  E(UM062X) =  -579.691611332     A.U. after   13 cycles
 SCF Done:  E(UM062X) =  -579.691750844     A.U. after   13 cycles
 SCF Done:  E(UM062X) =  -579.691771042     A.U. after   12 cycles
 SCF Done:  E(UM062X) =  -579.691803025     A.U. after   12 cycles
 SCF Done:  E(UM062X) =  -579.691828157     A.U. after   11 cycles
 SCF Done:  E(UM062X) =  -579.691831665     A.U. after   12 cycles
 Optimization completed.
    -- Stationary point found.

                          Input orientation:
 ---------------------------------------------------------------------
 Center     Atomic      Atomic             Coordinates (Angstroms)
 Number     Number       Type             X           Y           Z
 ---------------------------------------------------------------------
      1         14           0       -1.902975    0.000000    0.000000
      2         14           0        1.902975    0.000000    0.000000
      3          1           0       -2.022018   -1.502384    0.000000
      4          1           0        2.021899    1.502382    0.000000
 ---------------------------------------------------------------------

 Alpha  occ. eigenvalues --  -67.26922 -67.26922  -5.81089  -5.81088  -4.12190
 Alpha  occ. eigenvalues --   -4.12190  -4.12112  -4.12112  -4.11457  -4.11457
 Alpha  occ. eigenvalues --   -0.76453  -0.75277  -0.52887  -0.52618  -0.42471
 Alpha virt. eigenvalues --   -0.28495  -0.27849  -0.26828  -0.11303  -0.09909
 Alpha virt. eigenvalues --   -0.08796  -0.08531  -0.07974  -0.07008  -0.05666
 Alpha virt. eigenvalues --   -0.05661  -0.05290  -0.02850   0.12874   0.14438

  Beta  occ. eigenvalues --  -67.26665 -67.26665  -5.81012  -5.81010  -4.12048
  Beta  occ. eigenvalues --   -4.12048  -4.11519  -4.11519  -4.11331  -4.11331
  Beta  occ. eigenvalues --   -0.74478  -0.73620  -0.52317  -0.51681
  Beta virt. eigenvalues --   -0.28512  -0.28135  -0.26342  -0.22702  -0.13245
  Beta virt. eigenvalues --   -0.10387  -0.08959  -0.08790  -0.08327  -0.06785
  Beta virt. eigenvalues --   -0.05598  -0.05399  -0.05335  -0.02758   0.11797

 Mulliken charges and spin densities:
               1          2
     1  Si   0.577781   0.510820
     2  Si   0.577790   0.510809
     3  H   -0.077784  -0.010815
     4  H   -0.077787  -0.010815
 Sum of Mulliken charges =   1.00000   1.00000

 Dipole moment (field-independent basis, Debye):
    X=              0.0000    Y=              0.0000    Z=              0.0000  Tot=              0.0000
 Quadrupole moment (field-independent basis, Debye-Ang):
   XX=             -1.9875   YY=            -27.5319   ZZ=            -19.8244
   XY=              2.0374   XZ=              0.0000   YZ=             -0.0000

 Normal termination of Gaussian 16 at Mon Apr 21 20:41:03 2025.
