 Gaussian 16, Revision A.03,
 Gaussian 16:  ES64L-G16RevA.03 25-Dec-2016

 --------------------------------------------
 #p opt UM062X/6-311+G** nosymm int=superfine
 --------------------------------------------

 -------------------
 Title Card Required
 -------------------
 Symbolic Z-matrix:
 Charge =  0 Multiplicity = 1

 SCF Done:  E(UM062X) =  -81.7864885776     A.U. after   15 cycles
 SCF Done:  E(UM062X) =  -81.7925509324     A.U. after   11 cycles
 SCF Done:  E(UM062X) =  -81.7959629729     A.U. after   12 cycles
 SCF Done:  E(UM062X) =  -81.7937956436     A.U. after   14 cycles
 SCF Done:  E(UM062X) =  -81.7980827799     A.U. after   13 cycles
 SCF Done:  E(UM062X) =  -81.8048891597     A.U. after   14 cycles
 SCF Done:  E(UM062X) =  -81.8088460067     A.U. after   13 cycles
 SCF Done:  E(UM062X) =  -81.8146447715     A.U. after   12 cycles
 SCF Done:  E(UM062X) =  -81.8171251696     A.U. after   12 cycles
 SCF Done:  E(UM062X) =  -81.8171148710     A.U. after   11 cycles
 SCF Done:  E(UM062X) =  -81.8172039290     A.U. after   11 cycles
 SCF Done:  E(UM062X) =  -81.8172047142     A.U. after    8 cycles
 Optimization completed.
    -- Stationary point found.

                          Input orientation:
 ---------------------------------------------------------------------
 Center     Atomic      Atomic             Coordinates (Angstroms)
 Number     Number       Type             X           Y           Z
 ---------------------------------------------------------------------
      1          5           0       -1.320399    0.000000    0.000000
      2          7           0        1.320399    0.000000    0.000000
      3          1           0       -1.728099   -1.100200   -0.029091
      4          1           0        1.410797    0.807812    0.621768
      5          1           0       -1.728099    1.100192   -0.029380
      6          1           0        1.410797   -0.807658    0.621967
 ---------------------------------------------------------------------

 Alpha  occ. eigenvalues --  -14.72333  -7.16174  -0.88141  -0.61092  -0.49628
 Alpha  occ. eigenvalues --   -0.48404  -0.34321  -0.27882
 Alpha virt. eigenvalues --   -0.07016  -0.04148   0.01262   0.03176   0.04437
 Alpha virt. eigenvalues --    0.05460   0.10910   0.13282   0.13789   0.17157
 Alpha virt. eigenvalues --    0.20563   0.20922   0.21305   0.30182   0.33108

  Beta  occ. eigenvalues --  -14.72333  -7.16174  -0.88141  -0.61092  -0.49628
  Beta  occ. eigenvalues --   -0.48404  -0.34321  -0.27882
  Beta virt. eigenvalues --   -0.07016  -0.04148   0.01262   0.03176   0.04437
  Beta virt. eigenvalues --    0.05460   0.10910   0.13282   0.13789   0.17157
  Beta virt. eigenvalues --    0.20563   0.20922   0.21305   0.30182   0.33108

 Mulliken charges and spin densities:
               1          2
     1  B    0.190628   0.000000
     2  N   -0.735602  -0.000000
     3  H    0.049035  -0.000000
     4  H    0.223452   0.000000
     5  H    0.049035  -0.000000
     6  H    0.223452   0.000000
 Sum of Mulliken charges =  -0.00000   0.00000

 Dipole moment (field-independent basis, Debye):
    X=             -3.4394    Y=              0.0002    Z=              1.7142  Tot=              3.8429
 Quadrupole moment (field-independent basis, Debye-Ang):
   XX=            -14.7348   YY=            -13.3888   ZZ=            -14.4377
   XY=              0.0003   XZ=              2.8306   YZ=             -0.0001

 Normal termination of Gaussian 16 at Mon Apr 21 17:48:13 2025.
