 Gaussian 16, Revision A.03,
 Gaussian 16:  ES64L-G16RevA.03 25-Dec-2016

 --------------------------------------------
 #p opt UM062X/6-311+G** nosymm int=superfine
 --------------------------------------------

 -------------------
 Title Card Required
 -------------------
 Symbolic Z-matrix:
 Charge =  0 Multiplicity = 1

 SCF Done:  E(UM062X) =  -115.583524656     A.U. after   11 cycles
 SCF Done:  E(UM062X) =  -115.596182741     A.U. after   11 cycles
 SCF Done:  E(UM062X) =  -115.599100561     A.U. after   11 cycles
 SCF Done:  E(UM062X) =  -115.599118207     A.U. after    9 cycles
 SCF Done:  E(UM062X) =  -115.599123870     A.U. after    9 cycles
 SCF Done:  E(UM062X) =  -115.599124082     A.U. after    8 cycles
 Optimization completed.
    -- Stationary point found.

                          Input orientation:
 ---------------------------------------------------------------------
 Center     Atomic      Atomic             Coordinates (Angstroms)
 Number     Number       Type             X           Y           Z
 ---------------------------------------------------------------------
      1          6           0       -1.082203    0.000000    0.000000
      2          8           0        1.082203    0.000000    0.000000
      3          1           0        1.185044   -0.959225    0.000199
      4          1           0       -1.269167   -0.520189    0.929125
      5          1           0       -1.181674    1.075625   -0.000788
      6          1           0       -1.269237   -0.521547   -0.928351
 ---------------------------------------------------------------------

 Alpha  occ. eigenvalues --  -19.61103 -10.63285  -1.04016  -0.81190  -0.53200
 Alpha  occ. eigenvalues --   -0.53144  -0.47692  -0.36122  -0.34791
 Alpha virt. eigenvalues --   -0.05864   0.01108   0.04657   0.05147   0.07003
 Alpha virt. eigenvalues --    0.14948   0.17068   0.17196   0.20321   0.22953
 Alpha virt. eigenvalues --    0.23322   0.24218   0.33110   0.40937   0.41954

  Beta  occ. eigenvalues --  -19.61103 -10.63285  -1.04016  -0.81190  -0.53200
  Beta  occ. eigenvalues --   -0.53144  -0.47692  -0.36122  -0.34791
  Beta virt. eigenvalues --   -0.05864   0.01108   0.04657   0.05147   0.07003
  Beta virt. eigenvalues --    0.14948   0.17068   0.17196   0.20321   0.22953
  Beta virt. eigenvalues --    0.23322   0.24218   0.33110   0.40937   0.41954

 Mulliken charges and spin densities:
               1          2
     1  C   -0.304276  -0.000000
     2  O   -0.506335  -0.000000
     3  H    0.225517   0.000000
     4  H    0.189362   0.000000
     5  H    0.206390   0.000000
     6  H    0.189341   0.000000
 Sum of Mulliken charges =  -0.00000  -0.00000

 Dipole moment (field-independent basis, Debye):
    X=             -3.3923    Y=             -1.5334    Z=              0.0003  Tot=              3.7227
 Quadrupole moment (field-independent basis, Debye-Ang):
   XX=            -13.4308   YY=            -11.4187   ZZ=            -13.8131
   XY=             -2.1539   XZ=              0.0005   YZ=             -0.0005

 Normal termination of Gaussian 16 at Mon Apr 21 18:37:06 2025.
