 Gaussian 16, Revision A.03,
 Gaussian 16:  ES64L-G16RevA.03 25-Dec-2016

 --------------------------------------------
 #p opt UM062X/6-311+G** nosymm int=superfine
 --------------------------------------------

 -------------------
 Title Card Required
 -------------------
 Symbolic Z-matrix:
 Charge =  0 Multiplicity = 1

 SCF Done:  E(UM062X) =  -76.8374347193     A.U. after   11 cycles
 SCF Done:  E(UM062X) =  -76.9244014934     A.U. after    9 cycles
 SCF Done:  E(UM062X) =  -77.0267266455     A.U. after    9 cycles
 SCF Done:  E(UM062X) =  -77.0561542695     A.U. after   10 cycles
 SCF Done:  E(UM062X) =  -77.0574024522     A.U. after    8 cycles
 SCF Done:  E(UM062X) =  -77.0575790633     A.U. after    7 cycles
 Optimization completed.
    -- Stationary point found.

                          Input orientation:
 ---------------------------------------------------------------------
 Center     Atomic      Atomic             Coordinates (Angstroms)
 Number     Number       Type             X           Y           Z
 ---------------------------------------------------------------------
      1          6           0       -0.364580    0.000000    0.000000
      2          6           0        0.364580    0.000000    0.000000
      3          1           0       -1.117798   -0.830771    0.000000
      4          1           0       -1.117841    0.830596    0.000000
      5          1           0        1.117798    0.830771   -0.000000
      6          1           0        1.117841   -0.830596   -0.000000
 ---------------------------------------------------------------------

 Alpha  occ. eigenvalues --  -10.60984 -10.46669  -0.91970  -0.64932  -0.60262
 Alpha  occ. eigenvalues --   -0.54424  -0.51996  -0.27392
 Alpha virt. eigenvalues --    0.02672   0.02833   0.04153   0.05609   0.08135
 Alpha virt. eigenvalues --    0.09462   0.09834   0.14316   0.15921   0.18780
 Alpha virt. eigenvalues --    0.25251   0.26039   0.37144   0.41707   0.44061

  Beta  occ. eigenvalues --  -10.60984 -10.46669  -0.91970  -0.64932  -0.60262
  Beta  occ. eigenvalues --   -0.54424  -0.51996  -0.27392
  Beta virt. eigenvalues --    0.02672   0.02833   0.04153   0.05609   0.08135
  Beta virt. eigenvalues --    0.09462   0.09834   0.14316   0.15921   0.18780
  Beta virt. eigenvalues --    0.25251   0.26039   0.37144   0.41707   0.44061

 Mulliken charges and spin densities:
               1          2
     1  C   -0.243313  -0.000000
     2  C   -0.243313   0.000000
     3  H    0.121637   0.000000
     4  H    0.121676   0.000000
     5  H    0.121637  -0.000000
     6  H    0.121676  -0.000000
 Sum of Mulliken charges =  -0.00000   0.00000

 Dipole moment (field-independent basis, Debye):
    X=              0.0000    Y=              0.0000    Z=              0.0000  Tot=              0.0000
 Quadrupole moment (field-independent basis, Debye-Ang):
   XX=            -12.7647   YY=            -12.6926   ZZ=            -13.0004
   XY=             -0.0006   XZ=             -0.0000   YZ=              0.0000

 Normal termination of Gaussian 16 at Tue Nov 19 10:12:44 2024.
