 Gaussian 16, Revision A.03,
 Gaussian 16:  ES64L-G16RevA.03 25-Dec-2016

 --------------------------------------------
 #p opt UM062X/6-311+G** nosymm int=superfine
 --------------------------------------------

 -------------------
 Title Card Required
 -------------------
 Symbolic Z-matrix:
 Charge =  1 Multiplicity = 2

 SCF Done:  E(UM062X) =  -379.295393015     A.U. after   62 cycles
 SCF Done:  E(UM062X) =  -379.296172211     A.U. after   23 cycles
 SCF Done:  E(UM062X) =  -379.296173818     A.U. after   12 cycles
 Optimization completed.
    -- Stationary point found.

                          Input orientation:
 ---------------------------------------------------------------------
 Center     Atomic      Atomic             Coordinates (Angstroms)
 Number     Number       Type             X           Y           Z
 ---------------------------------------------------------------------
      1          6           0       -2.119427    0.000000    0.000000
      2         15           0        2.119427    0.000000    0.000000
      3          1           0       -3.240721    0.000000   -0.000000
 ---------------------------------------------------------------------

 Alpha  occ. eigenvalues --  -78.31405 -10.97292  -7.12968  -5.25113  -5.24763
 Alpha  occ. eigenvalues --   -5.23713  -0.99273  -0.84965  -0.65175  -0.50624
 Alpha  occ. eigenvalues --   -0.44972
 Alpha virt. eigenvalues --   -0.38166  -0.34714  -0.33316  -0.13202  -0.09539
 Alpha virt. eigenvalues --   -0.08432  -0.08088  -0.06570  -0.05389  -0.05020
 Alpha virt. eigenvalues --   -0.02523   0.00077   0.16886   0.17416   0.17678

  Beta  occ. eigenvalues --  -78.30651 -10.97252  -7.12741  -5.24550  -5.23565
  Beta  occ. eigenvalues --   -5.22832  -0.99066  -0.79776  -0.65010  -0.43961
  Beta virt. eigenvalues --   -0.37101  -0.34546  -0.32144  -0.28330  -0.13586
  Beta virt. eigenvalues --   -0.10687  -0.08236  -0.08070  -0.06431  -0.05052
  Beta virt. eigenvalues --   -0.04614  -0.02769  -0.00149   0.14933   0.15635

 Mulliken charges and spin densities:
               1          2
     1  C    0.278669   0.049244
     2  P    0.483022   0.952681
     3  H    0.238309  -0.001925
 Sum of Mulliken charges =   1.00000   1.00000

 Dipole moment (field-independent basis, Debye):
    X=             -2.4210    Y=              0.0000    Z=             -0.0000  Tot=              2.4210
 Quadrupole moment (field-independent basis, Debye-Ang):
   XX=             17.2650   YY=            -19.8893   ZZ=            -16.7614
   XY=              0.0000   XZ=              0.0000   YZ=              0.2480

 Normal termination of Gaussian 16 at Mon Apr 21 19:26:30 2025.
