 Gaussian 16, Revision A.03,
 Gaussian 16:  ES64L-G16RevA.03 25-Dec-2016

 ----------------------------------------------------------------------
 #p opt UM062X/6-311+G** nosymm int=superfine SCF=(MaxCycle=200,NoVarAc
 c,noincfock) guess=read
 ----------------------------------------------------------------------

 -------------------
 Title Card Required
 -------------------
 Symbolic Z-matrix:
 Charge =  0 Multiplicity = 1

 SCF Done:  E(UM062X) =  -81.7264279459     A.U. after   23 cycles
 SCF Done:  E(UM062X) =  -81.7448134425     A.U. after   17 cycles
 SCF Done:  E(UM062X) =  -81.7570912397     A.U. after   14 cycles
 SCF Done:  E(UM062X) =  -81.7602549729     A.U. after   14 cycles
 SCF Done:  E(UM062X) =  -81.7581237098     A.U. after   16 cycles
 SCF Done:  E(UM062X) =  -81.7605726208     A.U. after   13 cycles
 SCF Done:  E(UM062X) =  -81.7619032173     A.U. after   14 cycles
 SCF Done:  E(UM062X) =  -81.7619926181     A.U. after   11 cycles
 SCF Done:  E(UM062X) =  -81.7620079165     A.U. after   13 cycles
 Optimization completed.
    -- Stationary point found.

                          Input orientation:
 ---------------------------------------------------------------------
 Center     Atomic      Atomic             Coordinates (Angstroms)
 Number     Number       Type             X           Y           Z
 ---------------------------------------------------------------------
      1          5           0       -1.620399    0.000000    0.000000
      2          7           0        1.620399    0.000000    0.000000
      3          1           0       -1.974663   -1.116964    0.024619
      4          1           0        1.637811    0.803378   -0.636263
      5          1           0       -1.974662    1.116966    0.024549
      6          1           0        1.637812   -0.803432   -0.636195
 ---------------------------------------------------------------------

 Alpha  occ. eigenvalues --  -14.71899  -7.17899  -0.87502  -0.62513  -0.50986
 Alpha  occ. eigenvalues --   -0.48194  -0.33451  -0.24916
 Alpha virt. eigenvalues --   -0.09063  -0.08179   0.00894   0.02866   0.04149
 Alpha virt. eigenvalues --    0.05120   0.09934   0.12092   0.13678   0.17382
 Alpha virt. eigenvalues --    0.20361   0.20884   0.21553   0.29046   0.32560

  Beta  occ. eigenvalues --  -14.71899  -7.17899  -0.87502  -0.62513  -0.50986
  Beta  occ. eigenvalues --   -0.48194  -0.33451  -0.24916
  Beta virt. eigenvalues --   -0.09063  -0.08179   0.00894   0.02866   0.04149
  Beta virt. eigenvalues --    0.05120   0.09934   0.12092   0.13678   0.17382
  Beta virt. eigenvalues --    0.20361   0.20884   0.21553   0.29046   0.32560

 Mulliken charges and spin densities:
               1          2
     1  B    0.171424   0.000000
     2  N   -0.713569  -0.000000
     3  H    0.061694  -0.000000
     4  H    0.209378   0.000000
     5  H    0.061694  -0.000000
     6  H    0.209378   0.000000
 Sum of Mulliken charges =  -0.00000  -0.00000

 Dipole moment (field-independent basis, Debye):
    X=             -4.6722    Y=             -0.0001    Z=             -1.8270  Tot=              5.0167
 Quadrupole moment (field-independent basis, Debye-Ang):
   XX=            -14.1841   YY=            -13.4260   ZZ=            -14.5267
   XY=             -0.0001   XZ=             -3.3303   YZ=             -0.0001

 Normal termination of Gaussian 16 at Mon Apr 21 20:16:56 2025.
