 Gaussian 16, Revision A.03,
 Gaussian 16:  ES64L-G16RevA.03 25-Dec-2016

 --------------------------------------------
 #p opt UM062X/6-311+G** nosymm int=superfine
 --------------------------------------------

 -------------------
 Title Card Required
 -------------------
 Symbolic Z-matrix:
 Charge =  0 Multiplicity = 1

 SCF Done:  E(UM062X) =  -579.874283502     A.U. after   10 cycles
 SCF Done:  E(UM062X) =  -579.876965411     A.U. after   10 cycles
 SCF Done:  E(UM062X) =  -579.876969452     A.U. after    9 cycles
 Optimization completed.
    -- Stationary point found.

                          Input orientation:
 ---------------------------------------------------------------------
 Center     Atomic      Atomic             Coordinates (Angstroms)
 Number     Number       Type             X           Y           Z
 ---------------------------------------------------------------------
      1         14           0       -2.403705    0.000000    0.000000
      2         14           0        2.403705    0.000000    0.000000
      3          1           0       -3.927269   -0.000028    0.000000
      4          1           0        3.927269    0.000039   -0.000000
 ---------------------------------------------------------------------

 Alpha  occ. eigenvalues --  -67.04503 -67.04503  -5.58941  -5.58940  -3.90056
 Alpha  occ. eigenvalues --   -3.90055  -3.89600  -3.89600  -3.89459  -3.89459
 Alpha  occ. eigenvalues --   -0.54940  -0.54784  -0.33209  -0.32065  -0.17415
 Alpha virt. eigenvalues --   -0.11253  -0.08993  -0.08454   0.02259   0.02932
 Alpha virt. eigenvalues --    0.04442   0.05586   0.05597   0.05893   0.06816
 Alpha virt. eigenvalues --    0.07023   0.08171   0.14635   0.28212   0.29859

  Beta  occ. eigenvalues --  -67.04503 -67.04503  -5.58941  -5.58940  -3.90056
  Beta  occ. eigenvalues --   -3.90055  -3.89600  -3.89600  -3.89459  -3.89459
  Beta  occ. eigenvalues --   -0.54940  -0.54784  -0.33209  -0.32065  -0.17415
  Beta virt. eigenvalues --   -0.11253  -0.08993  -0.08454   0.02259   0.02932
  Beta virt. eigenvalues --    0.04442   0.05586   0.05597   0.05893   0.06816
  Beta virt. eigenvalues --    0.07023   0.08171   0.14635   0.28212   0.29859

 Mulliken charges and spin densities:
               1          2
     1  Si   0.152991   0.000000
     2  Si   0.152991  -0.000000
     3  H   -0.152991  -0.000000
     4  H   -0.152991   0.000000
 Sum of Mulliken charges =  -0.00000  -0.00000

 Dipole moment (field-independent basis, Debye):
    X=              0.0000    Y=              0.0000    Z=             -0.0000  Tot=              0.0000
 Quadrupole moment (field-independent basis, Debye-Ang):
   XX=            -30.3154   YY=            -24.2414   ZZ=            -35.5998
   XY=             -0.0002   XZ=              0.0000   YZ=             -0.0001

 Normal termination of Gaussian 16 at Mon Apr 21 21:26:04 2025.
