 Gaussian 16, Revision A.03,
 Gaussian 16:  ES64L-G16RevA.03 25-Dec-2016

 --------------------------------------------
 #p opt UM062X/6-311+G** nosymm int=superfine
 --------------------------------------------

 -------------------
 Title Card Required
 -------------------
 Symbolic Z-matrix:
 Charge =  0 Multiplicity = 1

 SCF Done:  E(UM062X) =  -380.946783657     A.U. after   20 cycles
 SCF Done:  E(UM062X) =  -380.948889873     A.U. after   15 cycles
 SCF Done:  E(UM062X) =  -380.950064480     A.U. after   14 cycles
 SCF Done:  E(UM062X) =  -380.950178652     A.U. after   14 cycles
 SCF Done:  E(UM062X) =  -380.950054057     A.U. after   17 cycles
 SCF Done:  E(UM062X) =  -380.950283074     A.U. after   17 cycles
 SCF Done:  E(UM062X) =  -380.950286044     A.U. after   13 cycles
 SCF Done:  E(UM062X) =  -380.950289609     A.U. after   11 cycles
 SCF Done:  E(UM062X) =  -380.950295155     A.U. after   15 cycles
 SCF Done:  E(UM062X) =  -380.950299347     A.U. after   16 cycles
 SCF Done:  E(UM062X) =  -380.950300177     A.U. after   15 cycles
 SCF Done:  E(UM062X) =  -380.950300197     A.U. after   14 cycles
 Optimization completed.
    -- Stationary point found.

                          Input orientation:
 ---------------------------------------------------------------------
 Center     Atomic      Atomic             Coordinates (Angstroms)
 Number     Number       Type             X           Y           Z
 ---------------------------------------------------------------------
      1          6           0       -1.630452    0.000000    0.000000
      2         15           0        1.630452    0.000000    0.000000
      3          1           0       -2.310415   -0.867091    0.000350
      4          1           0        1.401364   -1.402360    0.000425
      5          1           0       -2.273589    0.894472   -0.000345
 ---------------------------------------------------------------------

 Alpha  occ. eigenvalues --  -78.03985 -10.64171  -6.86162  -4.98118  -4.97402
 Alpha  occ. eigenvalues --   -4.96994  -0.78087  -0.64817  -0.50949  -0.37590
 Alpha  occ. eigenvalues --   -0.34289  -0.23697
 Alpha virt. eigenvalues --   -0.10660  -0.09417   0.01227   0.04194   0.04774
 Alpha virt. eigenvalues --    0.06280   0.06938   0.07380   0.08877   0.11497
 Alpha virt. eigenvalues --    0.13631   0.17105   0.18396   0.31124   0.34289

  Beta  occ. eigenvalues --  -78.03985 -10.64171  -6.86162  -4.98118  -4.97402
  Beta  occ. eigenvalues --   -4.96994  -0.78087  -0.64817  -0.50949  -0.37590
  Beta  occ. eigenvalues --   -0.34289  -0.23697
  Beta virt. eigenvalues --   -0.10660  -0.09417   0.01227   0.04194   0.04774
  Beta virt. eigenvalues --    0.06280   0.06938   0.07380   0.08877   0.11497
  Beta virt. eigenvalues --    0.13631   0.17105   0.18396   0.31124   0.34289

 Mulliken charges and spin densities:
               1          2
     1  C   -0.322560  -0.000000
     2  P    0.037159   0.000000
     3  H    0.158676  -0.000000
     4  H   -0.032274  -0.000000
     5  H    0.158999   0.000000
 Sum of Mulliken charges =  -0.00000  -0.00000

 Dipole moment (field-independent basis, Debye):
    X=             -2.8460    Y=             -0.5944    Z=              0.0002  Tot=              2.9074
 Quadrupole moment (field-independent basis, Debye-Ang):
   XX=            -14.1743   YY=            -21.2934   ZZ=            -25.5644
   XY=             -1.6222   XZ=              0.0005   YZ=             -0.0013

 Normal termination of Gaussian 16 at Mon Apr 21 19:18:19 2025.
