 Gaussian 16, Revision A.03,
 Gaussian 16:  ES64L-G16RevA.03 25-Dec-2016

 --------------------------------------------
 #p opt UM062X/6-311+G** nosymm int=superfine
 --------------------------------------------

 -------------------
 Title Card Required
 -------------------
 Symbolic Z-matrix:
 Charge =  1 Multiplicity = 2

 SCF Done:  E(UM062X) =  -1615.54445083     A.U. after   27 cycles
 SCF Done:  E(UM062X) =  -1615.58147007     A.U. after   21 cycles
 SCF Done:  E(UM062X) =  -1615.58583544     A.U. after   23 cycles
 SCF Done:  E(UM062X) =  -1615.56600073     A.U. after   24 cycles
 SCF Done:  E(UM062X) =  -1615.57488115     A.U. after   27 cycles
 SCF Done:  E(UM062X) =  -1615.57893753     A.U. after   24 cycles
 SCF Done:  E(UM062X) =  -1615.58588692     A.U. after   18 cycles
 SCF Done:  E(UM062X) =  -1615.58605508     A.U. after   24 cycles
 SCF Done:  E(UM062X) =  -1615.58620080     A.U. after   22 cycles
 SCF Done:  E(UM062X) =  -1615.58656058     A.U. after   21 cycles
 SCF Done:  E(UM062X) =  -1615.58661231     A.U. after   21 cycles
 SCF Done:  E(UM062X) =  -1615.58664731     A.U. after   19 cycles
 SCF Done:  E(UM062X) =  -1615.58666456     A.U. after   19 cycles
 SCF Done:  E(UM062X) =  -1615.58667267     A.U. after   18 cycles
 SCF Done:  E(UM062X) =  -1615.58667373     A.U. after   18 cycles
 SCF Done:  E(UM062X) =  -1615.58667385     A.U. after   16 cycles
 Optimization completed.
    -- Stationary point found.

                          Input orientation:
 ---------------------------------------------------------------------
 Center     Atomic      Atomic             Coordinates (Angstroms)
 Number     Number       Type             X           Y           Z
 ---------------------------------------------------------------------
      1          6           0       -1.512245    0.000000    0.000000
      2          6           0        1.512245   -0.000000   -0.000000
      3          6           0       -0.000053   -2.088556   -0.000545
      4          6           0       -0.000055   -3.481996   -0.000899
      5          6           0       -1.133416   -4.302656    0.218223
      6          6           0       -1.289476   -1.474222    0.191313
      7          6           0        0.663370   -5.696746   -0.131926
      8          1           0        1.289959   -6.567970   -0.258898
      9          6           0       -1.597959    0.783202    1.207106
     10          6           0       -0.663414   -5.696823    0.129333
     11          1           0       -1.289975   -6.568117    0.255958
     12          6           0        1.133333   -4.302527   -0.220281
     13          6           0        1.289356   -1.474125   -0.191965
     14          6           0        1.747879    2.206501   -1.298678
     15          6           0       -1.646007    0.384346   -1.382038
     16          6           0       -1.867055    2.804683    2.567332
     17          1           0       -1.996929    3.879829    2.611515
     18          6           0       -2.336926   -3.693830    0.458764
     19          1           0       -3.244012   -4.257503    0.643875
     20          6           0       -1.652868    1.721900   -1.899678
     21          6           0        2.389441   -2.273964   -0.432082
     22          1           0        3.351713   -1.790415   -0.566963
     23          6           0        1.645710    0.383774    1.382211
     24          6           0        1.652807    1.721108    1.900386
     25          6           0        2.336892   -3.693576   -0.460299
     26          1           0        3.244017   -4.257165   -0.645464
     27          6           0       -1.747615    2.206066    1.299460
     28          6           0       -1.499028    0.080861    2.443584
     29          1           0       -1.338022   -0.986203    2.430269
     30          6           0        1.735338   -0.665414    2.351188
     31          1           0        1.763450   -1.692337    2.020344
     32          6           0       -1.820199    2.078078    3.738708
     33          1           0       -1.925542    2.574752    4.695577
     34          6           0       -2.389491   -2.274199    0.431238
     35          1           0       -3.351754   -1.790736    0.566513
     36          6           0       -1.701100    1.921714   -3.294470
     37          1           0       -1.686530    2.941555   -3.661071
     38          6           0        1.597769    0.783671   -1.206855
     39          6           0       -1.721507    3.136627    0.202043
     40          1           0       -1.756350    4.177038    0.510423
     41          6           0       -1.789332    0.881391   -4.190425
     42          1           0       -1.845426    1.077949   -5.254218
     43          6           0       -1.648652    2.934549   -1.128344
     44          1           0       -1.623550    3.836702   -1.732230
     45          6           0        1.700452    1.920381    3.295253
     46          1           0        1.686152    2.940085    3.662244
     47          6           0       -1.613512    0.698938    3.668458
     48          1           0       -1.538645    0.107968    4.573201
     49          6           0       -1.736356   -0.664437   -2.351384
     50          1           0       -1.764562   -1.691470   -2.020895
     51          6           0        1.787852    0.879672    4.190871
     52          1           0        1.843468    1.075820    5.254764
     53          6           0        1.866984    2.805613   -2.566329
     54          1           0        1.997232    3.880730   -2.610138
     55          6           0        1.822437   -0.431138    3.701976
     56          1           0        1.913416   -1.268247    4.383318
     57          6           0        1.819364    2.079510   -3.738008
     58          1           0        1.924456    2.576569   -4.694707
     59          6           0        1.722621    3.136620   -0.200825
     60          1           0        1.758227    4.177129   -0.508795
     61          6           0       -1.824062   -0.429613   -3.702031
     62          1           0       -1.915676   -1.266413   -4.383665
     63          6           0        1.649609    2.934070    1.129463
     64          1           0        1.625220    3.836002    1.733710
     65          6           0        1.498086    0.081867   -2.443564
     66          1           0        1.336749   -0.985152   -2.430656
     67          6           0        1.612234    0.700428   -3.668246
     68          1           0        1.536775    0.109848   -4.573193
 ---------------------------------------------------------------------

 Alpha  occ. eigenvalues --  -10.70758 -10.70756 -10.68618 -10.68617 -10.68584
 Alpha  occ. eigenvalues --  -10.68583 -10.68245 -10.68244 -10.68214 -10.68213
 Alpha  occ. eigenvalues --  -10.67253 -10.67249 -10.66849 -10.66672 -10.66672
 Alpha  occ. eigenvalues --  -10.66568 -10.66568 -10.65958 -10.65957 -10.65834
 Alpha  occ. eigenvalues --  -10.65833 -10.65740 -10.65740 -10.65732 -10.65731
 Alpha  occ. eigenvalues --  -10.65614 -10.65614 -10.65609 -10.65608 -10.65563
 Alpha  occ. eigenvalues --  -10.65562 -10.65441 -10.65441 -10.65369 -10.65369
 Alpha  occ. eigenvalues --  -10.65321 -10.65320 -10.64908 -10.64907 -10.63858
 Alpha  occ. eigenvalues --  -10.63758 -10.63593  -1.12027  -1.10290  -1.10090
 Alpha  occ. eigenvalues --   -1.08339  -1.07797  -1.05415  -1.04943  -1.02541
 Alpha  occ. eigenvalues --   -1.02124  -1.00986  -1.00310  -0.97951  -0.97642
 Alpha  occ. eigenvalues --   -0.96770  -0.96293  -0.94934  -0.93535  -0.93481
 Alpha  occ. eigenvalues --   -0.92849  -0.91778  -0.87382  -0.87247  -0.84992
 Alpha  occ. eigenvalues --   -0.84797  -0.83072  -0.81496  -0.80943  -0.79792
 Alpha  occ. eigenvalues --   -0.79692  -0.79536  -0.77415  -0.76352  -0.76180
 Alpha  occ. eigenvalues --   -0.75861  -0.75376  -0.73401  -0.70201  -0.69648
 Alpha  occ. eigenvalues --   -0.68895  -0.68549  -0.67757  -0.67658  -0.66921
 Alpha  occ. eigenvalues --   -0.66880  -0.65729  -0.65365  -0.65218  -0.64731
 Alpha  occ. eigenvalues --   -0.63239  -0.62815  -0.62398  -0.62127  -0.61004
 Alpha  occ. eigenvalues --   -0.60986  -0.60541  -0.60430  -0.60110  -0.60045
 Alpha  occ. eigenvalues --   -0.59559  -0.58845  -0.58819  -0.58122  -0.57724
 Alpha  occ. eigenvalues --   -0.57512  -0.56998  -0.55978  -0.55664  -0.55658
 Alpha  occ. eigenvalues --   -0.54947  -0.53974  -0.53040  -0.52849  -0.52636
 Alpha  occ. eigenvalues --   -0.52393  -0.52371  -0.52196  -0.51027  -0.50953
 Alpha  occ. eigenvalues --   -0.50928  -0.50890  -0.49807  -0.49531  -0.49498
 Alpha  occ. eigenvalues --   -0.48686  -0.48467  -0.47875  -0.45370  -0.44730
 Alpha  occ. eigenvalues --   -0.44024  -0.42784  -0.40511  -0.40424  -0.39284
 Alpha  occ. eigenvalues --   -0.38162  -0.37538  -0.37079  -0.30776
 Alpha virt. eigenvalues --   -0.20905  -0.16024  -0.15523  -0.14338  -0.10680
 Alpha virt. eigenvalues --   -0.09982  -0.08924  -0.08555  -0.08358  -0.07557
 Alpha virt. eigenvalues --   -0.07539  -0.07434  -0.06652  -0.06338  -0.06152

  Beta  occ. eigenvalues --  -10.70607 -10.70606 -10.68663 -10.68662 -10.68623
  Beta  occ. eigenvalues --  -10.68622 -10.68205 -10.68204 -10.68168 -10.68168
  Beta  occ. eigenvalues --  -10.67272 -10.67269 -10.66819 -10.66668 -10.66667
  Beta  occ. eigenvalues --  -10.66560 -10.66560 -10.65919 -10.65918 -10.65800
  Beta  occ. eigenvalues --  -10.65800 -10.65704 -10.65704 -10.65702 -10.65701
  Beta  occ. eigenvalues --  -10.65633 -10.65633 -10.65628 -10.65627 -10.65561
  Beta  occ. eigenvalues --  -10.65561 -10.65455 -10.65454 -10.65356 -10.65355
  Beta  occ. eigenvalues --  -10.65339 -10.65338 -10.64906 -10.64905 -10.63858
  Beta  occ. eigenvalues --  -10.63758 -10.63590  -1.11877  -1.10126  -1.10009
  Beta  occ. eigenvalues --   -1.08231  -1.07704  -1.05252  -1.04806  -1.02426
  Beta  occ. eigenvalues --   -1.02026  -1.00812  -1.00143  -0.97849  -0.97549
  Beta  occ. eigenvalues --   -0.96658  -0.96197  -0.94887  -0.93469  -0.93386
  Beta  occ. eigenvalues --   -0.92780  -0.91695  -0.87087  -0.86891  -0.84926
  Beta  occ. eigenvalues --   -0.84737  -0.82994  -0.81401  -0.80839  -0.79710
  Beta  occ. eigenvalues --   -0.79625  -0.79465  -0.77308  -0.76203  -0.76029
  Beta  occ. eigenvalues --   -0.75700  -0.75339  -0.73283  -0.70085  -0.69505
  Beta  occ. eigenvalues --   -0.68770  -0.68436  -0.67710  -0.67614  -0.66801
  Beta  occ. eigenvalues --   -0.66771  -0.65647  -0.65218  -0.65077  -0.64635
  Beta  occ. eigenvalues --   -0.63048  -0.62767  -0.62318  -0.62053  -0.60856
  Beta  occ. eigenvalues --   -0.60733  -0.60408  -0.60209  -0.60050  -0.59992
  Beta  occ. eigenvalues --   -0.59427  -0.58730  -0.58715  -0.58052  -0.57566
  Beta  occ. eigenvalues --   -0.57227  -0.56743  -0.55694  -0.55619  -0.55607
  Beta  occ. eigenvalues --   -0.54923  -0.53669  -0.52937  -0.52766  -0.52570
  Beta  occ. eigenvalues --   -0.52289  -0.52265  -0.52164  -0.50963  -0.50877
  Beta  occ. eigenvalues --   -0.50805  -0.50467  -0.49492  -0.49354  -0.48878
  Beta  occ. eigenvalues --   -0.48409  -0.48211  -0.47580  -0.44703  -0.44200
  Beta  occ. eigenvalues --   -0.43305  -0.42437  -0.40360  -0.40160  -0.38699
  Beta  occ. eigenvalues --   -0.38036  -0.37256  -0.36995
  Beta virt. eigenvalues --   -0.21090  -0.18064  -0.15844  -0.15491  -0.14393
  Beta virt. eigenvalues --   -0.10358  -0.09576  -0.08547  -0.08501  -0.08098
  Beta virt. eigenvalues --   -0.07599  -0.07569  -0.07218  -0.06636  -0.06272

 Mulliken charges and spin densities:
               1          2
     1  C    0.026254   0.377206
     2  C    0.025982   0.377223
     3  C    0.298370   0.012707
     4  C    0.204513  -0.008807
     5  C    0.145379   0.006005
     6  C   -0.029938  -0.035426
     7  C   -0.306495   0.000744
     8  H    0.176087  -0.000019
     9  C    0.117662  -0.056883
    10  C   -0.306527   0.000744
    11  H    0.176087  -0.000019
    12  C    0.145269   0.006024
    13  C   -0.029670  -0.035424
    14  C    0.506210   0.027934
    15  C    0.399302  -0.086275
    16  C   -0.400031  -0.032588
    17  H    0.165667   0.001133
    18  C   -0.508297   0.001835
    19  H    0.175808   0.000177
    20  C    0.239761   0.108251
    21  C   -0.088892   0.022699
    22  H    0.175447  -0.000290
    23  C    0.399261  -0.086276
    24  C    0.239825   0.108252
    25  C   -0.508359   0.001839
    26  H    0.175810   0.000177
    27  C    0.505445   0.027815
    28  C    0.002449   0.081705
    29  H    0.209094  -0.004223
    30  C   -0.263717   0.037802
    31  H    0.225595  -0.002991
    32  C   -0.403045   0.058026
    33  H    0.182403  -0.003277
    34  C   -0.088799   0.022712
    35  H    0.175476  -0.000290
    36  C   -0.020483  -0.060908
    37  H    0.160614   0.001522
    38  C    0.117272  -0.057001
    39  C   -0.313679   0.057323
    40  H    0.165032  -0.003035
    41  C   -0.233801   0.069602
    42  H    0.180888  -0.003581
    43  C   -0.345495   0.011235
    44  H    0.160444  -0.000553
    45  C   -0.020107  -0.060919
    46  H    0.160600   0.001522
    47  C   -0.046728  -0.041179
    48  H    0.168328   0.000035
    49  C   -0.263799   0.037790
    50  H    0.225590  -0.002987
    51  C   -0.233312   0.069736
    52  H    0.180880  -0.003588
    53  C   -0.399786  -0.032643
    54  H    0.165666   0.001134
    55  C   -0.549226  -0.035313
    56  H    0.176019   0.001336
    57  C   -0.402942   0.058072
    58  H    0.182404  -0.003280
    59  C   -0.314947   0.057279
    60  H    0.165068  -0.003031
    61  C   -0.548298  -0.035266
    62  H    0.176021   0.001335
    63  C   -0.346193   0.011267
    64  H    0.160496  -0.000553
    65  C    0.003040   0.081747
    66  H    0.209098  -0.004227
    67  C   -0.046364  -0.041134
    68  H    0.168316   0.000037
 Sum of Mulliken charges =   1.00000   1.00000

 Dipole moment (field-independent basis, Debye):
    X=             -0.0020    Y=              2.4770    Z=              0.0006  Tot=              2.4770
 Quadrupole moment (field-independent basis, Debye-Ang):
   XX=           -222.5001   YY=           -174.9470   ZZ=           -176.1974
   XY=              0.0062   XZ=             -0.6985   YZ=             -0.0005

 Normal termination of Gaussian 16 at Fri Nov  8 00:38:12 2024.
