 Gaussian 16, Revision A.03,
 Gaussian 16:  ES64L-G16RevA.03 25-Dec-2016

 --------------------------------------------
 #p opt UM062X/6-311+G** nosymm int=superfine
 --------------------------------------------

 -------------------
 Title Card Required
 -------------------
 Symbolic Z-matrix:
 Charge =  0 Multiplicity = 1

 SCF Done:  E(UM062X) =  -81.7598132680     A.U. after   16 cycles
 SCF Done:  E(UM062X) =  -81.7666422882     A.U. after   13 cycles
 SCF Done:  E(UM062X) =  -81.7708073552     A.U. after   13 cycles
 SCF Done:  E(UM062X) =  -81.7757188868     A.U. after   15 cycles
 SCF Done:  E(UM062X) =  -81.7866176256     A.U. after   14 cycles
 SCF Done:  E(UM062X) =  -81.7880794966     A.U. after   13 cycles
 SCF Done:  E(UM062X) =  -81.7943328780     A.U. after   12 cycles
 SCF Done:  E(UM062X) =  -81.7954473553     A.U. after   12 cycles
 SCF Done:  E(UM062X) =  -81.7956510968     A.U. after   11 cycles
 SCF Done:  E(UM062X) =  -81.7956548211     A.U. after    9 cycles
 Optimization completed.
    -- Stationary point found.

                          Input orientation:
 ---------------------------------------------------------------------
 Center     Atomic      Atomic             Coordinates (Angstroms)
 Number     Number       Type             X           Y           Z
 ---------------------------------------------------------------------
      1          5           0       -1.420399    0.000000    0.000000
      2          7           0        1.420399    0.000000    0.000000
      3          1           0       -1.808409   -1.106556   -0.027105
      4          1           0        1.480457    0.805977    0.629218
      5          1           0       -1.808409    1.106548   -0.027449
      6          1           0        1.480458   -0.805781    0.629468
 ---------------------------------------------------------------------

 Alpha  occ. eigenvalues --  -14.72183  -7.16898  -0.87847  -0.61643  -0.49906
 Alpha  occ. eigenvalues --   -0.48521  -0.33886  -0.26774
 Alpha virt. eigenvalues --   -0.07622  -0.05952   0.01143   0.03072   0.04239
 Alpha virt. eigenvalues --    0.05317   0.10589   0.12804   0.13753   0.17266
 Alpha virt. eigenvalues --    0.20532   0.20962   0.21369   0.30000   0.32849

  Beta  occ. eigenvalues --  -14.72183  -7.16898  -0.87847  -0.61643  -0.49906
  Beta  occ. eigenvalues --   -0.48521  -0.33886  -0.26774
  Beta virt. eigenvalues --   -0.07622  -0.05952   0.01143   0.03072   0.04239
  Beta virt. eigenvalues --    0.05317   0.10589   0.12804   0.13753   0.17266
  Beta virt. eigenvalues --    0.20532   0.20962   0.21369   0.30000   0.32849

 Mulliken charges and spin densities:
               1          2
     1  B    0.185308   0.000000
     2  N   -0.728284  -0.000000
     3  H    0.053599  -0.000000
     4  H    0.217889   0.000000
     5  H    0.053599  -0.000000
     6  H    0.217889   0.000000
 Sum of Mulliken charges =  -0.00000  -0.00000

 Dipole moment (field-independent basis, Debye):
    X=             -3.8903    Y=              0.0003    Z=              1.7594  Tot=              4.2696
 Quadrupole moment (field-independent basis, Debye-Ang):
   XX=            -14.5527   YY=            -13.4047   ZZ=            -14.4594
   XY=              0.0005   XZ=              2.9910   YZ=             -0.0002

 Normal termination of Gaussian 16 at Mon Apr 21 17:49:16 2025.
