 Gaussian 16, Revision A.03,
 Gaussian 16:  ES64L-G16RevA.03 25-Dec-2016

 ---------------------------------------------------
 #p UM062X/6-311+G** force int=superfine pop=saveNBO
 ---------------------------------------------------

 -------------------
 Title Card Required
 -------------------
 Symbolic Z-matrix:
 Charge =  0 Multiplicity = 1

                         Standard orientation:
 ---------------------------------------------------------------------
 Center     Atomic      Atomic             Coordinates (Angstroms)
 Number     Number       Type             X           Y           Z
 ---------------------------------------------------------------------
      1         15           0        0.000000    0.000000    2.213495
      2         15           0        0.000000    0.000000   -2.213495
 ---------------------------------------------------------------------

 SCF Done:  E(UM062X) =  -682.258084909     A.U. after    9 cycles

 The electronic state is 1-SGG.
 Alpha  occ. eigenvalues --  -78.11702 -78.11702  -6.93395  -6.93395  -5.04691
 Alpha  occ. eigenvalues --   -5.04691  -5.04678  -5.04678  -5.04678  -5.04678
 Alpha  occ. eigenvalues --   -0.64048  -0.63318  -0.25819  -0.24640  -0.24640
 Alpha virt. eigenvalues --   -0.17992  -0.17992  -0.16635   0.02260   0.03390
 Alpha virt. eigenvalues --    0.04373   0.04373   0.06314   0.06314   0.06352
 Alpha virt. eigenvalues --    0.10107   0.28615   0.30043   0.30043   0.32547

  Beta  occ. eigenvalues --  -78.11702 -78.11702  -6.93395  -6.93395  -5.04691
  Beta  occ. eigenvalues --   -5.04691  -5.04678  -5.04678  -5.04678  -5.04678
  Beta  occ. eigenvalues --   -0.64048  -0.63318  -0.25819  -0.24640  -0.24640
  Beta virt. eigenvalues --   -0.17992  -0.17992  -0.16635   0.02260   0.03390
  Beta virt. eigenvalues --    0.04373   0.04373   0.06314   0.06314   0.06352
  Beta virt. eigenvalues --    0.10107   0.28615   0.30043   0.30043   0.32547

 Mulliken charges and spin densities:
               1          2
     1  P   -0.000000  -0.000000
     2  P   -0.000000  -0.000000
 Sum of Mulliken charges =  -0.00000  -0.00000

 Dipole moment (field-independent basis, Debye):
    X=             -0.0000    Y=              0.0000    Z=              0.0000  Tot=              0.0000
 Quadrupole moment (field-independent basis, Debye-Ang):
   XX=            -29.3891   YY=            -29.3891   ZZ=            -24.7401
   XY=              0.0000   XZ=             -0.0000   YZ=              0.0000

 Summary of Natural Population Analysis:

                                       Natural Population
                Natural  -----------------------------------------------
    Atom  No    Charge         Core      Valence    Rydberg      Total
 -----------------------------------------------------------------------
      P    1   -0.00000      5.00000     2.49953    0.00047     7.50000
      P    2   -0.00000      5.00000     2.49953    0.00047     7.50000
 =======================================================================
   * Total *   -0.00000     10.00000     4.99907    0.00093    15.00000

 Normal termination of Gaussian 16 at Mon Apr 21 21:21:59 2025.
