 Gaussian 16, Revision A.03,
 Gaussian 16:  ES64L-G16RevA.03 25-Dec-2016

 --------------------------------------------
 #p opt UM062X/6-311+G** nosymm int=superfine
 --------------------------------------------

 -------------------
 Title Card Required
 -------------------
 Symbolic Z-matrix:
 Charge =  0 Multiplicity = 1

 SCF Done:  E(UM062X) =  -380.927628253     A.U. after   18 cycles
 SCF Done:  E(UM062X) =  -380.930580013     A.U. after   17 cycles
 SCF Done:  E(UM062X) =  -380.931554595     A.U. after   14 cycles
 SCF Done:  E(UM062X) =  -380.931585110     A.U. after   17 cycles
 SCF Done:  E(UM062X) =  -380.931795782     A.U. after   15 cycles
 SCF Done:  E(UM062X) =  -380.931846030     A.U. after   17 cycles
 SCF Done:  E(UM062X) =  -380.931861322     A.U. after   19 cycles
 SCF Done:  E(UM062X) =  -380.931862450     A.U. after   14 cycles
 SCF Done:  E(UM062X) =  -380.931862642     A.U. after   18 cycles
 SCF Done:  E(UM062X) =  -380.931862925     A.U. after   19 cycles
 SCF Done:  E(UM062X) =  -380.931863648     A.U. after   14 cycles
 SCF Done:  E(UM062X) =  -380.931867520     A.U. after   18 cycles
 SCF Done:  E(UM062X) =  -380.931870131     A.U. after   17 cycles
 SCF Done:  E(UM062X) =  -380.931871104     A.U. after   22 cycles
 SCF Done:  E(UM062X) =  -380.931871772     A.U. after   17 cycles
 SCF Done:  E(UM062X) =  -380.931871497     A.U. after   15 cycles
 SCF Done:  E(UM062X) =  -380.931871927     A.U. after   19 cycles
 SCF Done:  E(UM062X) =  -380.931871928     A.U. after   16 cycles
 Optimization completed on the basis of negligible forces.
    -- Stationary point found.

                          Input orientation:
 ---------------------------------------------------------------------
 Center     Atomic      Atomic             Coordinates (Angstroms)
 Number     Number       Type             X           Y           Z
 ---------------------------------------------------------------------
      1          6           0       -2.155452    0.000000    0.000000
      2         15           0        2.155452    0.000000    0.000000
      3          1           0       -2.883583   -0.833188    0.047770
      4          1           0        1.853913   -1.386763   -0.071533
      5          1           0       -2.810638    0.891883   -0.042483
 ---------------------------------------------------------------------

 Alpha  occ. eigenvalues --  -78.04634 -10.62051  -6.86901  -4.98915  -4.98139
 Alpha  occ. eigenvalues --   -4.97678  -0.76750  -0.65746  -0.48804  -0.38414
 Alpha  occ. eigenvalues --   -0.32691  -0.24543
 Alpha virt. eigenvalues --   -0.11460  -0.09276   0.01468   0.03697   0.04600
 Alpha virt. eigenvalues --    0.05999   0.06921   0.07279   0.08775   0.10379
 Alpha virt. eigenvalues --    0.13458   0.17379   0.18895   0.31263   0.33231

  Beta  occ. eigenvalues --  -78.04634 -10.62051  -6.86901  -4.98915  -4.98139
  Beta  occ. eigenvalues --   -4.97678  -0.76750  -0.65746  -0.48804  -0.38414
  Beta  occ. eigenvalues --   -0.32691  -0.24543
  Beta virt. eigenvalues --   -0.11460  -0.09276   0.01468   0.03697   0.04600
  Beta virt. eigenvalues --    0.05999   0.06921   0.07279   0.08775   0.10379
  Beta virt. eigenvalues --    0.13458   0.17379   0.18895   0.31263   0.33231

 Mulliken charges and spin densities:
               1          2
     1  C   -0.282326  -0.000000
     2  P    0.041293   0.000000
     3  H    0.136970  -0.000000
     4  H   -0.032776   0.000000
     5  H    0.136838   0.000000
 Sum of Mulliken charges =  -0.00000   0.00000

 Dipole moment (field-independent basis, Debye):
    X=             -2.4931    Y=             -0.5834    Z=             -0.0266  Tot=              2.5606
 Quadrupole moment (field-independent basis, Debye-Ang):
   XX=            -12.2499   YY=            -21.3250   ZZ=            -25.2343
   XY=             -2.2153   XZ=             -0.0937   YZ=              0.2685

 Normal termination of Gaussian 16 at Mon Apr 21 19:23:29 2025.
