 Gaussian 16, Revision A.03,
 Gaussian 16:  ES64L-G16RevA.03 25-Dec-2016

 --------------------------------------------
 #p opt UM062X/6-311+G** nosymm int=superfine
 --------------------------------------------

 -------------------
 Title Card Required
 -------------------
 Symbolic Z-matrix:
 Charge =  0 Multiplicity = 1

 SCF Done:  E(UM062X) =  -582.474590305     A.U. after    9 cycles
 SCF Done:  E(UM062X) =  -582.475355250     A.U. after    8 cycles
 SCF Done:  E(UM062X) =  -582.475459411     A.U. after    8 cycles
 Optimization completed.
    -- Stationary point found.

                          Input orientation:
 ---------------------------------------------------------------------
 Center     Atomic      Atomic             Coordinates (Angstroms)
 Number     Number       Type             X           Y           Z
 ---------------------------------------------------------------------
      1         14           0       -1.544819    0.000000    0.000000
      2         14           0        1.544819    0.000000    0.000000
      3          1           0        2.004197   -1.404125   -0.000054
      4          1           0       -2.004252   -0.701908    1.216089
      5          1           0        2.004338    0.702074   -1.215959
      6          1           0        2.004257    0.701959    1.216057
      7          1           0       -2.004199    1.404124   -0.000114
      8          1           0       -2.004341   -0.702127   -1.215928
 ---------------------------------------------------------------------

 Alpha  occ. eigenvalues --  -67.00763 -67.00763  -5.55610  -5.55610  -3.86798
 Alpha  occ. eigenvalues --   -3.86794  -3.86675  -3.86675  -3.86675  -3.86675
 Alpha  occ. eigenvalues --   -0.61483  -0.59402  -0.41575  -0.41575  -0.40803
 Alpha  occ. eigenvalues --   -0.40803  -0.28139
 Alpha virt. eigenvalues --   -0.03063   0.02097   0.02972   0.02972   0.04293
 Alpha virt. eigenvalues --    0.04724   0.05544   0.05545   0.06593   0.06593
 Alpha virt. eigenvalues --    0.08096   0.09154   0.09154   0.15050   0.17378

  Beta  occ. eigenvalues --  -67.00763 -67.00763  -5.55610  -5.55610  -3.86798
  Beta  occ. eigenvalues --   -3.86794  -3.86675  -3.86675  -3.86675  -3.86675
  Beta  occ. eigenvalues --   -0.61483  -0.59402  -0.41575  -0.41575  -0.40803
  Beta  occ. eigenvalues --   -0.40803  -0.28139
  Beta virt. eigenvalues --   -0.03063   0.02097   0.02972   0.02972   0.04293
  Beta virt. eigenvalues --    0.04724   0.05544   0.05545   0.06593   0.06593
  Beta virt. eigenvalues --    0.08096   0.09154   0.09154   0.15050   0.17378

 Mulliken charges and spin densities:
               1          2
     1  Si   0.292940  -0.000000
     2  Si   0.292940   0.000000
     3  H   -0.097649  -0.000000
     4  H   -0.097646   0.000000
     5  H   -0.097645  -0.000000
     6  H   -0.097646  -0.000000
     7  H   -0.097649   0.000000
     8  H   -0.097645   0.000000
 Sum of Mulliken charges =  -0.00000   0.00000

 Dipole moment (field-independent basis, Debye):
    X=              0.0000    Y=              0.0000    Z=             -0.0000  Tot=              0.0000
 Quadrupole moment (field-independent basis, Debye-Ang):
   XX=            -30.8836   YY=            -31.7005   ZZ=            -31.7004
   XY=              0.0004   XZ=              0.0000   YZ=              0.0000

 Normal termination of Gaussian 16 at Mon Apr 21 20:19:28 2025.
