 Gaussian 16, Revision A.03,
 Gaussian 16:  ES64L-G16RevA.03 25-Dec-2016

 --------------------------------------------
 #p opt UM062X/6-311+G** nosymm int=superfine
 --------------------------------------------

 -------------------
 Title Card Required
 -------------------
 Symbolic Z-matrix:
 Charge =  1 Multiplicity = 2

 SCF Done:  E(UM062X) =  -582.135438569     A.U. after   11 cycles
 SCF Done:  E(UM062X) =  -582.136209538     A.U. after    9 cycles
 SCF Done:  E(UM062X) =  -582.136418907     A.U. after    9 cycles
 SCF Done:  E(UM062X) =  -582.136419248     A.U. after    7 cycles
 Optimization completed.
    -- Stationary point found.

                          Input orientation:
 ---------------------------------------------------------------------
 Center     Atomic      Atomic             Coordinates (Angstroms)
 Number     Number       Type             X           Y           Z
 ---------------------------------------------------------------------
      1         14           0       -2.351292    0.000000    0.000000
      2         14           0        2.351292    0.000000    0.000000
      3          1           0        2.463467   -1.460147   -0.000009
      4          1           0       -2.462769   -0.729944    1.264661
      5          1           0        2.463288    0.730106   -1.264522
      6          1           0        2.462570    0.730030    1.264630
      7          1           0       -2.463493    1.460145   -0.000132
      8          1           0       -2.463063   -0.730196   -1.264490
 ---------------------------------------------------------------------

 Alpha  occ. eigenvalues --  -67.22381 -67.22381  -5.77221  -5.77220  -4.08906
 Alpha  occ. eigenvalues --   -4.08906  -4.08093  -4.08093  -4.08093  -4.08093
 Alpha  occ. eigenvalues --   -0.80917  -0.80578  -0.61304  -0.61303  -0.61229
 Alpha  occ. eigenvalues --   -0.61227  -0.40156
 Alpha virt. eigenvalues --   -0.29975  -0.12014  -0.11715  -0.09952  -0.09474
 Alpha virt. eigenvalues --   -0.09473  -0.08272  -0.08272  -0.07642  -0.07260
 Alpha virt. eigenvalues --   -0.07259  -0.06111  -0.06109  -0.04764   0.00600

  Beta  occ. eigenvalues --  -67.22111 -67.22111  -5.77141  -5.77139  -4.08274
  Beta  occ. eigenvalues --   -4.08274  -4.08000  -4.08000  -4.08000  -4.08000
  Beta  occ. eigenvalues --   -0.79188  -0.78994  -0.61196  -0.61195  -0.61111
  Beta  occ. eigenvalues --   -0.61110
  Beta virt. eigenvalues --   -0.32324  -0.23255  -0.15566  -0.12567  -0.12564
  Beta virt. eigenvalues --   -0.10814  -0.10699  -0.08782  -0.08782  -0.07349
  Beta virt. eigenvalues --   -0.06830  -0.06830  -0.05730  -0.05730  -0.05650

 Mulliken charges and spin densities:
               1          2
     1  Si   0.503752   0.553252
     2  Si   0.503752   0.553252
     3  H   -0.001249  -0.017754
     4  H   -0.001253  -0.017748
     5  H   -0.001247  -0.017751
     6  H   -0.001256  -0.017747
     7  H   -0.001249  -0.017754
     8  H   -0.001250  -0.017750
 Sum of Mulliken charges =   1.00000   1.00000

 Dipole moment (field-independent basis, Debye):
    X=              0.0000    Y=             -0.0000    Z=              0.0001  Tot=              0.0001
 Quadrupole moment (field-independent basis, Debye-Ang):
   XX=              6.1053   YY=            -26.2370   ZZ=            -26.2367
   XY=              0.0007   XZ=              0.0001   YZ=             -0.0000

 Normal termination of Gaussian 16 at Mon Apr 21 20:16:26 2025.
