 Gaussian 16, Revision A.03,
 Gaussian 16:  ES64L-G16RevA.03 25-Dec-2016

 --------------------------------------------
 #p opt UM062X/6-311+G** nosymm int=superfine
 --------------------------------------------

 -------------------
 Title Card Required
 -------------------
 Symbolic Z-matrix:
 Charge =  0 Multiplicity = 1

 SCF Done:  E(UM062X) =  -379.556328435     A.U. after   15 cycles
 SCF Done:  E(UM062X) =  -379.557767853     A.U. after   10 cycles
 SCF Done:  E(UM062X) =  -379.557774196     A.U. after   11 cycles
 Optimization completed.
    -- Stationary point found.

                          Input orientation:
 ---------------------------------------------------------------------
 Center     Atomic      Atomic             Coordinates (Angstroms)
 Number     Number       Type             X           Y           Z
 ---------------------------------------------------------------------
      1          6           0       -2.015377    0.000000    0.000000
      2         15           0        2.015377    0.000000    0.000000
      3          1           0       -3.138412    0.000000   -0.000000
 ---------------------------------------------------------------------

 Alpha  occ. eigenvalues --  -78.06683 -10.72198  -6.88611  -5.00531  -4.99584
 Alpha  occ. eigenvalues --   -4.99584  -0.76963  -0.60133  -0.42600  -0.23297
 Alpha  occ. eigenvalues --   -0.23297
 Alpha virt. eigenvalues --   -0.15865  -0.15865  -0.11605   0.01041   0.04190
 Alpha virt. eigenvalues --    0.05963   0.05963   0.07633   0.08336   0.08336
 Alpha virt. eigenvalues --    0.12828   0.15776   0.32874   0.33615   0.33615

  Beta  occ. eigenvalues --  -78.06683 -10.72198  -6.88611  -5.00531  -4.99584
  Beta  occ. eigenvalues --   -4.99584  -0.76963  -0.60133  -0.42600  -0.23297
  Beta  occ. eigenvalues --   -0.23297
  Beta virt. eigenvalues --   -0.15865  -0.15865  -0.11605   0.01041   0.04190
  Beta virt. eigenvalues --    0.05963   0.05963   0.07633   0.08336   0.08336
  Beta virt. eigenvalues --    0.12828   0.15776   0.32874   0.33615   0.33615

 Mulliken charges and spin densities:
               1          2
     1  C   -0.075558   0.000000
     2  P   -0.085225  -0.000000
     3  H    0.160783  -0.000000
 Sum of Mulliken charges =  -0.00000   0.00000

 Dipole moment (field-independent basis, Debye):
    X=             -3.6383    Y=              0.0000    Z=             -0.0000  Tot=              3.6383
 Quadrupole moment (field-independent basis, Debye-Ang):
   XX=             -9.9138   YY=            -24.1676   ZZ=            -24.1676
   XY=              0.0000   XZ=              0.0000   YZ=             -0.0000

 Normal termination of Gaussian 16 at Mon Apr 21 19:30:54 2025.
