 Gaussian 16, Revision A.03,
 Gaussian 16:  ES64L-G16RevA.03 25-Dec-2016

 --------------------------------------------
 #p opt UM062X/6-311+G** nosymm int=superfine
 --------------------------------------------

 -------------------
 Title Card Required
 -------------------
 Symbolic Z-matrix:
 Charge =  0 Multiplicity = 1

 SCF Done:  E(UM062X) =  -683.744741269     A.U. after    9 cycles
 SCF Done:  E(UM062X) =  -683.745854515     A.U. after   10 cycles
 SCF Done:  E(UM062X) =  -683.745875059     A.U. after    8 cycles
 Optimization completed.
    -- Stationary point found.

                          Input orientation:
 ---------------------------------------------------------------------
 Center     Atomic      Atomic             Coordinates (Angstroms)
 Number     Number       Type             X           Y           Z
 ---------------------------------------------------------------------
      1         15           0       -1.384490    0.000000    0.000000
      2         15           0        1.384490    0.000000    0.000000
      3          1           0       -1.360109   -1.421287    0.000000
      4          1           0        1.360109    1.421287    0.000000
 ---------------------------------------------------------------------

 Alpha  occ. eigenvalues --  -78.07553 -78.07553  -6.89530  -6.89528  -5.00987
 Alpha  occ. eigenvalues --   -5.00986  -5.00929  -5.00927  -5.00766  -5.00765
 Alpha  occ. eigenvalues --   -0.70776  -0.65702  -0.40977  -0.39750  -0.30902
 Alpha  occ. eigenvalues --   -0.27131
 Alpha virt. eigenvalues --   -0.13268  -0.06407   0.01888   0.03418   0.03905
 Alpha virt. eigenvalues --    0.04603   0.04935   0.06174   0.06798   0.08539
 Alpha virt. eigenvalues --    0.09452   0.12692   0.28314   0.29951   0.29991

  Beta  occ. eigenvalues --  -78.07553 -78.07553  -6.89530  -6.89528  -5.00987
  Beta  occ. eigenvalues --   -5.00986  -5.00929  -5.00927  -5.00766  -5.00765
  Beta  occ. eigenvalues --   -0.70776  -0.65702  -0.40977  -0.39750  -0.30902
  Beta  occ. eigenvalues --   -0.27131
  Beta virt. eigenvalues --   -0.13268  -0.06407   0.01888   0.03418   0.03905
  Beta virt. eigenvalues --    0.04603   0.04935   0.06174   0.06798   0.08539
  Beta virt. eigenvalues --    0.09452   0.12692   0.28314   0.29951   0.29991

 Mulliken charges and spin densities:
               1          2
     1  P    0.008011   0.000000
     2  P    0.008010  -0.000000
     3  H   -0.008011  -0.000000
     4  H   -0.008011   0.000000
 Sum of Mulliken charges =  -0.00000   0.00000

 Dipole moment (field-independent basis, Debye):
    X=             -0.0000    Y=              0.0000    Z=              0.0000  Tot=              0.0000
 Quadrupole moment (field-independent basis, Debye-Ang):
   XX=            -28.0947   YY=            -28.0024   ZZ=            -30.2271
   XY=              2.6497   XZ=             -0.0000   YZ=             -0.0000

 Normal termination of Gaussian 16 at Mon Apr 21 21:12:20 2025.
