 Gaussian 16, Revision A.03,
 Gaussian 16:  ES64L-G16RevA.03 25-Dec-2016

 --------------------------------------------
 #p opt UM062X/6-311+G** nosymm int=superfine
 --------------------------------------------

 -------------------
 Title Card Required
 -------------------
 Symbolic Z-matrix:
 Charge =  1 Multiplicity = 2

 SCF Done:  E(UM062X) =  -76.5250860378     A.U. after   15 cycles
 SCF Done:  E(UM062X) =  -76.5252908964     A.U. after   11 cycles
 Optimization completed.
    -- Stationary point found.

                          Input orientation:
 ---------------------------------------------------------------------
 Center     Atomic      Atomic             Coordinates (Angstroms)
 Number     Number       Type             X           Y           Z
 ---------------------------------------------------------------------
      1          6           0       -1.082160    0.000000    0.000000
      2          6           0        1.082160    0.000000    0.000000
      3          1           0       -2.196003    0.000000   -0.000000
      4          1           0        2.196002    0.000000    0.000000
 ---------------------------------------------------------------------

 Alpha  occ. eigenvalues --  -11.01553 -11.01537  -1.04479  -0.99930  -0.76597
 Alpha  occ. eigenvalues --   -0.58205  -0.56262
 Alpha virt. eigenvalues --   -0.42031  -0.40550  -0.38600  -0.13978  -0.12202
 Alpha virt. eigenvalues --   -0.09336  -0.08422  -0.08211  -0.05361  -0.05104
 Alpha virt. eigenvalues --   -0.00693   0.02159   0.05315   0.24269   0.29553

  Beta  occ. eigenvalues --  -11.01265 -11.01254  -1.01477  -0.97924  -0.75342
  Beta  occ. eigenvalues --   -0.54463
  Beta virt. eigenvalues --   -0.39948  -0.37335  -0.36849  -0.31306  -0.14753
  Beta virt. eigenvalues --   -0.12478  -0.10102  -0.08713  -0.08594  -0.05431
  Beta virt. eigenvalues --   -0.05259  -0.01608   0.02235   0.05215   0.23932

 Mulliken charges and spin densities:
               1          2
     1  C    0.111871   0.525161
     2  C    0.111871   0.525159
     3  H    0.388129  -0.025160
     4  H    0.388129  -0.025160
 Sum of Mulliken charges =   1.00000   1.00000

 Dipole moment (field-independent basis, Debye):
    X=             -0.0000    Y=             -0.0000    Z=              0.0000  Tot=              0.0000
 Quadrupole moment (field-independent basis, Debye-Ang):
   XX=              7.7319   YY=            -13.5706   ZZ=            -11.3800
   XY=              0.0000   XZ=              0.0000   YZ=              0.1808

 Normal termination of Gaussian 16 at Tue Dec  3 11:22:55 2024.
