 Gaussian 16, Revision A.03,
 Gaussian 16:  ES64L-G16RevA.03 25-Dec-2016

 ---------------------------------------
 #p UM062X/6-311+G** force int=superfine
 ---------------------------------------

 -------------------
 Title Card Required
 -------------------
 Symbolic Z-matrix:
 Charge =  0 Multiplicity = 1

                         Standard orientation:
 ---------------------------------------------------------------------
 Center     Atomic      Atomic             Coordinates (Angstroms)
 Number     Number       Type             X           Y           Z
 ---------------------------------------------------------------------
      1          6           0        0.473423    0.000015    0.000000
      2          6           0       -0.473424   -0.000015   -0.000002
      3          1           0       -1.027215   -0.974422   -0.034426
      4          1           0        1.027243   -0.517030    0.826641
      5          1           0       -1.027243    0.517033   -0.826639
      6          1           0       -1.027252    0.457401    0.861063
      7          1           0        1.027216    0.974421    0.034430
      8          1           0        1.027252   -0.457403   -0.861061
 ---------------------------------------------------------------------

 SCF Done:  E(UM062X) =  -79.2573897727     A.U. after   10 cycles

 The electronic state is 1-A.
 Alpha  occ. eigenvalues --  -10.51038 -10.48954  -0.99986  -0.66583  -0.59402
 Alpha  occ. eigenvalues --   -0.59400  -0.55249  -0.31363  -0.31361
 Alpha virt. eigenvalues --    0.01849   0.03823   0.03823   0.04079   0.08523
 Alpha virt. eigenvalues --    0.09073   0.09073   0.14260   0.16538   0.16539
 Alpha virt. eigenvalues --    0.21076   0.21077   0.23605   0.27323   0.41629

  Beta  occ. eigenvalues --  -10.51038 -10.48954  -0.99986  -0.66583  -0.59402
  Beta  occ. eigenvalues --   -0.59400  -0.55249  -0.31363  -0.31361
  Beta virt. eigenvalues --    0.01849   0.03823   0.03823   0.04079   0.08523
  Beta virt. eigenvalues --    0.09073   0.09073   0.14260   0.16538   0.16539
  Beta virt. eigenvalues --    0.21076   0.21077   0.23605   0.27323   0.41629

 Mulliken charges and spin densities:
               1          2
     1  C   -0.401789  -0.000000
     2  C   -0.401789   0.000000
     3  H    0.133934  -0.000000
     4  H    0.133928  -0.000000
     5  H    0.133928  -0.000000
     6  H    0.133927  -0.000000
     7  H    0.133934  -0.000000
     8  H    0.133927   0.000000
 Sum of Mulliken charges =  -0.00000   0.00000

 Dipole moment (field-independent basis, Debye):
    X=             -0.0000    Y=             -0.0000    Z=              0.0000  Tot=              0.0000
 Quadrupole moment (field-independent basis, Debye-Ang):
   XX=            -15.7455   YY=            -14.9663   ZZ=            -14.9667
   XY=              0.0001   XZ=             -0.0000   YZ=              0.0000

 Normal termination of Gaussian 16 at Tue Nov 19 12:34:28 2024.
