 Gaussian 16, Revision A.03,
 Gaussian 16:  ES64L-G16RevA.03 25-Dec-2016

 --------------------------------------------
 #p opt UM062X/6-311+G** nosymm int=superfine
 --------------------------------------------

 -------------------
 Title Card Required
 -------------------
 Symbolic Z-matrix:
 Charge = -1 Multiplicity = 2

 SCF Done:  E(UM062X) =  -51.8508151846     A.U. after   16 cycles
 SCF Done:  E(UM062X) =  -51.8508361352     A.U. after   14 cycles
 SCF Done:  E(UM062X) =  -51.8508446749     A.U. after   15 cycles
 SCF Done:  E(UM062X) =  -51.8508454928     A.U. after   21 cycles
 Optimization completed.
    -- Stationary point found.

                          Input orientation:
 ---------------------------------------------------------------------
 Center     Atomic      Atomic             Coordinates (Angstroms)
 Number     Number       Type             X           Y           Z
 ---------------------------------------------------------------------
      1          5           0       -1.747274    0.000000    0.000000
      2          5           0        1.747274    0.000000    0.000000
      3          1           0       -2.426295   -1.009800   -0.000168
      4          1           0        2.426295    1.009800   -0.000661
      5          1           0       -2.426298    1.009798   -0.000110
      6          1           0        2.426298   -1.009798    0.000343
 ---------------------------------------------------------------------

 Alpha  occ. eigenvalues --   -6.86762  -6.86761  -0.37070  -0.36782  -0.21013
 Alpha  occ. eigenvalues --   -0.20826  -0.05960   0.00576
 Alpha virt. eigenvalues --    0.12109   0.14134   0.15582   0.16243   0.16603
 Alpha virt. eigenvalues --    0.18071   0.20534   0.21331   0.21710   0.23597
 Alpha virt. eigenvalues --    0.32616   0.34067   0.34973   0.38927   0.50215

  Beta  occ. eigenvalues --   -6.86139  -6.86138  -0.35790  -0.35442  -0.20375
  Beta  occ. eigenvalues --   -0.20168   0.00623
  Beta virt. eigenvalues --    0.13214   0.13261   0.14292   0.14746   0.18085
  Beta virt. eigenvalues --    0.18221   0.18709   0.22777   0.22932   0.23687
  Beta virt. eigenvalues --    0.24991   0.32672   0.34037   0.34935   0.39640

 Mulliken charges and spin densities:
               1          2
     1  B   -0.335758   0.490793
     2  B   -0.335758   0.490793
     3  H   -0.082121   0.004604
     4  H   -0.082121   0.004604
     5  H   -0.082121   0.004604
     6  H   -0.082121   0.004604
 Sum of Mulliken charges =  -1.00000   1.00000

 Dipole moment (field-independent basis, Debye):
    X=             -0.0000    Y=             -0.0000    Z=             -0.0010  Tot=              0.0010
 Quadrupole moment (field-independent basis, Debye-Ang):
   XX=            -41.5607   YY=            -24.6873   ZZ=            -18.9543
   XY=             -0.0000   XZ=              0.0000   YZ=              0.0013

 Normal termination of Gaussian 16 at Mon Apr 21 17:25:23 2025.
