 Gaussian 16, Revision A.03,
 Gaussian 16:  ES64L-G16RevA.03 25-Dec-2016

 --------------------------------------------
 #p opt UM062X/6-311+G** nosymm int=superfine
 --------------------------------------------

 -------------------
 Title Card Required
 -------------------
 Symbolic Z-matrix:
 Charge =  1 Multiplicity = 2

 SCF Done:  E(UM062X) =  -582.128842125     A.U. after   11 cycles
 SCF Done:  E(UM062X) =  -582.129677531     A.U. after    9 cycles
 SCF Done:  E(UM062X) =  -582.130011535     A.U. after   10 cycles
 SCF Done:  E(UM062X) =  -582.130012921     A.U. after    8 cycles
 Optimization completed.
    -- Stationary point found.

                          Input orientation:
 ---------------------------------------------------------------------
 Center     Atomic      Atomic             Coordinates (Angstroms)
 Number     Number       Type             X           Y           Z
 ---------------------------------------------------------------------
      1         14           0       -2.651292    0.000000    0.000000
      2         14           0        2.651292    0.000000    0.000000
      3          1           0        2.746291   -1.460975   -0.000018
      4          1           0       -2.745512   -0.730354    1.265374
      5          1           0        2.746054    0.730528   -1.265233
      6          1           0        2.745291    0.730438    1.265342
      7          1           0       -2.746319    1.460973   -0.000145
      8          1           0       -2.745807   -0.730615   -1.265202
 ---------------------------------------------------------------------

 Alpha  occ. eigenvalues --  -67.21685 -67.21685  -5.76545  -5.76545  -4.08240
 Alpha  occ. eigenvalues --   -4.08240  -4.07421  -4.07421  -4.07421  -4.07421
 Alpha  occ. eigenvalues --   -0.80282  -0.80095  -0.60752  -0.60750  -0.60725
 Alpha  occ. eigenvalues --   -0.60724  -0.38231
 Alpha virt. eigenvalues --   -0.30496  -0.11418  -0.11370  -0.09742  -0.08832
 Alpha virt. eigenvalues --   -0.08831  -0.07733  -0.07733  -0.07470  -0.06861
 Alpha virt. eigenvalues --   -0.06861  -0.05918  -0.05918  -0.04880   0.00151

  Beta  occ. eigenvalues --  -67.21402 -67.21402  -5.76461  -5.76460  -4.07578
  Beta  occ. eigenvalues --   -4.07577  -4.07323  -4.07323  -4.07323  -4.07323
  Beta  occ. eigenvalues --   -0.78551  -0.78476  -0.60672  -0.60671  -0.60643
  Beta  occ. eigenvalues --   -0.60643
  Beta virt. eigenvalues --   -0.30726  -0.23577  -0.16038  -0.11251  -0.11249
  Beta virt. eigenvalues --   -0.10499  -0.09905  -0.08321  -0.08321  -0.07428
  Beta virt. eigenvalues --   -0.06320  -0.06320  -0.05424  -0.05424  -0.05387

 Mulliken charges and spin densities:
               1          2
     1  Si   0.518040   0.563099
     2  Si   0.518040   0.563099
     3  H   -0.006021  -0.021046
     4  H   -0.006011  -0.021026
     5  H   -0.006006  -0.021029
     6  H   -0.006014  -0.021025
     7  H   -0.006021  -0.021046
     8  H   -0.006009  -0.021028
 Sum of Mulliken charges =   1.00000   1.00000

 Dipole moment (field-independent basis, Debye):
    X=              0.0000    Y=             -0.0000    Z=              0.0001  Tot=              0.0001
 Quadrupole moment (field-independent basis, Debye-Ang):
   XX=             12.6978   YY=            -26.2511   ZZ=            -26.2507
   XY=              0.0008   XZ=              0.0001   YZ=             -0.0000

 Normal termination of Gaussian 16 at Mon Apr 21 20:16:40 2025.
