 Gaussian 16, Revision A.03,
 Gaussian 16:  ES64L-G16RevA.03 25-Dec-2016

 --------------------------------------------
 #p opt UM062X/6-311+G** nosymm int=superfine
 --------------------------------------------

 -------------------
 Title Card Required
 -------------------
 Symbolic Z-matrix:
 Charge =  1 Multiplicity = 2

 SCF Done:  E(UM062X) =  -1615.53068147     A.U. after   29 cycles
 SCF Done:  E(UM062X) =  -1615.54214545     A.U. after   20 cycles
 SCF Done:  E(UM062X) =  -1615.54241344     A.U. after   23 cycles
 SCF Done:  E(UM062X) =  -1615.54174536     A.U. after   27 cycles
 SCF Done:  E(UM062X) =  -1615.54130933     A.U. after   30 cycles
 SCF Done:  E(UM062X) =  -1615.54238341     A.U. after   24 cycles
 SCF Done:  E(UM062X) =  -1615.54243791     A.U. after   19 cycles
 SCF Done:  E(UM062X) =  -1615.54245631     A.U. after   22 cycles
 SCF Done:  E(UM062X) =  -1615.54245935     A.U. after   22 cycles
 SCF Done:  E(UM062X) =  -1615.54246008     A.U. after   20 cycles
 SCF Done:  E(UM062X) =  -1615.54246063     A.U. after   20 cycles
 SCF Done:  E(UM062X) =  -1615.54246105     A.U. after   19 cycles
 SCF Done:  E(UM062X) =  -1615.54246109     A.U. after   19 cycles
 SCF Done:  E(UM062X) =  -1615.54246112     A.U. after   17 cycles
 Optimization completed.
    -- Stationary point found.

                          Input orientation:
 ---------------------------------------------------------------------
 Center     Atomic      Atomic             Coordinates (Angstroms)
 Number     Number       Type             X           Y           Z
 ---------------------------------------------------------------------
      1          6           0       -1.911680    0.000000    0.000000
      2          6           0        1.911680    0.000000    0.000000
      3          6           0       -0.000177   -1.967069   -0.006087
      4          6           0        0.000121   -3.379448   -0.010513
      5          6           0       -1.113228   -4.229852    0.247465
      6          6           0       -1.354828   -1.408498    0.193136
      7          6           0        0.655471   -5.620583   -0.176111
      8          1           0        1.285027   -6.484330   -0.335138
      9          6           0       -1.938009    0.804853    1.190060
     10          6           0       -0.654563   -5.621733    0.140810
     11          1           0       -1.283891   -6.486645    0.294343
     12          6           0        1.113726   -4.227933   -0.273943
     13          6           0        1.354333   -1.407126   -0.202079
     14          6           0        2.520418    2.116556   -1.320900
     15          6           0       -2.227066    0.321342   -1.365335
     16          6           0       -2.474457    2.746245    2.587045
     17          1           0       -2.934871    3.722995    2.677136
     18          6           0       -2.320745   -3.670880    0.538683
     19          1           0       -3.200649   -4.260752    0.766448
     20          6           0       -2.776784    1.556870   -1.844205
     21          6           0        2.404451   -2.258094   -0.498910
     22          1           0        3.380710   -1.807469   -0.646491
     23          6           0        2.228211    0.312349    1.366910
     24          6           0        2.780277    1.544062    1.853153
     25          6           0        2.321039   -3.666843   -0.561890
     26          1           0        3.201073   -4.254982   -0.793571
     27          6           0       -2.517695    2.109171    1.334101
     28          6           0       -1.323821    0.255124    2.356086
     29          1           0       -0.881485   -0.727872    2.302380
     30          6           0        1.948749   -0.685821    2.351610
     31          1           0        1.583685   -1.652566    2.038906
     32          6           0       -1.861502    2.181416    3.685975
     33          1           0       -1.843717    2.707884    4.632152
     34          6           0       -2.404587   -2.261782    0.484465
     35          1           0       -3.380952   -1.812283    0.634663
     36          6           0       -2.945383    1.743406   -3.228612
     37          1           0       -3.358387    2.686050   -3.567668
     38          6           0        1.938433    0.812290   -1.184692
     39          6           0       -3.152690    2.873200    0.292905
     40          1           0       -3.593281    3.803189    0.637999
     41          6           0       -2.623033    0.773361   -4.153628
     42          1           0       -2.773694    0.954775   -5.210784
     43          6           0       -3.239257    2.653558   -1.033329
     44          1           0       -3.734845    3.435480   -1.599855
     45          6           0        2.949684    1.721647    3.238778
     46          1           0        3.364412    2.661404    3.583648
     47          6           0       -1.271302    0.920748    3.558245
     48          1           0       -0.779652    0.455880    4.404182
     49          6           0       -1.949224   -0.671067   -2.356176
     50          1           0       -1.586156   -1.640515   -2.049523
     51          6           0        2.625692    0.746441    4.157547
     52          1           0        2.776768    0.921009    5.215803
     53          6           0        2.477255    2.761558   -2.569933
     54          1           0        2.939437    3.737958   -2.654437
     55          6           0        2.135112   -0.479738    3.698194
     56          1           0        1.908268   -1.276254    4.396685
     57          6           0        1.861877    2.204788   -3.671446
     58          1           0        1.843914    2.737290   -4.614249
     59          6           0        3.157372    2.872848   -0.275751
     60          1           0        3.599206    3.804296   -0.615256
     61          6           0       -2.134978   -0.456403   -3.701670
     62          1           0       -1.909634   -1.249193   -4.404892
     63          6           0        3.244237    2.644773    1.049233
     64          1           0        3.741193    3.422433    1.620392
     65          6           0        1.321829    0.271006   -2.353526
     66          1           0        0.877451   -0.711335   -2.305402
     67          6           0        1.269073    0.944443   -3.551137
     68          1           0        0.775105    0.486243   -4.399336
 ---------------------------------------------------------------------

 Alpha  occ. eigenvalues --  -10.70737 -10.70620 -10.68532 -10.68459 -10.68364
 Alpha  occ. eigenvalues --  -10.68363 -10.68292 -10.68127 -10.68039 -10.67901
 Alpha  occ. eigenvalues --  -10.67814 -10.67801 -10.67773 -10.66364 -10.66281
 Alpha  occ. eigenvalues --  -10.66255 -10.66172 -10.65842 -10.65775 -10.65768
 Alpha  occ. eigenvalues --  -10.65708 -10.65606 -10.65532 -10.65509 -10.65445
 Alpha  occ. eigenvalues --  -10.65429 -10.65364 -10.65344 -10.65285 -10.65248
 Alpha  occ. eigenvalues --  -10.65183 -10.65164 -10.65120 -10.65109 -10.65105
 Alpha  occ. eigenvalues --  -10.65048 -10.65026 -10.64730 -10.64720 -10.64078
 Alpha  occ. eigenvalues --  -10.63588 -10.63486  -1.11362  -1.10376  -1.09710
 Alpha  occ. eigenvalues --   -1.07919  -1.07765  -1.04957  -1.04777  -1.02147
 Alpha  occ. eigenvalues --   -1.02012  -1.00943  -0.99909  -0.97697  -0.97479
 Alpha  occ. eigenvalues --   -0.96370  -0.96201  -0.94715  -0.93467  -0.93293
 Alpha  occ. eigenvalues --   -0.92711  -0.91517  -0.87039  -0.86830  -0.84725
 Alpha  occ. eigenvalues --   -0.84580  -0.82938  -0.81332  -0.80574  -0.79636
 Alpha  occ. eigenvalues --   -0.79440  -0.79309  -0.76927  -0.76090  -0.75918
 Alpha  occ. eigenvalues --   -0.75709  -0.75095  -0.73068  -0.69711  -0.69409
 Alpha  occ. eigenvalues --   -0.68496  -0.68429  -0.67649  -0.67448  -0.66653
 Alpha  occ. eigenvalues --   -0.66597  -0.65663  -0.65217  -0.64993  -0.64389
 Alpha  occ. eigenvalues --   -0.63186  -0.62724  -0.62343  -0.61774  -0.60676
 Alpha  occ. eigenvalues --   -0.60572  -0.60299  -0.60014  -0.59751  -0.59525
 Alpha  occ. eigenvalues --   -0.59165  -0.58455  -0.58197  -0.57867  -0.57630
 Alpha  occ. eigenvalues --   -0.57327  -0.56031  -0.55799  -0.55521  -0.55446
 Alpha  occ. eigenvalues --   -0.54853  -0.54791  -0.52807  -0.52637  -0.52543
 Alpha  occ. eigenvalues --   -0.52270  -0.52079  -0.51754  -0.50808  -0.50764
 Alpha  occ. eigenvalues --   -0.50578  -0.49705  -0.49682  -0.49449  -0.48620
 Alpha  occ. eigenvalues --   -0.48575  -0.47972  -0.47859  -0.46382  -0.44064
 Alpha  occ. eigenvalues --   -0.43130  -0.42679  -0.41250  -0.40258  -0.38710
 Alpha  occ. eigenvalues --   -0.37933  -0.37829  -0.36913  -0.28674
 Alpha virt. eigenvalues --   -0.22295  -0.15225  -0.15079  -0.14733  -0.10231
 Alpha virt. eigenvalues --   -0.09058  -0.08713  -0.08556  -0.08156  -0.07765
 Alpha virt. eigenvalues --   -0.07249  -0.07106  -0.06660  -0.06187  -0.06078

  Beta  occ. eigenvalues --  -10.70576 -10.70454 -10.68576 -10.68505 -10.68411
  Beta  occ. eigenvalues --  -10.68339 -10.68335 -10.68087 -10.67998 -10.67855
  Beta  occ. eigenvalues --  -10.67819 -10.67792 -10.67766 -10.66357 -10.66274
  Beta  occ. eigenvalues --  -10.66247 -10.66164 -10.65806 -10.65743 -10.65731
  Beta  occ. eigenvalues --  -10.65674 -10.65562 -10.65488 -10.65469 -10.65446
  Beta  occ. eigenvalues --  -10.65403 -10.65382 -10.65359 -10.65300 -10.65269
  Beta  occ. eigenvalues --  -10.65205 -10.65183 -10.65128 -10.65113 -10.65098
  Beta  occ. eigenvalues --  -10.65038 -10.65015 -10.64730 -10.64719 -10.64077
  Beta  occ. eigenvalues --  -10.63588 -10.63486  -1.11231  -1.10197  -1.09630
  Beta  occ. eigenvalues --   -1.07816  -1.07664  -1.04804  -1.04612  -1.02033
  Beta  occ. eigenvalues --   -1.01900  -1.00763  -0.99744  -0.97593  -0.97374
  Beta  occ. eigenvalues --   -0.96264  -0.96105  -0.94674  -0.93396  -0.93192
  Beta  occ. eigenvalues --   -0.92630  -0.91436  -0.86725  -0.86480  -0.84658
  Beta  occ. eigenvalues --   -0.84514  -0.82862  -0.81241  -0.80476  -0.79559
  Beta  occ. eigenvalues --   -0.79363  -0.79229  -0.76822  -0.75969  -0.75747
  Beta  occ. eigenvalues --   -0.75540  -0.75032  -0.72963  -0.69588  -0.69260
  Beta  occ. eigenvalues --   -0.68391  -0.68342  -0.67602  -0.67401  -0.66535
  Beta  occ. eigenvalues --   -0.66475  -0.65544  -0.65067  -0.64842  -0.64297
  Beta  occ. eigenvalues --   -0.63011  -0.62664  -0.62237  -0.61699  -0.60546
  Beta  occ. eigenvalues --   -0.60447  -0.60183  -0.59926  -0.59689  -0.59338
  Beta  occ. eigenvalues --   -0.58966  -0.58394  -0.58002  -0.57749  -0.57406
  Beta  occ. eigenvalues --   -0.57251  -0.55707  -0.55543  -0.55447  -0.55379
  Beta  occ. eigenvalues --   -0.54767  -0.54517  -0.52705  -0.52538  -0.52483
  Beta  occ. eigenvalues --   -0.52159  -0.51961  -0.51734  -0.50744  -0.50679
  Beta  occ. eigenvalues --   -0.50487  -0.49586  -0.49485  -0.49131  -0.48298
  Beta  occ. eigenvalues --   -0.48256  -0.47928  -0.46804  -0.45635  -0.43678
  Beta  occ. eigenvalues --   -0.42703  -0.42024  -0.40962  -0.40166  -0.38223
  Beta  occ. eigenvalues --   -0.37753  -0.37372  -0.36906
  Beta virt. eigenvalues --   -0.19539  -0.18642  -0.15215  -0.15120  -0.14810
  Beta virt. eigenvalues --   -0.10024  -0.08637  -0.08307  -0.08184  -0.08139
  Beta virt. eigenvalues --   -0.07433  -0.07288  -0.07090  -0.06643  -0.06216

 Mulliken charges and spin densities:
               1          2
     1  C    0.032334   0.310462
     2  C    0.033514   0.302553
     3  C    0.114418   0.006007
     4  C    0.068530  -0.007916
     5  C    0.023631   0.008371
     6  C    0.352661  -0.013266
     7  C   -0.261258   0.001314
     8  H    0.175600   0.000005
     9  C   -0.044633  -0.111665
    10  C   -0.261310   0.001369
    11  H    0.175631   0.000004
    12  C    0.023953   0.008223
    13  C    0.353280  -0.012946
    14  C    0.409828   0.102853
    15  C    0.317869  -0.077091
    16  C   -0.164133  -0.036810
    17  H    0.175178   0.001083
    18  C   -0.382030   0.003890
    19  H    0.173803  -0.000013
    20  C    0.411530   0.091053
    21  C   -0.518775   0.019063
    22  H    0.166881   0.000570
    23  C    0.318723  -0.075656
    24  C    0.411870   0.088981
    25  C   -0.381238   0.003719
    26  H    0.173801  -0.000016
    27  C    0.407983   0.104915
    28  C    0.207541   0.084658
    29  H    0.185694  -0.006732
    30  C   -0.254454   0.045004
    31  H    0.234666  -0.004562
    32  C   -0.475356   0.084983
    33  H    0.180506  -0.004027
    34  C   -0.517099   0.019312
    35  H    0.167050   0.000563
    36  C   -0.181400  -0.036628
    37  H    0.170540   0.000780
    38  C   -0.045978  -0.110263
    39  C   -0.431479   0.012664
    40  H    0.177436  -0.001084
    41  C   -0.201885   0.071357
    42  H    0.180213  -0.003445
    43  C   -0.326194   0.026637
    44  H    0.178456  -0.001312
    45  C   -0.181580  -0.035485
    46  H    0.170790   0.000749
    47  C   -0.013995  -0.040041
    48  H    0.165419   0.001912
    49  C   -0.256012   0.046987
    50  H    0.234176  -0.004639
    51  C   -0.200765   0.069125
    52  H    0.180483  -0.003333
    53  C   -0.165605  -0.035780
    54  H    0.175386   0.001055
    55  C   -0.433694  -0.026209
    56  H    0.174431   0.000948
    57  C   -0.475339   0.082934
    58  H    0.180822  -0.003925
    59  C   -0.430124   0.012216
    60  H    0.177732  -0.001053
    61  C   -0.433374  -0.027565
    62  H    0.174214   0.000980
    63  C   -0.325666   0.026179
    64  H    0.178741  -0.001287
    65  C    0.208667   0.083174
    66  H    0.186095  -0.006655
    67  C   -0.012601  -0.039137
    68  H    0.165900   0.001889
 Sum of Mulliken charges =   1.00000   1.00000

 Dipole moment (field-independent basis, Debye):
    X=              0.0964    Y=              2.8237    Z=              0.0162  Tot=              2.8254
 Quadrupole moment (field-independent basis, Debye-Ang):
   XX=           -201.8844   YY=           -179.9152   ZZ=           -179.0607
   XY=              0.1537   XZ=              8.9420   YZ=             -0.0615

 Normal termination of Gaussian 16 at Thu Nov 21 09:15:33 2024.
