 Gaussian 16, Revision A.03,
 Gaussian 16:  ES64L-G16RevA.03 25-Dec-2016

 --------------------------------------------
 #p opt UM062X/6-311+G** nosymm int=superfine
 --------------------------------------------

 -------------------
 Title Card Required
 -------------------
 Symbolic Z-matrix:
 Charge =  1 Multiplicity = 2

 SCF Done:  E(UM062X) =  -78.0763095012     A.U. after    9 cycles
 SCF Done:  E(UM062X) =  -78.0941810840     A.U. after    8 cycles
 SCF Done:  E(UM062X) =  -78.0971181811     A.U. after    8 cycles
 SCF Done:  E(UM062X) =  -78.0971283604     A.U. after    6 cycles
 Optimization completed.
    -- Stationary point found.

                          Input orientation:
 ---------------------------------------------------------------------
 Center     Atomic      Atomic             Coordinates (Angstroms)
 Number     Number       Type             X           Y           Z
 ---------------------------------------------------------------------
      1          6           0       -0.579651    0.000000    0.000000
      2          6           0        0.579651    0.000000    0.000000
      3          1           0       -1.182961   -0.909084    0.000000
      4          1           0       -1.182949    0.909126    0.000000
      5          1           0        1.182961    0.909084   -0.000000
      6          1           0        1.182949   -0.909126   -0.000000
 ---------------------------------------------------------------------

 Alpha  occ. eigenvalues --  -10.87851 -10.87474  -1.27831  -0.96465  -0.88797
 Alpha  occ. eigenvalues --   -0.84406  -0.74614  -0.68931
 Alpha virt. eigenvalues --   -0.24072  -0.14912  -0.14207  -0.12474  -0.10701
 Alpha virt. eigenvalues --   -0.08102  -0.06465  -0.04987  -0.04081  -0.03440
 Alpha virt. eigenvalues --    0.00040   0.03351   0.12224   0.15533   0.20765

  Beta  occ. eigenvalues --  -10.87578 -10.87214  -1.23102  -0.94632  -0.87282
  Beta  occ. eigenvalues --   -0.83473  -0.68693
  Beta virt. eigenvalues --   -0.47039  -0.18331  -0.16452  -0.13989  -0.12423
  Beta virt. eigenvalues --   -0.11406  -0.09075  -0.06501  -0.04726  -0.03114
  Beta virt. eigenvalues --   -0.02664  -0.00198   0.03570   0.12677   0.15842

 Mulliken charges and spin densities:
               1          2
     1  C   -0.040318   0.536017
     2  C   -0.040318   0.536017
     3  H    0.270159  -0.018008
     4  H    0.270159  -0.018009
     5  H    0.270159  -0.018008
     6  H    0.270159  -0.018009
 Sum of Mulliken charges =   1.00000   1.00000

 Dipole moment (field-independent basis, Debye):
    X=             -0.0000    Y=              0.0000    Z=              0.0000  Tot=              0.0000
 Quadrupole moment (field-independent basis, Debye-Ang):
   XX=             -6.4722   YY=             -8.5249   ZZ=            -10.9005
   XY=             -0.0000   XZ=             -0.0000   YZ=              0.0000

 Normal termination of Gaussian 16 at Tue Nov 19 10:53:36 2024.
