 Gaussian 16, Revision A.03,
 Gaussian 16:  ES64L-G16RevA.03 25-Dec-2016

 ---------------------------------------------------
 #p UM062X/6-311+G** force int=superfine pop=saveNBO
 ---------------------------------------------------

 -------------------
 Title Card Required
 -------------------
 Symbolic Z-matrix:
 Charge =  0 Multiplicity = 1

                         Standard orientation:
 ---------------------------------------------------------------------
 Center     Atomic      Atomic             Coordinates (Angstroms)
 Number     Number       Type             X           Y           Z
 ---------------------------------------------------------------------
      1          6           0        0.000000    0.000000   -1.812665
      2          8           0        0.000000    0.000000    1.359499
 ---------------------------------------------------------------------

 SCF Done:  E(UM062X) =  -112.661631885     A.U. after   25 cycles

 The electronic state is 1-SG.
 Alpha  occ. eigenvalues --  -19.68970 -10.86937  -0.98046  -0.74152  -0.33982
 Alpha  occ. eigenvalues --   -0.32081  -0.32081
 Alpha virt. eigenvalues --   -0.22561  -0.22561  -0.20646   0.02030   0.05750
 Alpha virt. eigenvalues --    0.05750   0.07110   0.19809   0.22042   0.22042
 Alpha virt. eigenvalues --    0.27477   0.49293   0.49293   0.50912   0.59648

  Beta  occ. eigenvalues --  -19.68970 -10.86937  -0.98046  -0.74152  -0.33982
  Beta  occ. eigenvalues --   -0.32081  -0.32081
  Beta virt. eigenvalues --   -0.22561  -0.22561  -0.20646   0.02030   0.05750
  Beta virt. eigenvalues --    0.05750   0.07110   0.19809   0.22042   0.22042
  Beta virt. eigenvalues --    0.27477   0.49293   0.49293   0.50912   0.59648

 Mulliken charges and spin densities:
               1          2
     1  C    0.365807   0.000000
     2  O   -0.365807  -0.000000
 Sum of Mulliken charges =  -0.00000   0.00000

 Dipole moment (field-independent basis, Debye):
    X=              0.0000    Y=              0.0000    Z=             -5.5469  Tot=              5.5469
 Quadrupole moment (field-independent basis, Debye-Ang):
   XX=            -12.1707   YY=            -12.1707   ZZ=             -8.2059
   XY=              0.0000   XZ=              0.0000   YZ=              0.0000

 Summary of Natural Population Analysis:

                                       Natural Population
                Natural  -----------------------------------------------
    Atom  No    Charge         Core      Valence    Rydberg      Total
 -----------------------------------------------------------------------
      C    1    0.22625      1.00000     1.77358    0.00017     2.77375
      O    2   -0.22625      1.00000     3.22613    0.00012     4.22625
 =======================================================================
   * Total *   -0.00000      2.00000     4.99971    0.00029     7.00000

 Normal termination of Gaussian 16 at Mon Apr 21 19:31:05 2025.
