 Gaussian 16, Revision A.03,
 Gaussian 16:  ES64L-G16RevA.03 25-Dec-2016

 --------------------------------------------
 #p opt UM062X/6-311+G** nosymm int=superfine
 --------------------------------------------

 -------------------
 Title Card Required
 -------------------
 Symbolic Z-matrix:
 Charge =  0 Multiplicity = 1

 SCF Done:  E(UM062X) =  -76.9700356750     A.U. after   12 cycles
 SCF Done:  E(UM062X) =  -76.9704865607     A.U. after   13 cycles
 SCF Done:  E(UM062X) =  -76.9708078333     A.U. after   13 cycles
 SCF Done:  E(UM062X) =  -76.9710950044     A.U. after   12 cycles
 Optimization completed.
    -- Stationary point found.

                          Input orientation:
 ---------------------------------------------------------------------
 Center     Atomic      Atomic             Coordinates (Angstroms)
 Number     Number       Type             X           Y           Z
 ---------------------------------------------------------------------
      1          6           0       -1.207625    0.000000    0.000000
      2          6           0        1.207625    0.000000    0.000000
      3          1           0       -1.197161    0.313876    1.073088
      4          1           0        1.197201    1.009002   -0.481619
 ---------------------------------------------------------------------

 Alpha  occ. eigenvalues --  -10.66617 -10.66611  -0.74685  -0.69779  -0.39340
 Alpha  occ. eigenvalues --   -0.38158  -0.28600
 Alpha virt. eigenvalues --   -0.09575  -0.08855  -0.03633   0.02774   0.06032
 Alpha virt. eigenvalues --    0.07646   0.07652   0.09966   0.10054   0.10377
 Alpha virt. eigenvalues --    0.15510   0.16692   0.20820   0.45153   0.47133

  Beta  occ. eigenvalues --  -10.66617 -10.66611  -0.74685  -0.69779  -0.39340
  Beta  occ. eigenvalues --   -0.38158  -0.28600
  Beta virt. eigenvalues --   -0.09575  -0.08855  -0.03633   0.02774   0.06032
  Beta virt. eigenvalues --    0.07646   0.07652   0.09966   0.10054   0.10377
  Beta virt. eigenvalues --    0.15510   0.16692   0.20820   0.45153   0.47133

 Mulliken charges and spin densities:
               1          2
     1  C   -0.136684   0.000000
     2  C   -0.136694  -0.000000
     3  H    0.136688  -0.000000
     4  H    0.136690   0.000000
 Sum of Mulliken charges =  -0.00000   0.00000

 Dipole moment (field-independent basis, Debye):
    X=              0.0000    Y=              1.8258    Z=              0.8163  Tot=              2.0000
 Quadrupole moment (field-independent basis, Debye-Ang):
   XX=            -17.2079   YY=            -12.9541   ZZ=            -13.2227
   XY=              1.2803   XZ=             -2.8632   YZ=              0.1501

 Normal termination of Gaussian 16 at Tue Dec  3 21:36:31 2024.
