 Gaussian 16, Revision A.03,
 Gaussian 16:  ES64L-G16RevA.03 25-Dec-2016

 --------------------------------------------
 #p opt UM062X/6-311+G** nosymm int=superfine
 --------------------------------------------

 -------------------
 Title Card Required
 -------------------
 Symbolic Z-matrix:
 Charge =  0 Multiplicity = 1

 SCF Done:  E(UM062X) =  -684.901511065     A.U. after   12 cycles

 Alpha  occ. eigenvalues --  -78.04869 -78.04868  -6.87303  -6.87302  -4.98843
 Alpha  occ. eigenvalues --   -4.98843  -4.98729  -4.98728  -4.98547  -4.98546
 Alpha  occ. eigenvalues --   -0.71153  -0.70993  -0.45132  -0.45091  -0.36258
 Alpha  occ. eigenvalues --   -0.36223  -0.23259
 Alpha virt. eigenvalues --   -0.16279   0.01462   0.02796   0.03185   0.03999
 Alpha virt. eigenvalues --    0.04812   0.05772   0.05957   0.06015   0.06066
 Alpha virt. eigenvalues --    0.07806   0.12240   0.17931   0.29344   0.30023

  Beta  occ. eigenvalues --  -78.04869 -78.04868  -6.87303  -6.87302  -4.98843
  Beta  occ. eigenvalues --   -4.98843  -4.98729  -4.98728  -4.98547  -4.98546
  Beta  occ. eigenvalues --   -0.71153  -0.70993  -0.45132  -0.45091  -0.36258
  Beta  occ. eigenvalues --   -0.36223  -0.23259
  Beta virt. eigenvalues --   -0.16279   0.01462   0.02796   0.03185   0.03999
  Beta virt. eigenvalues --    0.04812   0.05772   0.05957   0.06015   0.06066
  Beta virt. eigenvalues --    0.07806   0.12240   0.17931   0.29344   0.30023

 Mulliken charges and spin densities:
               1          2
     1  P    0.014729  -0.000000
     2  P    0.014850   0.000000
     3  H   -0.007050  -0.000000
     4  H   -0.007102   0.000000
     5  H   -0.007710  -0.000000
     6  H   -0.007717   0.000000
 Sum of Mulliken charges =  -0.00000   0.00000

 Dipole moment (field-independent basis, Debye):
    X=             -0.0012    Y=             -0.0067    Z=             -0.1475  Tot=              0.1477
 Quadrupole moment (field-independent basis, Debye-Ang):
   XX=            -29.5393   YY=            -31.2324   ZZ=            -28.5284
   XY=             -4.9307   XZ=              0.1901   YZ=              0.1076

 Optimization completed.
    -- Stationary point found.

                          Input orientation:
 ---------------------------------------------------------------------
 Center     Atomic      Atomic             Coordinates (Angstroms)
 Number     Number       Type             X           Y           Z
 ---------------------------------------------------------------------
      1         15           0       -2.567217    0.000000    0.000000
      2         15           0        2.567217    0.000000    0.000000
      3          1           0        2.447614   -1.022245    0.976929
      4          1           0       -2.454808    1.097654    0.892413
      5          1           0        2.455876   -0.936530   -1.060487
      6          1           0       -2.452890    0.849440   -1.130962
 ---------------------------------------------------------------------

 Normal termination of Gaussian 16 at Mon Apr 21 22:58:35 2025.
