 Gaussian 16, Revision A.03,
 Gaussian 16:  ES64L-G16RevA.03 25-Dec-2016

 --------------------------------------------
 #p opt UM062X/6-311+G** nosymm int=superfine
 --------------------------------------------

 -------------------
 Title Card Required
 -------------------
 Symbolic Z-matrix:
 Charge =  1 Multiplicity = 2

 SCF Done:  E(UM062X) =  -579.671952561     A.U. after   14 cycles
 SCF Done:  E(UM062X) =  -579.672615316     A.U. after   12 cycles
 SCF Done:  E(UM062X) =  -579.673099317     A.U. after   12 cycles
 SCF Done:  E(UM062X) =  -579.674157570     A.U. after   13 cycles
 SCF Done:  E(UM062X) =  -579.674767467     A.U. after   14 cycles
 SCF Done:  E(UM062X) =  -579.675031047     A.U. after   14 cycles
 SCF Done:  E(UM062X) =  -579.675164898     A.U. after   12 cycles
 SCF Done:  E(UM062X) =  -579.675180871     A.U. after   10 cycles
 SCF Done:  E(UM062X) =  -579.675181860     A.U. after    9 cycles
 SCF Done:  E(UM062X) =  -579.675186590     A.U. after   12 cycles
 SCF Done:  E(UM062X) =  -579.675190263     A.U. after   11 cycles
 SCF Done:  E(UM062X) =  -579.675191078     A.U. after   10 cycles
 SCF Done:  E(UM062X) =  -579.675191082     A.U. after    9 cycles
 Optimization completed.
    -- Stationary point found.

                          Input orientation:
 ---------------------------------------------------------------------
 Center     Atomic      Atomic             Coordinates (Angstroms)
 Number     Number       Type             X           Y           Z
 ---------------------------------------------------------------------
      1         14           0       -2.402975    0.000000    0.000000
      2         14           0        2.402975    0.000000    0.000000
      3          1           0       -2.525556   -1.503562   -0.000000
      4          1           0        2.525583    1.503560    0.000000
 ---------------------------------------------------------------------

 Alpha  occ. eigenvalues --  -67.25985 -67.25985  -5.80158  -5.80157  -4.11259
 Alpha  occ. eigenvalues --   -4.11259  -4.11171  -4.11171  -4.10524  -4.10524
 Alpha  occ. eigenvalues --   -0.74972  -0.74638  -0.51727  -0.51565  -0.38809
 Alpha virt. eigenvalues --   -0.29807  -0.26859  -0.26383  -0.10482  -0.09119
 Alpha virt. eigenvalues --   -0.08273  -0.07640  -0.07437  -0.06379  -0.05478
 Alpha virt. eigenvalues --   -0.05390  -0.04778  -0.02325   0.12872   0.14537

  Beta  occ. eigenvalues --  -67.25729 -67.25729  -5.80086  -5.80085  -4.11109
  Beta  occ. eigenvalues --   -4.11109  -4.10567  -4.10567  -4.10425  -4.10425
  Beta  occ. eigenvalues --   -0.73156  -0.73011  -0.51090  -0.50922
  Beta virt. eigenvalues --   -0.27535  -0.26684  -0.25989  -0.23932  -0.14502
  Beta virt. eigenvalues --   -0.10853  -0.09080  -0.08216  -0.07837  -0.06403
  Beta virt. eigenvalues --   -0.05633  -0.05271  -0.05000  -0.02435   0.09291

 Mulliken charges and spin densities:
               1          2
     1  Si   0.584376   0.507906
     2  Si   0.584375   0.507907
     3  H   -0.084376  -0.007907
     4  H   -0.084375  -0.007907
 Sum of Mulliken charges =   1.00000   1.00000

 Dipole moment (field-independent basis, Debye):
    X=              0.0000    Y=             -0.0000    Z=              0.0000  Tot=              0.0000
 Quadrupole moment (field-independent basis, Debye-Ang):
   XX=              8.7017   YY=            -27.8198   ZZ=            -20.0208
   XY=              2.4472   XZ=              0.0000   YZ=             -0.0000

 Normal termination of Gaussian 16 at Mon Apr 21 20:45:05 2025.
