 Gaussian 16, Revision A.03,
 Gaussian 16:  ES64L-G16RevA.03 25-Dec-2016

 ---------------------------------------
 #p UM062X/6-311+G** force int=superfine
 ---------------------------------------

 -------------------
 Title Card Required
 -------------------
 Symbolic Z-matrix:
 Charge =  1 Multiplicity = 2

                         Standard orientation:
 ---------------------------------------------------------------------
 Center     Atomic      Atomic             Coordinates (Angstroms)
 Number     Number       Type             X           Y           Z
 ---------------------------------------------------------------------
      1          6           0        0.000000    0.000000    0.521928
      2          6           0        0.000000    0.000000   -0.521928
      3          1           0        0.000000    0.000000    1.596980
      4          1           0        0.000000    0.000000   -1.596980
 ---------------------------------------------------------------------

 SCF Done:  E(UM062X) =  -76.8004782017     A.U. after    9 cycles

 Unable to determine electronic state:  an orbital has unidentified symmetry.
 Alpha  occ. eigenvalues --  -10.91090 -10.90122  -1.30202  -0.95656  -0.90988
 Alpha  occ. eigenvalues --   -0.79732  -0.76467
 Alpha virt. eigenvalues --   -0.21462  -0.19609  -0.14671  -0.14069  -0.11902
 Alpha virt. eigenvalues --   -0.11157  -0.10844  -0.03924  -0.03301  -0.03087
 Alpha virt. eigenvalues --    0.02401   0.04401   0.17313   0.19784   0.26623

  Beta  occ. eigenvalues --  -10.90776 -10.89856  -1.24633  -0.94124  -0.90244
  Beta  occ. eigenvalues --   -0.73845
  Beta virt. eigenvalues --   -0.50376  -0.18329  -0.16697  -0.15609  -0.13597
  Beta virt. eigenvalues --   -0.11872  -0.11346  -0.10955  -0.02898  -0.02553
  Beta virt. eigenvalues --   -0.01968   0.02515   0.04781   0.17974   0.20190

 Mulliken charges and spin densities:
               1          2
     1  C    0.225311   0.520133
     2  C    0.225311   0.520133
     3  H    0.274689  -0.020133
     4  H    0.274689  -0.020133
 Sum of Mulliken charges =   1.00000   1.00000

 Dipole moment (field-independent basis, Debye):
    X=              0.0000    Y=             -0.0000    Z=             -0.0000  Tot=              0.0000
 Quadrupole moment (field-independent basis, Debye-Ang):
   XX=            -10.6348   YY=             -9.0221   ZZ=             -1.7849
   XY=              0.0000   XZ=             -0.0000   YZ=             -0.0000

 Normal termination of Gaussian 16 at Tue Nov 19 13:27:40 2024.
