 Gaussian 16, Revision A.03,
 Gaussian 16:  ES64L-G16RevA.03 25-Dec-2016

 ---------------------------------------------------
 #p UM062X/6-311+G** force int=superfine pop=saveNBO
 ---------------------------------------------------

 -------------------
 Title Card Required
 -------------------
 Symbolic Z-matrix:
 Charge =  0 Multiplicity = 1

                         Standard orientation:
 ---------------------------------------------------------------------
 Center     Atomic      Atomic             Coordinates (Angstroms)
 Number     Number       Type             X           Y           Z
 ---------------------------------------------------------------------
      1          8           0        0.000000    0.000000   -1.826757
      2         16           0        0.000000    0.000000    0.913379
 ---------------------------------------------------------------------

 SCF Done:  E(UM062X) =  -473.010392915     A.U. after   19 cycles

 Unable to determine electronic state:  an orbital has unidentified symmetry.
 Alpha  occ. eigenvalues --  -90.03714 -19.75710  -8.39269  -6.31319  -6.31288
 Alpha  occ. eigenvalues --   -6.30387  -1.04317  -0.81290  -0.42788  -0.39663
 Alpha  occ. eigenvalues --   -0.37600  -0.36296
 Alpha virt. eigenvalues --   -0.24508  -0.20504   0.02618   0.04717   0.05201
 Alpha virt. eigenvalues --    0.05629   0.17781   0.19834   0.20063   0.25782
 Alpha virt. eigenvalues --    0.32417   0.33365   0.34505   0.57729   0.74149

  Beta  occ. eigenvalues --  -90.03714 -19.75710  -8.39269  -6.31319  -6.31288
  Beta  occ. eigenvalues --   -6.30387  -1.04317  -0.81290  -0.42788  -0.39663
  Beta  occ. eigenvalues --   -0.37600  -0.36296
  Beta virt. eigenvalues --   -0.24508  -0.20504   0.02618   0.04717   0.05201
  Beta virt. eigenvalues --    0.05629   0.17781   0.19834   0.20063   0.25782
  Beta virt. eigenvalues --    0.32417   0.33365   0.34505   0.57729   0.74149

 Mulliken charges and spin densities:
               1          2
     1  O   -0.212152   0.000000
     2  S    0.212152  -0.000000
 Sum of Mulliken charges =  -0.00000   0.00000

 Dipole moment (field-independent basis, Debye):
    X=              0.0000    Y=              0.0000    Z=              2.7787  Tot=              2.7787
 Quadrupole moment (field-independent basis, Debye-Ang):
   XX=            -20.7812   YY=            -17.3001   ZZ=            -18.5005
   XY=              0.0000   XZ=              0.0000   YZ=              0.0000

 Summary of Natural Population Analysis:

                                       Natural Population
                Natural  -----------------------------------------------
    Atom  No    Charge         Core      Valence    Rydberg      Total
 -----------------------------------------------------------------------
      O    1   -0.13221      1.00000     3.13121    0.00100     4.13221
      S    2    0.13221      4.99999     2.86692    0.00088     7.86779
 =======================================================================
   * Total *   -0.00000      5.99999     5.99812    0.00188    12.00000

 Normal termination of Gaussian 16 at Mon Apr 21 19:55:19 2025.
