 Gaussian 16, Revision A.03,
 Gaussian 16:  ES64L-G16RevA.03 25-Dec-2016

 --------------------------------------------
 #p opt UM062X/6-311+G** nosymm int=superfine
 --------------------------------------------

 -------------------
 Title Card Required
 -------------------
 Symbolic Z-matrix:
 Charge =  1 Multiplicity = 2

 SCF Done:  E(UM062X) =  -76.7924263328     A.U. after   10 cycles
 SCF Done:  E(UM062X) =  -76.8212859511     A.U. after   10 cycles
 SCF Done:  E(UM062X) =  -76.8312935798     A.U. after  120 cycles
 SCF Done:  E(UM062X) =  -76.8313289325     A.U. after    9 cycles
 Optimization completed.
    -- Stationary point found.

                          Input orientation:
 ---------------------------------------------------------------------
 Center     Atomic      Atomic             Coordinates (Angstroms)
 Number     Number       Type             X           Y           Z
 ---------------------------------------------------------------------
      1          6           0       -0.745611    0.000000    0.000000
      2          6           0        0.745611    0.000000    0.000000
      3          1           0       -1.834740   -0.000009    0.000010
      4          1           0        1.834737   -0.000009    0.000010
 ---------------------------------------------------------------------

 Alpha  occ. eigenvalues --  -10.97953 -10.97890  -1.14782  -0.98466  -0.87074
 Alpha  occ. eigenvalues --   -0.67014  -0.64713
 Alpha virt. eigenvalues --   -0.33032  -0.31017  -0.20674  -0.14323  -0.11038
 Alpha virt. eigenvalues --   -0.09924  -0.09556  -0.09312  -0.05180  -0.04825
 Alpha virt. eigenvalues --    0.01966   0.04243   0.10519   0.20921   0.31136

  Beta  occ. eigenvalues --  -10.97715 -10.97667  -1.10497  -0.96788  -0.86442
  Beta  occ. eigenvalues --   -0.62505
  Beta virt. eigenvalues --   -0.42839  -0.29320  -0.25517  -0.18752  -0.15449
  Beta virt. eigenvalues --   -0.11339  -0.10024  -0.09892  -0.09676  -0.04942
  Beta virt. eigenvalues --   -0.04536   0.01334   0.04384   0.11044   0.21821

 Mulliken charges and spin densities:
               1          2
     1  C    0.156929   0.520485
     2  C    0.156929   0.520484
     3  H    0.343072  -0.020485
     4  H    0.343070  -0.020485
 Sum of Mulliken charges =   1.00000   1.00000

 Dipole moment (field-independent basis, Debye):
    X=             -0.0000    Y=             -0.0000    Z=              0.0000  Tot=              0.0000
 Quadrupole moment (field-independent basis, Debye-Ang):
   XX=              1.3956   YY=            -11.8699   ZZ=            -10.6162
   XY=             -0.0000   XZ=              0.0000   YZ=             -0.7670

 Normal termination of Gaussian 16 at Tue Nov 19 13:08:20 2024.
