 Gaussian 16, Revision A.03,
 Gaussian 16:  ES64L-G16RevA.03 25-Dec-2016

 --------------------------------------------
 #p opt UM062X/6-311+G** nosymm int=superfine
 --------------------------------------------

 -------------------
 Title Card Required
 -------------------
 Symbolic Z-matrix:
 Charge =  0 Multiplicity = 3

 SCF Done:  E(UM062X) =  -50.4997279784     A.U. after   13 cycles
 SCF Done:  E(UM062X) =  -50.5006469160     A.U. after   10 cycles
 SCF Done:  E(UM062X) =  -50.5006536950     A.U. after    8 cycles
 Optimization completed.
    -- Stationary point found.

                          Input orientation:
 ---------------------------------------------------------------------
 Center     Atomic      Atomic             Coordinates (Angstroms)
 Number     Number       Type             X           Y           Z
 ---------------------------------------------------------------------
      1          5           0       -1.653410    0.000000    0.000000
      2          5           0        1.653410    0.000000    0.000000
      3          1           0       -2.858888   -0.000082    0.000000
      4          1           0        2.858888    0.000082    0.000000
 ---------------------------------------------------------------------

 Alpha  occ. eigenvalues --   -7.14053  -7.14052  -0.56747  -0.56321  -0.34617
 Alpha  occ. eigenvalues --   -0.28489  -0.18478
 Alpha virt. eigenvalues --   -0.08828  -0.06631  -0.04737   0.02641   0.02778
 Alpha virt. eigenvalues --    0.05973   0.07174   0.07219   0.08139   0.08262
 Alpha virt. eigenvalues --    0.11944   0.18453   0.22653   0.34922   0.39101

  Beta  occ. eigenvalues --   -7.13127  -7.13126  -0.53383  -0.53110  -0.25726
  Beta virt. eigenvalues --   -0.08520  -0.04788  -0.04290  -0.02397  -0.01949
  Beta virt. eigenvalues --    0.01723   0.02578   0.06970   0.07297   0.07310
  Beta virt. eigenvalues --    0.08317   0.09343   0.09676   0.19549   0.23948

 Mulliken charges and spin densities:
               1          2
     1  B   -0.067043   0.918627
     2  B   -0.067042   0.918625
     3  H    0.067043   0.081374
     4  H    0.067043   0.081374
 Sum of Mulliken charges =  -0.00000   2.00000

 Dipole moment (field-independent basis, Debye):
    X=              0.0000    Y=             -0.0000    Z=              0.0000  Tot=              0.0000
 Quadrupole moment (field-independent basis, Debye-Ang):
   XX=             -9.4609   YY=            -13.5871   ZZ=            -17.6386
   XY=              0.0000   XZ=             -0.0000   YZ=             -0.0001

 1\1\GINC-NODE06\FOpt\UM062X\6-311+G(d,p)\B2H2(3)\SZHAO\21-Apr-2025\0\\
 #p opt UM062X/6-311+G** nosymm int=superfine\\Title Card Required\\0,3
 \B,-1.65341047,0.,0.\B,1.65341047,0.,0.\H,-2.8588883852,-0.0000822179,
 0.000000012\H,2.8588883861,0.0000822177,0.000000006\\Version=ES64L-G16
 RevA.03\HF=-50.5006537\S2=2.01468\S2-1=0.\S2A=2.000013\RMSD=7.255e-09\
 RMSF=5.582e-07\Dipole=0.000002,0.,0.\Quadrupole=3.0492325,-0.0185438,-
 3.0306887,0.0000143,0.,-0.0001109\PG=C*V [C*(H1B1B1H1)]\\@

 Normal termination of Gaussian 16 at Mon Apr 21 17:28:55 2025.
