 Gaussian 16, Revision A.03,
 Gaussian 16:  ES64L-G16RevA.03 25-Dec-2016

 -------------------------------------------------------------------
 #p opt UM062X/6-311+G** nosymm int=superfine SCF=NoVarAcc SCF=tight
 -------------------------------------------------------------------

 -------------------
 Title Card Required
 -------------------
 Symbolic Z-matrix:
 Charge =  1 Multiplicity = 2

 SCF Done:  E(UM062X) =  -79.3158437876     A.U. after   23 cycles
 SCF Done:  E(UM062X) =  -79.3159262080     A.U. after    9 cycles
 SCF Done:  E(UM062X) =  -79.3159507493     A.U. after    9 cycles
 SCF Done:  E(UM062X) =  -79.3159637288     A.U. after    9 cycles
 SCF Done:  E(UM062X) =  -79.3159645305     A.U. after    8 cycles
 Optimization completed.
    -- Stationary point found.

                          Input orientation:
 ---------------------------------------------------------------------
 Center     Atomic      Atomic             Coordinates (Angstroms)
 Number     Number       Type             X           Y           Z
 ---------------------------------------------------------------------
      1          6           0       -8.282675    0.000000    0.000000
      2          6           0        8.282675    0.000000    0.000000
      3          1           0        8.282592   -0.936691    0.542409
      4          1           0       -8.283483   -0.937672   -0.540716
      5          1           0        8.285651    0.938094    0.539972
      6          1           0        8.284404   -0.001403   -1.082402
      7          1           0       -8.285167    0.937134   -0.541626
      8          1           0       -8.283956    0.000399    1.082404
 ---------------------------------------------------------------------

 Alpha  occ. eigenvalues --  -10.78382 -10.78382  -0.97147  -0.97145  -0.68396
 Alpha  occ. eigenvalues --   -0.68394  -0.68394  -0.68393  -0.38522
 Alpha virt. eigenvalues --   -0.36791  -0.08074  -0.08072  -0.04584  -0.04584
 Alpha virt. eigenvalues --   -0.04584  -0.04584  -0.02504  -0.02504   0.04892
 Alpha virt. eigenvalues --    0.04893   0.04893   0.04894   0.04982   0.04984

  Beta  occ. eigenvalues --  -10.78139 -10.78139  -0.94478  -0.94478  -0.67821
  Beta  occ. eigenvalues --   -0.67820  -0.67820  -0.67819
  Beta virt. eigenvalues --   -0.23425  -0.23425  -0.08620  -0.08620  -0.04217
  Beta virt. eigenvalues --   -0.04217  -0.04217  -0.04217  -0.00550  -0.00550
  Beta virt. eigenvalues --    0.05188   0.05189   0.05190   0.05191   0.06437

 Mulliken charges and spin densities:
               1          2
     1  C   -0.190833   0.566903
     2  C   -0.190833   0.566903
     3  H    0.230275  -0.022301
     4  H    0.230274  -0.022301
     5  H    0.230281  -0.022301
     6  H    0.230277  -0.022302
     7  H    0.230284  -0.022300
     8  H    0.230275  -0.022302
 Sum of Mulliken charges =   1.00000   1.00000

 Dipole moment (field-independent basis, Debye):
    X=              0.0000    Y=             -0.0001    Z=              0.0000  Tot=              0.0001
 Quadrupole moment (field-independent basis, Debye-Ang):
   XX=            315.9558   YY=            -11.1278   ZZ=            -11.1282
   XY=              0.0017   XZ=             -0.0003   YZ=             -0.0003

 Normal termination of Gaussian 16 at Tue Dec  3 16:16:19 2024.
