 Gaussian 16, Revision A.03,
 Gaussian 16:  ES64L-G16RevA.03 25-Dec-2016

 --------------------------------------------
 #p opt UM062X/6-311+G** nosymm int=superfine
 --------------------------------------------

 -------------------
 Title Card Required
 -------------------
 Symbolic Z-matrix:
 Charge =  1 Multiplicity = 2

 SCF Done:  E(UM062X) =  -580.869196162     A.U. after   14 cycles
 SCF Done:  E(UM062X) =  -580.876363390     A.U. after    9 cycles
 SCF Done:  E(UM062X) =  -580.878363077     A.U. after   12 cycles
 SCF Done:  E(UM062X) =  -580.878365641     A.U. after   10 cycles
 Optimization completed.
    -- Stationary point found.

                          Input orientation:
 ---------------------------------------------------------------------
 Center     Atomic      Atomic             Coordinates (Angstroms)
 Number     Number       Type             X           Y           Z
 ---------------------------------------------------------------------
      1         14           0       -2.141295    0.000000    0.000000
      2         14           0        2.141295    0.000000    0.000000
      3          1           0       -3.036850   -1.191153    0.000056
      4          1           0        3.036850    1.191153    0.001087
      5          1           0       -3.036865    1.191142   -0.000051
      6          1           0        3.036864   -1.191142   -0.001082
 ---------------------------------------------------------------------

 Alpha  occ. eigenvalues --  -67.24300 -67.24300  -5.78786  -5.78784  -4.10058
 Alpha  occ. eigenvalues --   -4.10058  -4.09733  -4.09733  -4.09392  -4.09392
 Alpha  occ. eigenvalues --   -0.78350  -0.78165  -0.60121  -0.60072  -0.50075
 Alpha  occ. eigenvalues --   -0.47110
 Alpha virt. eigenvalues --   -0.27325  -0.26523  -0.12923  -0.12046  -0.09272
 Alpha virt. eigenvalues --   -0.08019  -0.07954  -0.07339  -0.06749  -0.06017
 Alpha virt. eigenvalues --   -0.05971  -0.05857  -0.05550  -0.03448   0.13131

  Beta  occ. eigenvalues --  -67.23955 -67.23955  -5.78520  -5.78520  -4.09953
  Beta  occ. eigenvalues --   -4.09953  -4.09279  -4.09279  -4.08949  -4.08949
  Beta  occ. eigenvalues --   -0.76529  -0.76189  -0.58943  -0.58880  -0.43898
  Beta virt. eigenvalues --   -0.32470  -0.26143  -0.25160  -0.11872  -0.11530
  Beta virt. eigenvalues --   -0.09350  -0.07460  -0.07072  -0.06587  -0.06398
  Beta virt. eigenvalues --   -0.05794  -0.05617  -0.05323  -0.05296  -0.03034

 Mulliken charges and spin densities:
               1          2
     1  Si   0.558185   0.386878
     2  Si   0.558185   0.386878
     3  H   -0.029093   0.056561
     4  H   -0.029093   0.056561
     5  H   -0.029092   0.056561
     6  H   -0.029092   0.056561
 Sum of Mulliken charges =   1.00000   1.00000

 Dipole moment (field-independent basis, Debye):
    X=              0.0000    Y=              0.0000    Z=              0.0000  Tot=              0.0000
 Quadrupole moment (field-independent basis, Debye-Ang):
   XX=              1.4874   YY=            -25.8357   ZZ=            -20.8532
   XY=             -0.0000   XZ=              0.0000   YZ=             -0.0022

 Normal termination of Gaussian 16 at Mon Apr 21 20:27:21 2025.
