 Gaussian 16, Revision A.03,
 Gaussian 16:  ES64L-G16RevA.03 25-Dec-2016

 --------------------------------------------
 #p opt UM062X/6-311+G** nosymm int=superfine
 --------------------------------------------

 -------------------
 Title Card Required
 -------------------
 Symbolic Z-matrix:
 Charge =  0 Multiplicity = 3

 SCF Done:  E(UM062X) =  -39.1366287883     A.U. after   10 cycles
 SCF Done:  E(UM062X) =  -39.1412474861     A.U. after   10 cycles
 SCF Done:  E(UM062X) =  -39.1418933584     A.U. after   10 cycles
 SCF Done:  E(UM062X) =  -39.1418943040     A.U. after    7 cycles
 Optimization completed.
    -- Stationary point found.

                          Input orientation:
 ---------------------------------------------------------------------
 Center     Atomic      Atomic             Coordinates (Angstroms)
 Number     Number       Type             X           Y           Z
 ---------------------------------------------------------------------
      1          6           0       -0.936518    0.005496    0.000008
      2          1           0       -1.401987   -0.966838   -0.000008
      3          1           0       -1.306689    1.017953    0.000086
 ---------------------------------------------------------------------

 Alpha  occ. eigenvalues --  -10.57318  -0.76758  -0.52574  -0.34342  -0.30446
 Alpha virt. eigenvalues --    0.04596   0.05773   0.08325   0.08751   0.16289
 Alpha virt. eigenvalues --    0.21420   0.43515   0.47238   0.56991   0.57891
 Alpha virt. eigenvalues --    0.67589   0.70754   1.06140   1.22563   1.25126

  Beta  occ. eigenvalues --  -10.55500  -0.67893  -0.50475
  Beta virt. eigenvalues --   -0.06205  -0.03570   0.03144   0.06531   0.13577
  Beta virt. eigenvalues --    0.14684   0.19160   0.22186   0.44452   0.44657
  Beta virt. eigenvalues --    0.58837   0.59056   0.75773   0.76282   1.19366

 Mulliken charges and spin densities:
               1          2
     1  C   -0.354691   2.063669
     2  H    0.177344  -0.031834
     3  H    0.177347  -0.031834
 Sum of Mulliken charges =  -0.00000   2.00000

 Dipole moment (field-independent basis, Debye):
    X=             -0.6858    Y=              0.0329    Z=              0.0001  Tot=              0.6866
 Quadrupole moment (field-independent basis, Debye-Ang):
   XX=             -6.4103   YY=             -5.9018   ZZ=             -8.3963
   XY=              0.0517   XZ=             -0.0001   YZ=              0.0001

 1\1\GINC-NODE02\FOpt\UM062X\6-311+G(d,p)\C1H2(3)\SZHAO\16-Apr-2025\0\\
 #p opt UM062X/6-311+G** nosymm int=superfine\\Title Card Required\\0,3
 \C,-0.9365182957,0.0054964485,0.000008004\H,-1.40198695,-0.9668380087,
 -0.0000075591\H,-1.3066891943,1.0179527102,0.0000864651\\Version=ES64L
 -G16RevA.03\HF=-39.1418943\S2=2.006279\S2-1=0.\S2A=2.000011\RMSD=7.838
 e-09\RMSF=1.007e-05\Dipole=-0.2698061,0.0129495,0.0000203\Quadrupole=0
 .3661674,0.7442014,-1.1103687,0.0384224,-0.0000748,0.0000901\PG=C01 [X
 (C1H2)]\\@

 Normal termination of Gaussian 16 at Wed Apr 16 08:38:41 2025.
