 Gaussian 16, Revision A.03,
 Gaussian 16:  ES64L-G16RevA.03 25-Dec-2016

 ---------------------------------------
 #p UM062X/6-311+G** force int=superfine
 ---------------------------------------

 -------------------
 Title Card Required
 -------------------
 Symbolic Z-matrix:
 Charge =  0 Multiplicity = 1

                         Standard orientation:
 ---------------------------------------------------------------------
 Center     Atomic      Atomic             Coordinates (Angstroms)
 Number     Number       Type             X           Y           Z
 ---------------------------------------------------------------------
      1          6           0       -0.000000    0.656243    0.000000
      2          6           0       -0.000000   -0.656243    0.000000
      3          1           0        0.922567    1.226417   -0.000000
      4          1           0       -0.922425    1.226541    0.000000
      5          1           0       -0.922567   -1.226417   -0.000000
      6          1           0        0.922425   -1.226541    0.000000
 ---------------------------------------------------------------------

 SCF Done:  E(UM062X) =  -78.5633478760     A.U. after    8 cycles

 The electronic state is 1-AG.
 Alpha  occ. eigenvalues --  -10.53640 -10.53515  -0.86486  -0.66154  -0.54452
 Alpha  occ. eigenvalues --   -0.48880  -0.41554  -0.33830
 Alpha virt. eigenvalues --    0.02986   0.03401   0.04095   0.05093   0.07673
 Alpha virt. eigenvalues --    0.08226   0.09729   0.13618   0.16054   0.17392
 Alpha virt. eigenvalues --    0.19956   0.23244   0.31502   0.36462   0.44147

  Beta  occ. eigenvalues --  -10.53640 -10.53515  -0.86486  -0.66154  -0.54452
  Beta  occ. eigenvalues --   -0.48880  -0.41554  -0.33830
  Beta virt. eigenvalues --    0.02986   0.03401   0.04095   0.05093   0.07673
  Beta virt. eigenvalues --    0.08226   0.09729   0.13618   0.16054   0.17392
  Beta virt. eigenvalues --    0.19956   0.23244   0.31502   0.36462   0.44147

 Mulliken charges and spin densities:
               1          2
     1  C   -0.294371   0.000000
     2  C   -0.294371   0.000000
     3  H    0.147177  -0.000000
     4  H    0.147193   0.000000
     5  H    0.147177  -0.000000
     6  H    0.147193   0.000000
 Sum of Mulliken charges =  -0.00000   0.00000

 Dipole moment (field-independent basis, Debye):
    X=             -0.0000    Y=             -0.0000    Z=              0.0000  Tot=              0.0000
 Quadrupole moment (field-independent basis, Debye-Ang):
   XX=            -12.3111   YY=            -12.2777   ZZ=            -15.8356
   XY=             -0.0003   XZ=              0.0000   YZ=             -0.0000

 Normal termination of Gaussian 16 at Tue Nov 19 11:44:05 2024.
