 Gaussian 16, Revision A.03,
 Gaussian 16:  ES64L-G16RevA.03 25-Dec-2016

 --------------------------------------------
 #p opt UM062X/6-311+G** nosymm int=superfine
 --------------------------------------------

 -------------------
 Title Card Required
 -------------------
 Symbolic Z-matrix:
 Charge =  1 Multiplicity = 2

 SCF Done:  E(UM062X) =  -76.1916028891     A.U. after    9 cycles
 SCF Done:  E(UM062X) =  -76.3572590470     A.U. after   10 cycles
 SCF Done:  E(UM062X) =  -76.4289109396     A.U. after   11 cycles
 SCF Done:  E(UM062X) =  -76.4305053187     A.U. after    9 cycles
 SCF Done:  E(UM062X) =  -76.4305089215     A.U. after    7 cycles
 Optimization completed.
    -- Stationary point found.

                          Input orientation:
 ---------------------------------------------------------------------
 Center     Atomic      Atomic             Coordinates (Angstroms)
 Number     Number       Type             X           Y           Z
 ---------------------------------------------------------------------
      1          6           0       -0.441153    0.000000    0.000000
      2          6           0        0.441153    0.000000    0.000000
      3          1           0       -1.510565    0.000000   -0.000000
      4          1           0        1.510564   -0.000000    0.000000
 ---------------------------------------------------------------------

 Alpha  occ. eigenvalues --  -10.91607 -10.87801  -1.33984  -0.94253  -0.91867
 Alpha  occ. eigenvalues --   -0.87399  -0.83516
 Alpha virt. eigenvalues --   -0.16417  -0.14934  -0.14856  -0.13482  -0.11953
 Alpha virt. eigenvalues --   -0.11906  -0.11531  -0.02412  -0.01504  -0.01137
 Alpha virt. eigenvalues --    0.02574   0.03914   0.16927   0.22451   0.24004

  Beta  occ. eigenvalues --  -10.91143 -10.87476  -1.27374  -0.92747  -0.90859
  Beta  occ. eigenvalues --   -0.80816
  Beta virt. eigenvalues --   -0.55196  -0.15468  -0.14124  -0.13435  -0.13150
  Beta virt. eigenvalues --   -0.12021  -0.11848  -0.11572  -0.00919  -0.00782
  Beta virt. eigenvalues --    0.00202   0.02972   0.04424   0.17369   0.22627

 Mulliken charges and spin densities:
               1          2
     1  C    0.254558   0.522874
     2  C    0.254557   0.522874
     3  H    0.245443  -0.022874
     4  H    0.245442  -0.022874
 Sum of Mulliken charges =   1.00000   1.00000

 Dipole moment (field-independent basis, Debye):
    X=             -0.0000    Y=              0.0000    Z=              0.0000  Tot=              0.0000
 Quadrupole moment (field-independent basis, Debye-Ang):
   XX=             -2.6299   YY=             -8.6828   ZZ=             -9.7356
   XY=             -0.0000   XZ=              0.0000   YZ=              0.4795

 Normal termination of Gaussian 16 at Tue Nov 19 12:44:18 2024.
