 Gaussian 16, Revision A.03,
 Gaussian 16:  ES64L-G16RevA.03 25-Dec-2016

 --------------------------------
 #p UM062X/6-311+G** Pop=NBO Read
 --------------------------------

 ------------
 NBO Analysis
 ------------
 Symbolic Z-matrix:
 Charge =  0 Multiplicity = 1

                         Standard orientation:
 ---------------------------------------------------------------------
 Center     Atomic      Atomic             Coordinates (Angstroms)
 Number     Number       Type             X           Y           Z
 ---------------------------------------------------------------------
      1          6           0        1.067929    0.024176   -0.000011
      2         15           0       -0.588247   -0.101077   -0.000042
      3          1           0        1.619983    0.957308   -0.000394
      4          1           0       -0.874548    1.292180    0.000588
      5          1           0        1.670695   -0.878393    0.000507
 ---------------------------------------------------------------------

 SCF Done:  E(UM062X) =  -381.154936659     A.U. after   11 cycles

 The electronic state is 1-A.
 Alpha  occ. eigenvalues --  -78.05185 -10.57413  -6.85995  -4.97436  -4.97394
 Alpha  occ. eigenvalues --   -4.97148  -0.82309  -0.63884  -0.51787  -0.43697
 Alpha  occ. eigenvalues --   -0.33521  -0.32574
 Alpha virt. eigenvalues --   -0.03586   0.01097   0.03644   0.05206   0.06022
 Alpha virt. eigenvalues --    0.06705   0.08932   0.11748   0.11773   0.16486
 Alpha virt. eigenvalues --    0.19712   0.23800   0.26035   0.43798   0.46239

  Beta  occ. eigenvalues --  -78.05185 -10.57413  -6.85995  -4.97436  -4.97394
  Beta  occ. eigenvalues --   -4.97148  -0.82309  -0.63884  -0.51787  -0.43697
  Beta  occ. eigenvalues --   -0.33521  -0.32574
  Beta virt. eigenvalues --   -0.03586   0.01097   0.03644   0.05206   0.06022
  Beta virt. eigenvalues --    0.06705   0.08932   0.11748   0.11773   0.16486
  Beta virt. eigenvalues --    0.19712   0.23800   0.26035   0.43798   0.46239

 Mulliken charges and spin densities:
               1          2
     1  C   -0.455537  -0.000000
     2  P    0.193243   0.000000
     3  H    0.165297   0.000000
     4  H   -0.065965  -0.000000
     5  H    0.162963  -0.000000
 Sum of Mulliken charges =   0.00000  -0.00000

 Dipole moment (field-independent basis, Debye):
    X=              0.7409    Y=              0.6302    Z=             -0.0001  Tot=              0.9727
 Quadrupole moment (field-independent basis, Debye-Ang):
   XX=            -19.6133   YY=            -20.1288   ZZ=            -21.9254
   XY=             -1.0587   XZ=              0.0003   YZ=             -0.0006

 Summary of Natural Population Analysis:

                                       Natural Population
                Natural  -----------------------------------------------
    Atom  No    Charge         Core      Valence    Rydberg      Total
 -----------------------------------------------------------------------
      C    1   -0.43442      0.99985     2.42768    0.00689     3.43442
      P    2    0.20666      4.99927     2.27173    0.02235     7.29334
      H    3    0.12450      0.00000     0.37455    0.00094     0.37550
      H    4   -0.02248      0.00000     0.52062    0.00186     0.52248
      H    5    0.12574      0.00000     0.37375    0.00051     0.37426
 =======================================================================
   * Total *    0.00000      5.99912     5.96834    0.03255    12.00000

 Normal termination of Gaussian 16 at Wed Apr 16 03:42:31 2025.
