 Gaussian 16, Revision A.03,
 Gaussian 16:  ES64L-G16RevA.03 25-Dec-2016

 --------------------------------------------
 #p opt UM062X/6-311+G** nosymm int=superfine
 --------------------------------------------

 -------------------
 Title Card Required
 -------------------
 Symbolic Z-matrix:
 Charge =  1 Multiplicity = 2

 SCF Done:  E(UM062X) =  -80.1671195365     A.U. after   38 cycles
 SCF Done:  E(UM062X) =  -80.1679164816     A.U. after   11 cycles
 SCF Done:  E(UM062X) =  -80.1679191999     A.U. after   10 cycles
 SCF Done:  E(UM062X) =  -80.1679193456     A.U. after   10 cycles
 SCF Done:  E(UM062X) =  -80.1703087922     A.U. after   16 cycles
 SCF Done:  E(UM062X) =  -80.1720236411     A.U. after   15 cycles
 SCF Done:  E(UM062X) =  -80.1726592048     A.U. after   14 cycles
 SCF Done:  E(UM062X) =  -80.1726838536     A.U. after   12 cycles
 SCF Done:  E(UM062X) =  -80.1726841038     A.U. after   11 cycles
 SCF Done:  E(UM062X) =  -80.1726840791     A.U. after   10 cycles
 SCF Done:  E(UM062X) =  -80.1741377888     A.U. after   17 cycles
 SCF Done:  E(UM062X) =  -80.1759350812     A.U. after   16 cycles
 SCF Done:  E(UM062X) =  -80.1788427552     A.U. after   15 cycles
 SCF Done:  E(UM062X) =  -80.1807961992     A.U. after   16 cycles
 SCF Done:  E(UM062X) =  -80.1817185714     A.U. after   16 cycles
 SCF Done:  E(UM062X) =  -80.1817584820     A.U. after   13 cycles
 SCF Done:  E(UM062X) =  -80.1817640560     A.U. after   12 cycles
 SCF Done:  E(UM062X) =  -80.1817656917     A.U. after   11 cycles
 Optimization completed.
    -- Stationary point found.

                          Input orientation:
 ---------------------------------------------------------------------
 Center     Atomic      Atomic             Coordinates (Angstroms)
 Number     Number       Type             X           Y           Z
 ---------------------------------------------------------------------
      1          5           0       -1.327734    0.000000    0.000000
      2          7           0        1.327734    0.000000    0.000000
      3          1           0       -1.583761   -0.696321    0.939882
      4          1           0        2.287793    0.230596   -0.311779
 ---------------------------------------------------------------------

 Alpha  occ. eigenvalues --  -15.04241  -7.50318  -1.16383  -0.83584  -0.71166
 Alpha  occ. eigenvalues --   -0.63019  -0.62848
 Alpha virt. eigenvalues --   -0.40887  -0.31899  -0.29868  -0.14322  -0.10734
 Alpha virt. eigenvalues --   -0.09520  -0.09031  -0.07373  -0.04734  -0.01197
 Alpha virt. eigenvalues --   -0.01169   0.04027   0.06283   0.08247   0.14814

  Beta  occ. eigenvalues --  -15.01678  -7.51548  -1.03312  -0.87040  -0.67648
  Beta  occ. eigenvalues --   -0.63166
  Beta virt. eigenvalues --   -0.34087  -0.32346  -0.26254  -0.26249  -0.13897
  Beta virt. eigenvalues --   -0.10863  -0.09682  -0.09068  -0.06225  -0.04080
  Beta virt. eigenvalues --    0.00109   0.00194   0.02379   0.06927   0.15191

 Mulliken charges and spin densities:
               1          2
     1  B    0.672036  -0.865481
     2  N   -0.190825   2.047490
     3  H    0.196207  -0.123981
     4  H    0.322582  -0.058027
 Sum of Mulliken charges =   1.00000   1.00000

 Dipole moment (field-independent basis, Debye):
    X=             -2.7853    Y=             -0.0494    Z=              0.0658  Tot=              2.7865
 Quadrupole moment (field-independent basis, Debye-Ang):
   XX=              5.2418   YY=            -10.1503   ZZ=            -10.1043
   XY=              1.5380   XZ=             -2.0780   YZ=             -0.0750

 Normal termination of Gaussian 16 at Mon Apr 21 18:00:23 2025.
