 Gaussian 16, Revision A.03,
 Gaussian 16:  ES64L-G16RevA.03 25-Dec-2016

 --------------------------------------------
 #p opt UM062X/6-311+G** nosymm int=superfine
 --------------------------------------------

 -------------------
 Title Card Required
 -------------------
 Symbolic Z-matrix:
 Charge =  0 Multiplicity = 1

 SCF Done:  E(UM062X) =  -582.409090376     A.U. after   10 cycles
 SCF Done:  E(UM062X) =  -582.411006066     A.U. after    8 cycles
 SCF Done:  E(UM062X) =  -582.411426263     A.U. after    9 cycles
 Optimization completed.
    -- Stationary point found.

                          Input orientation:
 ---------------------------------------------------------------------
 Center     Atomic      Atomic             Coordinates (Angstroms)
 Number     Number       Type             X           Y           Z
 ---------------------------------------------------------------------
      1         14           0       -1.969819    0.000000    0.000000
      2         14           0        1.969819    0.000000    0.000000
      3          1           0        2.388986   -1.414868   -0.000057
      4          1           0       -2.388978   -0.707322    1.225390
      5          1           0        2.389092    0.707494   -1.225251
      6          1           0        2.388985    0.707374    1.225356
      7          1           0       -2.388990    1.414867   -0.000114
      8          1           0       -2.389098   -0.707548   -1.225218
 ---------------------------------------------------------------------

 Alpha  occ. eigenvalues --  -67.01675 -67.01675  -5.56525  -5.56524  -3.87749
 Alpha  occ. eigenvalues --   -3.87749  -3.87538  -3.87538  -3.87538  -3.87538
 Alpha  occ. eigenvalues --   -0.61082  -0.60469  -0.41872  -0.41872  -0.41687
 Alpha  occ. eigenvalues --   -0.41687  -0.23710
 Alpha virt. eigenvalues --   -0.08471   0.02158   0.02913   0.02913   0.03449
 Alpha virt. eigenvalues --    0.05258   0.05258   0.05512   0.07066   0.07286
 Alpha virt. eigenvalues --    0.07286   0.08943   0.08943   0.13254   0.16463

  Beta  occ. eigenvalues --  -67.01675 -67.01675  -5.56525  -5.56524  -3.87749
  Beta  occ. eigenvalues --   -3.87749  -3.87538  -3.87538  -3.87538  -3.87538
  Beta  occ. eigenvalues --   -0.61082  -0.60469  -0.41872  -0.41872  -0.41687
  Beta  occ. eigenvalues --   -0.41687  -0.23710
  Beta virt. eigenvalues --   -0.08471   0.02158   0.02913   0.02913   0.03449
  Beta virt. eigenvalues --    0.05258   0.05258   0.05512   0.07066   0.07286
  Beta virt. eigenvalues --    0.07286   0.08943   0.08943   0.13254   0.16463

 Mulliken charges and spin densities:
               1          2
     1  Si   0.275756  -0.000000
     2  Si   0.275757   0.000000
     3  H   -0.091918  -0.000000
     4  H   -0.091919   0.000000
     5  H   -0.091919  -0.000000
     6  H   -0.091919  -0.000000
     7  H   -0.091918  -0.000000
     8  H   -0.091919  -0.000000
 Sum of Mulliken charges =  -0.00000  -0.00000

 Dipole moment (field-independent basis, Debye):
    X=              0.0000    Y=             -0.0000    Z=              0.0000  Tot=              0.0000
 Quadrupole moment (field-independent basis, Debye-Ang):
   XX=            -28.9257   YY=            -32.0259   ZZ=            -32.0259
   XY=             -0.0001   XZ=              0.0000   YZ=              0.0000

 Normal termination of Gaussian 16 at Mon Apr 21 20:20:32 2025.
