 Gaussian 16, Revision A.03,
 Gaussian 16:  ES64L-G16RevA.03 25-Dec-2016

 --------------------------------------------
 #p opt UM062X/6-311+G** nosymm int=superfine
 --------------------------------------------

 -------------------
 Title Card Required
 -------------------
 Symbolic Z-matrix:
 Charge =  0 Multiplicity = 1

 SCF Done:  E(UM062X) =  -78.3151248610     A.U. after    8 cycles
 SCF Done:  E(UM062X) =  -78.3151687136     A.U. after    6 cycles
 SCF Done:  E(UM062X) =  -78.3151857396     A.U. after    8 cycles
 Optimization completed.
    -- Stationary point found.

                          Input orientation:
 ---------------------------------------------------------------------
 Center     Atomic      Atomic             Coordinates (Angstroms)
 Number     Number       Type             X           Y           Z
 ---------------------------------------------------------------------
      1          6           0       -1.110595    0.000000    0.000000
      2          6           0        1.110595    0.000000    0.000000
      3          1           0       -1.550812   -0.983664    0.000000
      4          1           0       -1.550811    0.983658    0.000000
      5          1           0        1.550811    0.983663    0.000000
      6          1           0        1.550810   -0.983658    0.000000
 ---------------------------------------------------------------------

 Alpha  occ. eigenvalues --  -10.61983 -10.61973  -0.76674  -0.72463  -0.53175
 Alpha  occ. eigenvalues --   -0.51102  -0.35246  -0.25034
 Alpha virt. eigenvalues --   -0.08303  -0.01080   0.03366   0.05362   0.06685
 Alpha virt. eigenvalues --    0.07175   0.09292   0.10008   0.11268   0.14974
 Alpha virt. eigenvalues --    0.16352   0.19817   0.21412   0.27683   0.39282

  Beta  occ. eigenvalues --  -10.61983 -10.61973  -0.76674  -0.72463  -0.53175
  Beta  occ. eigenvalues --   -0.51102  -0.35246  -0.25034
  Beta virt. eigenvalues --   -0.08303  -0.01080   0.03366   0.05362   0.06685
  Beta virt. eigenvalues --    0.07175   0.09292   0.10008   0.11268   0.14974
  Beta virt. eigenvalues --    0.16352   0.19817   0.21412   0.27683   0.39282

 Mulliken charges and spin densities:
               1          2
     1  C   -0.371160  -0.000000
     2  C   -0.371160   0.000000
     3  H    0.185580   0.000000
     4  H    0.185580   0.000000
     5  H    0.185580  -0.000000
     6  H    0.185580  -0.000000
 Sum of Mulliken charges =  -0.00000  -0.00000

 Dipole moment (field-independent basis, Debye):
    X=             -0.0000    Y=             -0.0000    Z=              0.0000  Tot=              0.0000
 Quadrupole moment (field-independent basis, Debye-Ang):
   XX=            -10.8394   YY=            -12.0062   ZZ=            -18.5533
   XY=              0.0000   XZ=              0.0000   YZ=              0.0000

 Normal termination of Gaussian 16 at Tue Dec  3 11:04:35 2024.
