 Gaussian 16, Revision A.03,
 Gaussian 16:  ES64L-G16RevA.03 25-Dec-2016

 --------------------------------------------
 #p opt UM062X/6-311+G** nosymm int=superfine
 --------------------------------------------

 -------------------
 Title Card Required
 -------------------
 Symbolic Z-matrix:
 Charge =  0 Multiplicity = 3

 SCF Done:  E(UM062X) =  -341.858266508     A.U. after   11 cycles

 Alpha  occ. eigenvalues --  -78.04810  -6.86734  -4.99044  -4.99044  -4.98036
 Alpha  occ. eigenvalues --   -0.69960  -0.40427  -0.30268  -0.30267
 Alpha virt. eigenvalues --    0.03842   0.05016   0.05350   0.05360   0.08639
 Alpha virt. eigenvalues --    0.30720   0.32795   0.32800   0.40145   0.51331
 Alpha virt. eigenvalues --    0.64548   0.64549   0.66986   0.66987   0.89515

  Beta  occ. eigenvalues --  -78.03375  -6.86285  -4.97559  -4.96810  -4.96810
  Beta  occ. eigenvalues --   -0.61798  -0.37343
  Beta virt. eigenvalues --   -0.08850  -0.08850   0.00742   0.04474   0.07494
  Beta virt. eigenvalues --    0.07494   0.09095   0.29062   0.29556   0.29556
  Beta virt. eigenvalues --    0.41526   0.53155   0.71545   0.71545   0.78950

 Mulliken charges and spin densities:
               1          2
     1  P    0.033419   2.052722
     2  H   -0.033419  -0.052722
 Sum of Mulliken charges =   0.00000   2.00000

 Dipole moment (field-independent basis, Debye):
    X=              0.0508    Y=              0.6991    Z=             -0.0000  Tot=              0.7010
 Quadrupole moment (field-independent basis, Debye-Ang):
   XX=            -14.2755   YY=            -14.1684   ZZ=            -14.3791
   XY=              0.7210   XZ=             -0.0000   YZ=             -0.0000

 Optimization completed.
    -- Stationary point found.

                          Input orientation:
 ---------------------------------------------------------------------
 Center     Atomic      Atomic             Coordinates (Angstroms)
 Number     Number       Type             X           Y           Z
 ---------------------------------------------------------------------
      1         15           0        1.009490    0.000000    0.000000
      2          1           0        1.112351    1.417255    0.000000
 ---------------------------------------------------------------------

 1\1\GINC-NODE02\FOpt\UM062X\6-311+G(d,p)\H1P1(3)\SZHAO\16-Apr-2025\0\\
 #p opt UM062X/6-311+G** nosymm int=superfine\\Title Card Required\\0,3
 \P,1.00948966,0.,0.\H,1.11235064,1.4172551,0.\\Version=ES64L-G16RevA.0
 3\HF=-341.8582665\S2=2.006858\S2-1=0.\S2A=2.000012\RMSD=2.521e-09\RMSF
 =3.457e-05\Dipole=0.0199808,0.2750576,0.\Quadrupole=-0.0008698,0.07874
 97,-0.0778799,0.5360827,0.,0.\PG=C*V [C*(H1P1)]\\@

 Normal termination of Gaussian 16 at Wed Apr 16 08:59:59 2025.
