 Gaussian 16, Revision A.03,
 Gaussian 16:  ES64L-G16RevA.03 25-Dec-2016

 --------------------------------------------
 #p opt UM062X/6-311+G** nosymm int=superfine
 --------------------------------------------

 -------------------
 Title Card Required
 -------------------
 Symbolic Z-matrix:
 Charge =  1 Multiplicity = 2

 SCF Done:  E(UM062X) =  -79.3430897407     A.U. after   10 cycles
 SCF Done:  E(UM062X) =  -79.3430962488     A.U. after    8 cycles
 Optimization completed.
    -- Stationary point found.

                          Input orientation:
 ---------------------------------------------------------------------
 Center     Atomic      Atomic             Coordinates (Angstroms)
 Number     Number       Type             X           Y           Z
 ---------------------------------------------------------------------
      1          6           0       -1.455205    0.000000    0.000000
      2          6           0        1.455205    0.000000    0.000000
      3          1           0        1.511327   -0.936995    0.542303
      4          1           0       -1.510125   -0.938109   -0.540498
      5          1           0        1.510826    0.938197    0.540275
      6          1           0        1.510214   -0.001153   -1.082666
      7          1           0       -1.511360    0.937082   -0.542151
      8          1           0       -1.510871    0.000927    1.082633
 ---------------------------------------------------------------------

 Alpha  occ. eigenvalues --  -10.85221 -10.85217  -1.04551  -1.02629  -0.75075
 Alpha  occ. eigenvalues --   -0.75074  -0.74120  -0.74120  -0.53604
 Alpha virt. eigenvalues --   -0.34707  -0.14351  -0.10367  -0.10367  -0.10115
 Alpha virt. eigenvalues --   -0.06217  -0.06217  -0.05565  -0.03189  -0.02582
 Alpha virt. eigenvalues --   -0.02580   0.01404   0.01406   0.05233   0.07552

  Beta  occ. eigenvalues --  -10.85024 -10.85024  -1.01575  -1.00242  -0.74491
  Beta  occ. eigenvalues --   -0.74490  -0.73612  -0.73612
  Beta virt. eigenvalues --   -0.32829  -0.25069  -0.15443  -0.11124  -0.11124
  Beta virt. eigenvalues --   -0.09860  -0.06476  -0.06476  -0.05644  -0.02747
  Beta virt. eigenvalues --   -0.02745  -0.02358   0.01734   0.01736   0.06066

 Mulliken charges and spin densities:
               1          2
     1  C   -0.274787   0.570439
     2  C   -0.274788   0.570440
     3  H    0.258292  -0.023473
     4  H    0.258244  -0.023469
     5  H    0.258271  -0.023472
     6  H    0.258225  -0.023494
     7  H    0.258293  -0.023473
     8  H    0.258251  -0.023497
 Sum of Mulliken charges =   1.00000   1.00000

 Dipole moment (field-independent basis, Debye):
    X=             -0.0000    Y=             -0.0000    Z=             -0.0001  Tot=              0.0001
 Quadrupole moment (field-independent basis, Debye-Ang):
   XX=             -1.0014   YY=            -11.0099   ZZ=            -11.0101
   XY=             -0.0013   XZ=              0.0007   YZ=             -0.0000

 Normal termination of Gaussian 16 at Wed Nov 13 12:34:14 2024.
