 Gaussian 16, Revision A.03,
 Gaussian 16:  ES64L-G16RevA.03 25-Dec-2016

 ---------------------------------------
 #p UM062X/6-311+G** force int=superfine
 ---------------------------------------

 -------------------
 Title Card Required
 -------------------
 Symbolic Z-matrix:
 Charge =  1 Multiplicity = 2

                         Standard orientation:
 ---------------------------------------------------------------------
 Center     Atomic      Atomic             Coordinates (Angstroms)
 Number     Number       Type             X           Y           Z
 ---------------------------------------------------------------------
      1          6           0       -0.855412    0.000056    0.031756
      2          6           0        0.855416   -0.000051   -0.031753
      3          1           0        1.271232   -0.922183    0.358902
      4          1           0       -1.270755   -0.924961   -0.352544
      5          1           0        1.270660    0.925073    0.352392
      6          1           0        0.654755   -0.004441   -1.131765
      7          1           0       -1.271127    0.922287   -0.358776
      8          1           0       -0.654791    0.004191    1.131772
 ---------------------------------------------------------------------

 SCF Done:  E(UM062X) =  -79.3708075731     A.U. after   12 cycles

 The electronic state is 2-A.
 Alpha  occ. eigenvalues --  -10.85951 -10.85931  -1.15539  -0.99838  -0.82098
 Alpha  occ. eigenvalues --   -0.79882  -0.74834  -0.72321  -0.64263
 Alpha virt. eigenvalues --   -0.17151  -0.15340  -0.11813  -0.11482  -0.09660
 Alpha virt. eigenvalues --   -0.08498  -0.07551  -0.06453  -0.05732  -0.02101
 Alpha virt. eigenvalues --   -0.01393  -0.00711   0.02243   0.03655   0.03727

  Beta  occ. eigenvalues --  -10.85702 -10.85689  -1.12543  -0.96687  -0.79021
  Beta  occ. eigenvalues --   -0.78321  -0.73412  -0.71713
  Beta virt. eigenvalues --   -0.41746  -0.16754  -0.14051  -0.11371  -0.11346
  Beta virt. eigenvalues --   -0.09399  -0.07673  -0.06545  -0.05549  -0.05414
  Beta virt. eigenvalues --   -0.01675  -0.00902  -0.00132   0.02776   0.04279

 Mulliken charges and spin densities:
               1          2
     1  C   -0.336492   0.459903
     2  C   -0.336477   0.459927
     3  H    0.275359  -0.021927
     4  H    0.275316  -0.021922
     5  H    0.275320  -0.021923
     6  H    0.285807   0.083934
     7  H    0.275360  -0.021925
     8  H    0.285807   0.083933
 Sum of Mulliken charges =   1.00000   1.00000

 Dipole moment (field-independent basis, Debye):
    X=              0.0000    Y=             -0.0001    Z=             -0.0000  Tot=              0.0001
 Quadrupole moment (field-independent basis, Debye-Ang):
   XX=             -7.7148   YY=            -10.8251   ZZ=            -10.3380
   XY=             -0.0006   XZ=             -0.0029   YZ=              0.0036

 Normal termination of Gaussian 16 at Tue Nov 19 08:43:59 2024.
