 Gaussian 16, Revision A.03,
 Gaussian 16:  ES64L-G16RevA.03 25-Dec-2016

 --------------------------------------------
 #p opt UM062X/6-311+G** nosymm int=superfine
 --------------------------------------------

 -------------------
 Title Card Required
 -------------------
 Symbolic Z-matrix:
 Charge =  0 Multiplicity = 1

 SCF Done:  E(UM062X) =  -51.8909523680     A.U. after    8 cycles
 SCF Done:  E(UM062X) =  -51.8936848376     A.U. after    8 cycles
 SCF Done:  E(UM062X) =  -51.8947877826     A.U. after    9 cycles
 SCF Done:  E(UM062X) =  -51.8947851329     A.U. after    8 cycles
 SCF Done:  E(UM062X) =  -51.8947870563     A.U. after    8 cycles
 SCF Done:  E(UM062X) =  -51.8947881250     A.U. after    8 cycles
 SCF Done:  E(UM062X) =  -51.8947882717     A.U. after    7 cycles
 Optimization completed.
    -- Stationary point found.

                          Input orientation:
 ---------------------------------------------------------------------
 Center     Atomic      Atomic             Coordinates (Angstroms)
 Number     Number       Type             X           Y           Z
 ---------------------------------------------------------------------
      1          5           0       -1.370607    0.000000    0.000000
      2          5           0        1.370607    0.000000    0.000000
      3          1           0       -1.897845   -1.058518   -0.003330
      4          1           0        1.897845    1.058485   -0.008993
      5          1           0       -1.897845    1.058518    0.003398
      6          1           0        1.897845   -1.058486    0.008918
 ---------------------------------------------------------------------

 Alpha  occ. eigenvalues --   -7.09622  -7.09618  -0.57563  -0.55828  -0.43482
 Alpha  occ. eigenvalues --   -0.42580  -0.25695
 Alpha virt. eigenvalues --   -0.05766  -0.01659   0.00760   0.02304   0.03966
 Alpha virt. eigenvalues --    0.05136   0.05982   0.06184   0.07294   0.08036
 Alpha virt. eigenvalues --    0.10789   0.15963   0.17364   0.18236   0.26208

  Beta  occ. eigenvalues --   -7.09622  -7.09618  -0.57563  -0.55828  -0.43482
  Beta  occ. eigenvalues --   -0.42580  -0.25695
  Beta virt. eigenvalues --   -0.05766  -0.01659   0.00760   0.02304   0.03966
  Beta virt. eigenvalues --    0.05136   0.05982   0.06184   0.07294   0.08036
  Beta virt. eigenvalues --    0.10789   0.15963   0.17364   0.18236   0.26208

 Mulliken charges and spin densities:
               1          2
     1  B   -0.044516  -0.000000
     2  B   -0.044517  -0.000000
     3  H    0.022258   0.000000
     4  H    0.022258  -0.000000
     5  H    0.022258   0.000000
     6  H    0.022258   0.000000
 Sum of Mulliken charges =  -0.00000  -0.00000

 Dipole moment (field-independent basis, Debye):
    X=             -0.0000    Y=              0.0000    Z=              0.0000  Tot=              0.0000
 Quadrupole moment (field-independent basis, Debye-Ang):
   XX=            -15.2213   YY=            -16.8724   ZZ=            -13.7097
   XY=              0.0000   XZ=              0.0002   YZ=              0.0084

 Normal termination of Gaussian 16 at Mon Apr 21 17:08:41 2025.
