 Gaussian 16, Revision A.03,
 Gaussian 16:  ES64L-G16RevA.03 25-Dec-2016

 --------------------------------------------
 #p opt UM062X/6-311+G** nosymm int=superfine
 --------------------------------------------

 -------------------
 Title Card Required
 -------------------
 Symbolic Z-matrix:
 Charge =  0 Multiplicity = 1

 SCF Done:  E(UM062X) =  -382.413525776     A.U. after   11 cycles
 SCF Done:  E(UM062X) =  -382.414343455     A.U. after    9 cycles
 SCF Done:  E(UM062X) =  -382.414414885     A.U. after    9 cycles
 SCF Done:  E(UM062X) =  -382.414416305     A.U. after    7 cycles
 Optimization completed.
    -- Stationary point found.

                          Input orientation:
 ---------------------------------------------------------------------
 Center     Atomic      Atomic             Coordinates (Angstroms)
 Number     Number       Type             X           Y           Z
 ---------------------------------------------------------------------
      1          6           0       -1.031264    0.000000    0.000000
      2         15           0        1.031264    0.000000    0.000000
      3          1           0        1.149094   -1.411753    0.011631
      4          1           0       -1.349451    1.017852    0.212992
      5          1           0        1.149112    0.098111    1.408380
      6          1           0       -1.349479   -0.291772   -0.998115
      7          1           0       -1.404149   -0.692759    0.749132
 ---------------------------------------------------------------------

 Alpha  occ. eigenvalues --  -78.01982 -10.54690  -6.84461  -4.96019  -4.96011
 Alpha  occ. eigenvalues --   -4.95765  -0.79784  -0.68083  -0.48621  -0.48093
 Alpha  occ. eigenvalues --   -0.42459  -0.38357  -0.31050
 Alpha virt. eigenvalues --    0.00505   0.02044   0.03933   0.04479   0.06478
 Alpha virt. eigenvalues --    0.06534   0.08055   0.08276   0.08369   0.13588
 Alpha virt. eigenvalues --    0.18109   0.18574   0.18962   0.27870   0.30205

  Beta  occ. eigenvalues --  -78.01982 -10.54690  -6.84461  -4.96019  -4.96011
  Beta  occ. eigenvalues --   -4.95765  -0.79784  -0.68083  -0.48621  -0.48093
  Beta  occ. eigenvalues --   -0.42459  -0.38357  -0.31050
  Beta virt. eigenvalues --    0.00505   0.02044   0.03933   0.04479   0.06478
  Beta virt. eigenvalues --    0.06534   0.08055   0.08276   0.08369   0.13588
  Beta virt. eigenvalues --    0.18109   0.18574   0.18962   0.27870   0.30205

 Mulliken charges and spin densities:
               1          2
     1  C   -0.575448  -0.000000
     2  P    0.019211   0.000000
     3  H    0.008218   0.000000
     4  H    0.179524   0.000000
     5  H    0.008217  -0.000000
     6  H    0.179523   0.000000
     7  H    0.180755   0.000000
 Sum of Mulliken charges =  -0.00000  -0.00000

 Dipole moment (field-independent basis, Debye):
    X=             -0.7484    Y=             -0.4982    Z=              0.5386  Tot=              1.0481
 Quadrupole moment (field-independent basis, Debye-Ang):
   XX=            -23.2750   YY=            -21.9987   ZZ=            -22.1183
   XY=             -1.1221   XZ=              1.2130   YZ=              0.7674

 Normal termination of Gaussian 16 at Mon Apr 21 19:03:26 2025.
