 Gaussian 16, Revision A.03,
 Gaussian 16:  ES64L-G16RevA.03 25-Dec-2016

 ---------------------------------------
 #p UM062X/6-311+G** force int=superfine
 ---------------------------------------

 -------------------
 Title Card Required
 -------------------
 Symbolic Z-matrix:
 Charge =  1 Multiplicity = 2

                         Standard orientation:
 ---------------------------------------------------------------------
 Center     Atomic      Atomic             Coordinates (Angstroms)
 Number     Number       Type             X           Y           Z
 ---------------------------------------------------------------------
      1          6           0        0.000000    0.911891    0.000000
      2          6           0       -0.000000   -0.911891    0.000000
      3          1           0       -0.968213    1.400947    0.000000
      4          1           0        0.968149    1.400978    0.000000
      5          1           0        0.968213   -1.400947    0.000000
      6          1           0       -0.968149   -1.400978    0.000000
 ---------------------------------------------------------------------

 SCF Done:  E(UM062X) =  -78.1118672510     A.U. after    9 cycles

 The electronic state is 2-AU.
 Alpha  occ. eigenvalues --  -10.91737 -10.91714  -1.09315  -0.99455  -0.81521
 Alpha  occ. eigenvalues --   -0.76474  -0.71138  -0.58885
 Alpha virt. eigenvalues --   -0.34838  -0.18374  -0.14346  -0.11247  -0.09038
 Alpha virt. eigenvalues --   -0.08720  -0.07356  -0.07338  -0.04714  -0.04408
 Alpha virt. eigenvalues --   -0.01957  -0.01241   0.02503   0.09630   0.18387

  Beta  occ. eigenvalues --  -10.91507 -10.91493  -1.06021  -0.97316  -0.80846
  Beta  occ. eigenvalues --   -0.76123  -0.69824
  Beta virt. eigenvalues --   -0.37107  -0.26572  -0.16271  -0.15857  -0.11619
  Beta virt. eigenvalues --   -0.08501  -0.08492  -0.07944  -0.07324  -0.04441
  Beta virt. eigenvalues --   -0.04010  -0.01551  -0.00625   0.01838   0.10225

 Mulliken charges and spin densities:
               1          2
     1  C   -0.064358   0.540309
     2  C   -0.064358   0.540309
     3  H    0.282180  -0.020155
     4  H    0.282178  -0.020154
     5  H    0.282180  -0.020155
     6  H    0.282178  -0.020154
 Sum of Mulliken charges =   1.00000   1.00000

 Dipole moment (field-independent basis, Debye):
    X=              0.0000    Y=              0.0000    Z=              0.0000  Tot=              0.0000
 Quadrupole moment (field-independent basis, Debye-Ang):
   XX=             -8.2655   YY=             -3.3688   ZZ=            -12.2430
   XY=             -0.0001   XZ=              0.0000   YZ=              0.0000

 Normal termination of Gaussian 16 at Tue Nov 19 11:55:41 2024.
