 Gaussian 16, Revision A.03,
 Gaussian 16:  ES64L-G16RevA.03 25-Dec-2016

 --------------------------------------------
 #p opt UM062X/6-311+G** nosymm int=superfine
 --------------------------------------------

 -------------------
 Title Card Required
 -------------------
 Symbolic Z-matrix:
 Charge = -1 Multiplicity = 2

 SCF Done:  E(UM062X) =  -53.2011690181     A.U. after   11 cycles
 SCF Done:  E(UM062X) =  -53.2052170651     A.U. after   11 cycles
 SCF Done:  E(UM062X) =  -53.2061019136     A.U. after   10 cycles
 SCF Done:  E(UM062X) =  -53.2061065046     A.U. after    8 cycles
 Optimization completed.
    -- Stationary point found.

                          Input orientation:
 ---------------------------------------------------------------------
 Center     Atomic      Atomic             Coordinates (Angstroms)
 Number     Number       Type             X           Y           Z
 ---------------------------------------------------------------------
      1          5           0       -2.040672    0.000000    0.000000
      2          5           0        2.040672    0.000000    0.000000
      3          1           0        2.106524   -1.196900   -0.000015
      4          1           0       -2.106364   -0.598447    1.036561
      5          1           0        2.106522    0.598466   -1.036541
      6          1           0        2.106302    0.598434    1.036572
      7          1           0       -2.106532    1.196900   -0.000001
      8          1           0       -2.106452   -0.598453   -1.036553
 ---------------------------------------------------------------------

 Alpha  occ. eigenvalues --   -6.84615  -6.84614  -0.39996  -0.39490  -0.21821
 Alpha  occ. eigenvalues --   -0.21821  -0.21582  -0.21581   0.01117
 Alpha virt. eigenvalues --    0.11540   0.16804   0.17715   0.17715   0.18316
 Alpha virt. eigenvalues --    0.18316   0.19149   0.22919   0.23932   0.32860
 Alpha virt. eigenvalues --    0.32860   0.34397   0.34398   0.36505   0.38791

  Beta  occ. eigenvalues --   -6.84577  -6.84577  -0.38254  -0.37924  -0.21657
  Beta  occ. eigenvalues --   -0.21657  -0.21409  -0.21409
  Beta virt. eigenvalues --    0.10501   0.13420   0.13623   0.14981   0.14981
  Beta virt. eigenvalues --    0.17835   0.17835   0.21108   0.22178   0.25148
  Beta virt. eigenvalues --    0.31789   0.31789   0.33591   0.33592   0.35144

 Mulliken charges and spin densities:
               1          2
     1  B   -0.346356   0.559057
     2  B   -0.346356   0.559058
     3  H   -0.051225  -0.019695
     4  H   -0.051208  -0.019681
     5  H   -0.051214  -0.019681
     6  H   -0.051205  -0.019682
     7  H   -0.051226  -0.019695
     8  H   -0.051211  -0.019681
 Sum of Mulliken charges =  -1.00000   1.00000

 Dipole moment (field-independent basis, Debye):
    X=             -0.0000    Y=             -0.0000    Z=              0.0001  Tot=              0.0001
 Quadrupole moment (field-independent basis, Debye-Ang):
   XX=            -44.0291   YY=            -24.3125   ZZ=            -24.3124
   XY=              0.0001   XZ=              0.0000   YZ=              0.0000

 Normal termination of Gaussian 16 at Mon Apr 21 16:55:38 2025.
