 Gaussian 16, Revision A.03,
 Gaussian 16:  ES64L-G16RevA.03 25-Dec-2016

 ---------------------------------------
 #p UM062X/6-311+G** force int=superfine
 ---------------------------------------

 -------------------
 Title Card Required
 -------------------
 Symbolic Z-matrix:
 Charge =  1 Multiplicity = 2

                         Standard orientation:
 ---------------------------------------------------------------------
 Center     Atomic      Atomic             Coordinates (Angstroms)
 Number     Number       Type             X           Y           Z
 ---------------------------------------------------------------------
      1          6           0        1.241205   -0.000037   -0.000017
      2          6           0       -1.241205    0.000043    0.000005
      3          1           0       -1.323497   -0.982510   -0.450845
      4          1           0        1.322683   -0.881745    0.625603
      5          1           0       -1.323151    0.881834   -0.625439
      6          1           0       -1.322769    0.100868    1.076401
      7          1           0        1.323521    0.982568    0.450714
      8          1           0        1.323212   -0.101048   -1.076361
 ---------------------------------------------------------------------

 SCF Done:  E(UM062X) =  -79.3575865095     A.U. after    9 cycles

 The electronic state is 2-A.
 Alpha  occ. eigenvalues --  -10.85707 -10.85702  -1.06604  -1.02466  -0.76456
 Alpha  occ. eigenvalues --   -0.76456  -0.74254  -0.74253  -0.57365
 Alpha virt. eigenvalues --   -0.31347  -0.15344  -0.10643  -0.10643  -0.09990
 Alpha virt. eigenvalues --   -0.06367  -0.06225  -0.06225  -0.04020  -0.04018
 Alpha virt. eigenvalues --   -0.02778   0.01620   0.01621   0.05329   0.07362

  Beta  occ. eigenvalues --  -10.85507 -10.85507  -1.03340  -0.99974  -0.75704
  Beta  occ. eigenvalues --   -0.75703  -0.73664  -0.73663
  Beta virt. eigenvalues --   -0.34888  -0.22565  -0.15654  -0.11092  -0.11092
  Beta virt. eigenvalues --   -0.09443  -0.06570  -0.06569  -0.06360  -0.03838
  Beta virt. eigenvalues --   -0.03836  -0.02025   0.02063   0.02064   0.05757

 Mulliken charges and spin densities:
               1          2
     1  C   -0.288915   0.572844
     2  C   -0.288917   0.572844
     3  H    0.262988  -0.024285
     4  H    0.262960  -0.024266
     5  H    0.262979  -0.024274
     6  H    0.262950  -0.024285
     7  H    0.262989  -0.024285
     8  H    0.262967  -0.024293
 Sum of Mulliken charges =   1.00000   1.00000

 Dipole moment (field-independent basis, Debye):
    X=              0.0000    Y=             -0.0000    Z=              0.0000  Tot=              0.0000
 Quadrupole moment (field-independent basis, Debye-Ang):
   XX=             -3.9199   YY=            -10.9223   ZZ=            -10.9226
   XY=              0.0006   XZ=              0.0003   YZ=              0.0000

 Normal termination of Gaussian 16 at Wed Nov 13 13:00:54 2024.
