 Gaussian 16, Revision A.03,
 Gaussian 16:  ES64L-G16RevA.03 25-Dec-2016

 --------------------------------------------
 #p opt UM062X/6-311+G** nosymm int=superfine
 --------------------------------------------

 -------------------
 Title Card Required
 -------------------
 Symbolic Z-matrix:
 Charge =  0 Multiplicity = 1

 SCF Done:  E(UM062X) =  -76.9420008973     A.U. after   13 cycles
 SCF Done:  E(UM062X) =  -76.9431291451     A.U. after   13 cycles
 SCF Done:  E(UM062X) =  -76.9435397492     A.U. after   13 cycles
 SCF Done:  E(UM062X) =  -76.9436789014     A.U. after   12 cycles
 SCF Done:  E(UM062X) =  -76.9436789999     A.U. after   10 cycles
 Optimization completed.
    -- Stationary point found.

                          Input orientation:
 ---------------------------------------------------------------------
 Center     Atomic      Atomic             Coordinates (Angstroms)
 Number     Number       Type             X           Y           Z
 ---------------------------------------------------------------------
      1          6           0       -1.332625    0.000000    0.000000
      2          6           0        1.332625    0.000000    0.000000
      3          1           0       -1.282219    0.185053    1.101114
      4          1           0        1.282395    0.982173   -0.531095
 ---------------------------------------------------------------------

 Alpha  occ. eigenvalues --  -10.66937 -10.66933  -0.73772  -0.70656  -0.38766
 Alpha  occ. eigenvalues --   -0.38480  -0.27340
 Alpha virt. eigenvalues --   -0.09930  -0.08903  -0.06434   0.02911   0.05657
 Alpha virt. eigenvalues --    0.07463   0.07604   0.09906   0.09994   0.10508
 Alpha virt. eigenvalues --    0.15140   0.17183   0.20261   0.44627   0.46658

  Beta  occ. eigenvalues --  -10.66937 -10.66933  -0.73772  -0.70656  -0.38766
  Beta  occ. eigenvalues --   -0.38480  -0.27340
  Beta virt. eigenvalues --   -0.09930  -0.08903  -0.06434   0.02911   0.05657
  Beta virt. eigenvalues --    0.07463   0.07604   0.09906   0.09994   0.10508
  Beta virt. eigenvalues --    0.15140   0.17183   0.20261   0.44627   0.46658

 Mulliken charges and spin densities:
               1          2
     1  C   -0.137091  -0.000000
     2  C   -0.137126   0.000000
     3  H    0.137109   0.000000
     4  H    0.137108  -0.000000
 Sum of Mulliken charges =  -0.00000  -0.00000

 Dipole moment (field-independent basis, Debye):
    X=              0.0001    Y=              1.6464    Z=              0.8041  Tot=              1.8323
 Quadrupole moment (field-independent basis, Debye-Ang):
   XX=            -17.0504   YY=            -12.8625   ZZ=            -13.4018
   XY=              1.5961   XZ=             -3.2680   YZ=              0.3459

 Normal termination of Gaussian 16 at Tue Dec  3 21:47:45 2024.
