 Gaussian 16, Revision A.03,
 Gaussian 16:  ES64L-G16RevA.03 25-Dec-2016

 --------------------------------------------
 #p opt UM062X/6-311+G** nosymm int=superfine
 --------------------------------------------

 -------------------
 Title Card Required
 -------------------
 Symbolic Z-matrix:
 Charge =  0 Multiplicity = 1

 SCF Done:  E(UM062X) =  -579.896482917     A.U. after    9 cycles
 SCF Done:  E(UM062X) =  -579.899825221     A.U. after    9 cycles
 SCF Done:  E(UM062X) =  -579.899836314     A.U. after    7 cycles
 Optimization completed.
    -- Stationary point found.

                          Input orientation:
 ---------------------------------------------------------------------
 Center     Atomic      Atomic             Coordinates (Angstroms)
 Number     Number       Type             X           Y           Z
 ---------------------------------------------------------------------
      1         14           0       -1.728705    0.000000    0.000000
      2         14           0        1.728705    0.000000    0.000000
      3          1           0       -3.260685   -0.000008    0.000000
      4          1           0        3.260685    0.000060   -0.000000
 ---------------------------------------------------------------------

 Alpha  occ. eigenvalues --  -67.04386 -67.04386  -5.58803  -5.58802  -3.89892
 Alpha  occ. eigenvalues --   -3.89891  -3.89446  -3.89446  -3.89324  -3.89324
 Alpha  occ. eigenvalues --   -0.55181  -0.54147  -0.35481  -0.29360  -0.19103
 Alpha virt. eigenvalues --   -0.09919  -0.09356  -0.07496   0.02279   0.02992
 Alpha virt. eigenvalues --    0.04521   0.05182   0.05722   0.06073   0.07104
 Alpha virt. eigenvalues --    0.08638   0.09716   0.20067   0.29239   0.29593

  Beta  occ. eigenvalues --  -67.04386 -67.04386  -5.58803  -5.58802  -3.89892
  Beta  occ. eigenvalues --   -3.89891  -3.89446  -3.89446  -3.89324  -3.89324
  Beta  occ. eigenvalues --   -0.55181  -0.54147  -0.35481  -0.29360  -0.19103
  Beta virt. eigenvalues --   -0.09919  -0.09356  -0.07496   0.02279   0.02992
  Beta virt. eigenvalues --    0.04521   0.05182   0.05722   0.06073   0.07104
  Beta virt. eigenvalues --    0.08638   0.09716   0.20067   0.29239   0.29593

 Mulliken charges and spin densities:
               1          2
     1  Si   0.142762   0.000000
     2  Si   0.142760  -0.000000
     3  H   -0.142761  -0.000000
     4  H   -0.142761   0.000000
 Sum of Mulliken charges =  -0.00000  -0.00000

 Dipole moment (field-independent basis, Debye):
    X=             -0.0000    Y=              0.0000    Z=             -0.0000  Tot=              0.0000
 Quadrupole moment (field-independent basis, Debye-Ang):
   XX=            -31.6591   YY=            -24.1895   ZZ=            -35.4574
   XY=             -0.0002   XZ=              0.0000   YZ=             -0.0746

 Normal termination of Gaussian 16 at Mon Apr 21 21:25:00 2025.
