 Gaussian 16, Revision A.03,
 Gaussian 16:  ES64L-G16RevA.03 25-Dec-2016

 --------------------------------------------
 #p opt UM062X/6-311+G** nosymm int=superfine
 --------------------------------------------

 -------------------
 Title Card Required
 -------------------
 Symbolic Z-matrix:
 Charge =  0 Multiplicity = 1

 SCF Done:  E(UM062X) =  -683.669561402     A.U. after   10 cycles
 SCF Done:  E(UM062X) =  -683.670607915     A.U. after   10 cycles
 SCF Done:  E(UM062X) =  -683.670931286     A.U. after   10 cycles
 SCF Done:  E(UM062X) =  -683.670931427     A.U. after   10 cycles
 Optimization completed.
    -- Stationary point found.

                          Input orientation:
 ---------------------------------------------------------------------
 Center     Atomic      Atomic             Coordinates (Angstroms)
 Number     Number       Type             X           Y           Z
 ---------------------------------------------------------------------
      1         15           0       -1.659490    0.000000    0.000000
      2         15           0        1.659490    0.000000    0.000000
      3          1           0       -1.580590   -1.420656   -0.000000
      4          1           0        1.580590    1.420656   -0.000000
 ---------------------------------------------------------------------

 Alpha  occ. eigenvalues --  -78.08374 -78.08374  -6.90331  -6.90331  -5.01750
 Alpha  occ. eigenvalues --   -5.01750  -5.01737  -5.01737  -5.01549  -5.01549
 Alpha  occ. eigenvalues --   -0.69327  -0.67185  -0.40688  -0.40062  -0.28555
 Alpha  occ. eigenvalues --   -0.25472
 Alpha virt. eigenvalues --   -0.15320  -0.11428   0.01981   0.03159   0.03780
 Alpha virt. eigenvalues --    0.04671   0.05222   0.05934   0.06599   0.08429
 Alpha virt. eigenvalues --    0.08691   0.12214   0.27675   0.29621   0.30247

  Beta  occ. eigenvalues --  -78.08374 -78.08374  -6.90331  -6.90331  -5.01750
  Beta  occ. eigenvalues --   -5.01750  -5.01737  -5.01737  -5.01549  -5.01549
  Beta  occ. eigenvalues --   -0.69327  -0.67185  -0.40688  -0.40062  -0.28555
  Beta  occ. eigenvalues --   -0.25472
  Beta virt. eigenvalues --   -0.15320  -0.11428   0.01981   0.03159   0.03780
  Beta virt. eigenvalues --    0.04671   0.05222   0.05934   0.06599   0.08429
  Beta virt. eigenvalues --    0.08691   0.12214   0.27675   0.29621   0.30247

 Mulliken charges and spin densities:
               1          2
     1  P    0.005472   0.000000
     2  P    0.005472  -0.000000
     3  H   -0.005472  -0.000000
     4  H   -0.005472   0.000000
 Sum of Mulliken charges =  -0.00000   0.00000

 Dipole moment (field-independent basis, Debye):
    X=             -0.0000    Y=              0.0000    Z=             -0.0000  Tot=              0.0000
 Quadrupole moment (field-independent basis, Debye-Ang):
   XX=            -27.1998   YY=            -28.3188   ZZ=            -30.7618
   XY=              2.8486   XZ=              0.0000   YZ=             -0.0000

 Normal termination of Gaussian 16 at Mon Apr 21 21:13:14 2025.
