 Gaussian 16, Revision A.03,
 Gaussian 16:  ES64L-G16RevA.03 25-Dec-2016

 --------------------------------------------
 #p opt UM062X/6-311+G** nosymm int=superfine
 --------------------------------------------

 -------------------
 Title Card Required
 -------------------
 Symbolic Z-matrix:
 Charge =  0 Multiplicity = 1

 SCF Done:  E(UM062X) =  -76.1215921942     A.U. after    9 cycles
 SCF Done:  E(UM062X) =  -76.3731403554     A.U. after    9 cycles
 SCF Done:  E(UM062X) =  -76.5121199947     A.U. after   11 cycles
 SCF Done:  E(UM062X) =  -76.5125335529     A.U. after    8 cycles
 SCF Done:  E(UM062X) =  -76.5125407249     A.U. after    7 cycles
 Optimization completed.
    -- Stationary point found.

                          Input orientation:
 ---------------------------------------------------------------------
 Center     Atomic      Atomic             Coordinates (Angstroms)
 Number     Number       Type             X           Y           Z
 ---------------------------------------------------------------------
      1          6           0       -0.395020    0.000000    0.000000
      2          6           0        0.395020    0.000000    0.000000
      3          1           0       -1.450957   -0.000000   -0.000000
      4          1           0        1.450955    0.000000    0.000000
 ---------------------------------------------------------------------

 Alpha  occ. eigenvalues --  -10.51245 -10.42857  -0.87355  -0.57971  -0.54268
 Alpha  occ. eigenvalues --   -0.47064  -0.47064
 Alpha virt. eigenvalues --    0.02974   0.03802   0.06720   0.06720   0.08485
 Alpha virt. eigenvalues --    0.08485   0.10021   0.17148   0.23672   0.25252
 Alpha virt. eigenvalues --    0.26647   0.26647   0.44716   0.50341   0.50900

  Beta  occ. eigenvalues --  -10.51245 -10.42857  -0.87355  -0.57971  -0.54268
  Beta  occ. eigenvalues --   -0.47064  -0.47064
  Beta virt. eigenvalues --    0.02974   0.03802   0.06720   0.06720   0.08485
  Beta virt. eigenvalues --    0.08485   0.10021   0.17148   0.23672   0.25252
  Beta virt. eigenvalues --    0.26647   0.26647   0.44716   0.50341   0.50900

 Mulliken charges and spin densities:
               1          2
     1  C   -0.091554   0.000000
     2  C   -0.091555  -0.000000
     3  H    0.091555  -0.000000
     4  H    0.091554  -0.000000
 Sum of Mulliken charges =   0.00000  -0.00000

 Dipole moment (field-independent basis, Debye):
    X=             -0.0000    Y=             -0.0000    Z=             -0.0000  Tot=              0.0000
 Quadrupole moment (field-independent basis, Debye-Ang):
   XX=             -8.0652   YY=            -11.5066   ZZ=            -11.5066
   XY=              0.0000   XZ=              0.0000   YZ=              0.0000

 Normal termination of Gaussian 16 at Tue Dec  3 19:53:25 2024.
