 Gaussian 16, Revision A.03,
 Gaussian 16:  ES64L-G16RevA.03 25-Dec-2016

 --------------------------------------------
 #p opt UM062X/6-311+G** nosymm int=superfine
 --------------------------------------------

 -------------------
 Title Card Required
 -------------------
 Symbolic Z-matrix:
 Charge =  0 Multiplicity = 1

 SCF Done:  E(UM062X) =  -683.571618316     A.U. after   11 cycles
 SCF Done:  E(UM062X) =  -683.571766092     A.U. after   10 cycles
 SCF Done:  E(UM062X) =  -683.572110824     A.U. after   11 cycles
 SCF Done:  E(UM062X) =  -683.572255890     A.U. after   16 cycles
 SCF Done:  E(UM062X) =  -683.572271828     A.U. after   12 cycles
 Optimization completed.
    -- Stationary point found.

                          Input orientation:
 ---------------------------------------------------------------------
 Center     Atomic      Atomic             Coordinates (Angstroms)
 Number     Number       Type             X           Y           Z
 ---------------------------------------------------------------------
      1         15           0       -2.384490    0.000000    0.000000
      2         15           0        2.384490    0.000000    0.000000
      3          1           0       -2.218524   -1.415222   -0.000000
      4          1           0        2.218524    1.415222   -0.000000
 ---------------------------------------------------------------------

 Alpha  occ. eigenvalues --  -78.08180 -78.08180  -6.90260  -6.90260  -5.01665
 Alpha  occ. eigenvalues --   -5.01665  -5.01650  -5.01650  -5.01478  -5.01478
 Alpha  occ. eigenvalues --   -0.68498  -0.68164  -0.40529  -0.40481  -0.24472
 Alpha  occ. eigenvalues --   -0.23600
 Alpha virt. eigenvalues --   -0.17510  -0.16508   0.01828   0.03020   0.03708
 Alpha virt. eigenvalues --    0.04399   0.05515   0.06026   0.06340   0.07320
 Alpha virt. eigenvalues --    0.08058   0.11219   0.28836   0.28939   0.30736

  Beta  occ. eigenvalues --  -78.08180 -78.08180  -6.90260  -6.90260  -5.01665
  Beta  occ. eigenvalues --   -5.01665  -5.01650  -5.01650  -5.01478  -5.01478
  Beta  occ. eigenvalues --   -0.68498  -0.68164  -0.40529  -0.40481  -0.24472
  Beta  occ. eigenvalues --   -0.23600
  Beta virt. eigenvalues --   -0.17510  -0.16508   0.01828   0.03020   0.03708
  Beta virt. eigenvalues --    0.04399   0.05515   0.06026   0.06340   0.07320
  Beta virt. eigenvalues --    0.08058   0.11219   0.28836   0.28939   0.30736

 Mulliken charges and spin densities:
               1          2
     1  P    0.013308  -0.000000
     2  P    0.013308   0.000000
     3  H   -0.013308   0.000000
     4  H   -0.013308  -0.000000
 Sum of Mulliken charges =  -0.00000   0.00000

 Dipole moment (field-independent basis, Debye):
    X=              0.0000    Y=              0.0000    Z=             -0.0000  Tot=              0.0000
 Quadrupole moment (field-independent basis, Debye-Ang):
   XX=            -27.5607   YY=            -28.5203   ZZ=            -30.7244
   XY=              3.5422   XZ=             -0.0000   YZ=             -0.0000

 Normal termination of Gaussian 16 at Mon Apr 21 21:13:46 2025.
