 Gaussian 16, Revision A.03,
 Gaussian 16:  ES64L-G16RevA.03 25-Dec-2016

 --------------------------------------------
 #p opt UM062X/6-311+G** nosymm int=superfine
 --------------------------------------------

 -------------------
 Title Card Required
 -------------------
 Symbolic Z-matrix:
 Charge =  0 Multiplicity = 1

 SCF Done:  E(UM062X) =  -81.8096291208     A.U. after   13 cycles
 SCF Done:  E(UM062X) =  -81.8149861878     A.U. after   10 cycles
 SCF Done:  E(UM062X) =  -81.8177757624     A.U. after   12 cycles
 SCF Done:  E(UM062X) =  -81.8137096516     A.U. after   13 cycles
 SCF Done:  E(UM062X) =  -81.8181079941     A.U. after   11 cycles
 SCF Done:  E(UM062X) =  -81.8186514551     A.U. after   13 cycles
 SCF Done:  E(UM062X) =  -81.8218131311     A.U. after   12 cycles
 SCF Done:  E(UM062X) =  -81.8273140327     A.U. after   13 cycles
 SCF Done:  E(UM062X) =  -81.8317092919     A.U. after   12 cycles
 SCF Done:  E(UM062X) =  -81.8351162673     A.U. after   12 cycles
 SCF Done:  E(UM062X) =  -81.8357960426     A.U. after   11 cycles
 SCF Done:  E(UM062X) =  -81.8358523442     A.U. after   10 cycles
 SCF Done:  E(UM062X) =  -81.8358531154     A.U. after    8 cycles
 Optimization completed.
    -- Stationary point found.

                          Input orientation:
 ---------------------------------------------------------------------
 Center     Atomic      Atomic             Coordinates (Angstroms)
 Number     Number       Type             X           Y           Z
 ---------------------------------------------------------------------
      1          5           0       -1.245399    0.000000    0.000000
      2          7           0        1.245399    0.000000    0.000000
      3          1           0       -1.668485   -1.095063   -0.031416
      4          1           0        1.363731    0.809977    0.612716
      5          1           0       -1.668482    1.095055   -0.031737
      6          1           0        1.363733   -0.809818    0.612926
 ---------------------------------------------------------------------

 Alpha  occ. eigenvalues --  -14.72448  -7.15514  -0.88431  -0.60630  -0.49851
 Alpha  occ. eigenvalues --   -0.47906  -0.34824  -0.28759
 Alpha virt. eigenvalues --   -0.06503  -0.02582   0.01342   0.03248   0.04733
 Alpha virt. eigenvalues --    0.05631   0.11145   0.13694   0.13813   0.17036
 Alpha virt. eigenvalues --    0.20524   0.20862   0.21323   0.30065   0.33386

  Beta  occ. eigenvalues --  -14.72448  -7.15514  -0.88431  -0.60630  -0.49851
  Beta  occ. eigenvalues --   -0.47906  -0.34824  -0.28759
  Beta virt. eigenvalues --   -0.06503  -0.02582   0.01342   0.03248   0.04733
  Beta virt. eigenvalues --    0.05631   0.11145   0.13694   0.13813   0.17036
  Beta virt. eigenvalues --    0.20524   0.20862   0.21323   0.30065   0.33386

 Mulliken charges and spin densities:
               1          2
     1  B    0.193728   0.000000
     2  N   -0.740611   0.000000
     3  H    0.045356  -0.000000
     4  H    0.228085  -0.000000
     5  H    0.045356  -0.000000
     6  H    0.228085  -0.000000
 Sum of Mulliken charges =  -0.00000  -0.00000

 Dipole moment (field-independent basis, Debye):
    X=             -3.0706    Y=              0.0002    Z=              1.6743  Tot=              3.4974
 Quadrupole moment (field-independent basis, Debye-Ang):
   XX=            -14.8430   YY=            -13.3684   ZZ=            -14.4362
   XY=              0.0003   XZ=              2.7108   YZ=             -0.0001

 Normal termination of Gaussian 16 at Mon Apr 21 17:47:19 2025.
