 Gaussian 16, Revision A.03,
 Gaussian 16:  ES64L-G16RevA.03 25-Dec-2016

 ----------------------------------------------------------------------
 #p opt UM062X/6-311+G** nosymm int=superfine SCF=(MaxCycle=200,NoVarAc
 c,noincfock) guess=read
 ----------------------------------------------------------------------

 -------------------
 Title Card Required
 -------------------
 Symbolic Z-matrix:
 Charge =  0 Multiplicity = 1

 SCF Done:  E(UM062X) =  -94.2592577596     A.U. after   90 cycles
 SCF Done:  E(UM062X) =  -94.2592759660     A.U. after   76 cycles
 SCF Done:  E(UM062X) =  -94.2593272786     A.U. after   37 cycles
 SCF Done:  E(UM062X) =  -94.2595782917     A.U. after   33 cycles
 SCF Done:  E(UM062X) =  -94.2596101697     A.U. after   34 cycles
 SCF Done:  E(UM062X) =  -94.2596772828     A.U. after   29 cycles
 SCF Done:  E(UM062X) =  -94.2597451400     A.U. after   61 cycles
 SCF Done:  E(UM062X) =  -94.2597546779     A.U. after   54 cycles
 SCF Done:  E(UM062X) =  -94.2597580978     A.U. after   26 cycles
 SCF Done:  E(UM062X) =  -94.2597592462     A.U. after    9 cycles
 SCF Done:  E(UM062X) =  -94.2597627229     A.U. after   12 cycles
 SCF Done:  E(UM062X) =  -94.2597755935     A.U. after   33 cycles
 SCF Done:  E(UM062X) =  -94.2597838840     A.U. after   40 cycles
 SCF Done:  E(UM062X) =  -94.2597869306     A.U. after   10 cycles
 SCF Done:  E(UM062X) =  -94.2597895529     A.U. after   11 cycles
 SCF Done:  E(UM062X) =  -94.2597913926     A.U. after   12 cycles
 Optimization completed.
    -- Stationary point found.

                          Input orientation:
 ---------------------------------------------------------------------
 Center     Atomic      Atomic             Coordinates (Angstroms)
 Number     Number       Type             X           Y           Z
 ---------------------------------------------------------------------
      1          6           0       -1.906632   -0.000000   -0.000000
      2          7           0        1.906632   -0.000000   -0.000000
      3          1           0       -2.598078   -0.858470    0.103077
      4          1           0        0.865325   -0.001065    0.000063
      5          1           0       -2.597776    0.858892   -0.101598
 ---------------------------------------------------------------------

 Alpha  occ. eigenvalues --  -14.81301 -10.62773  -0.87677  -0.77450  -0.49531
 Alpha  occ. eigenvalues --   -0.44681  -0.33597  -0.32220
 Alpha virt. eigenvalues --   -0.11168  -0.10037   0.01162   0.05305   0.06475
 Alpha virt. eigenvalues --    0.07392   0.13541   0.13881   0.15639   0.17411
 Alpha virt. eigenvalues --    0.17929   0.18228   0.22085   0.42994   0.47250

  Beta  occ. eigenvalues --  -14.81301 -10.62773  -0.87677  -0.77450  -0.49531
  Beta  occ. eigenvalues --   -0.44681  -0.33597  -0.32220
  Beta virt. eigenvalues --   -0.11168  -0.10037   0.01162   0.05305   0.06475
  Beta virt. eigenvalues --    0.07392   0.13541   0.13881   0.15639   0.17411
  Beta virt. eigenvalues --    0.17929   0.18228   0.22085   0.42994   0.47250

 Mulliken charges and spin densities:
               1          2
     1  C   -0.304498  -0.000000
     2  N   -0.247543  -0.000000
     3  H    0.144869   0.000000
     4  H    0.262296   0.000000
     5  H    0.144876   0.000000
 Sum of Mulliken charges =  -0.00000  -0.00000

 Dipole moment (field-independent basis, Debye):
    X=             -4.1609    Y=             -0.0012    Z=              0.0022  Tot=              4.1609
 Quadrupole moment (field-independent basis, Debye-Ang):
   XX=            -13.5851   YY=            -12.2741   ZZ=            -14.8708
   XY=             -0.0049   XZ=             -0.0013   YZ=             -0.2858

 Normal termination of Gaussian 16 at Mon Apr 21 22:41:33 2025.
