 Gaussian 16, Revision A.03,
 Gaussian 16:  ES64L-G16RevA.03 25-Dec-2016

 --------------------------------------------
 #p opt UM062X/6-311+G** nosymm int=superfine
 --------------------------------------------

 -------------------
 Title Card Required
 -------------------
 Symbolic Z-matrix:
 Charge =  0 Multiplicity = 1

 SCF Done:  E(UM062X) =  -115.443306738     A.U. after   31 cycles
 SCF Done:  E(UM062X) =  -115.459631771     A.U. after   11 cycles
 SCF Done:  E(UM062X) =  -115.469757817     A.U. after   13 cycles
 SCF Done:  E(UM062X) =  -115.469893507     A.U. after   12 cycles
 SCF Done:  E(UM062X) =  -115.469964176     A.U. after   12 cycles
 SCF Done:  E(UM062X) =  -115.470104255     A.U. after   18 cycles
 SCF Done:  E(UM062X) =  -115.470138283     A.U. after   10 cycles
 SCF Done:  E(UM062X) =  -115.470147555     A.U. after   13 cycles
 SCF Done:  E(UM062X) =  -115.470147883     A.U. after   10 cycles
 Optimization completed.
    -- Stationary point found.

                          Input orientation:
 ---------------------------------------------------------------------
 Center     Atomic      Atomic             Coordinates (Angstroms)
 Number     Number       Type             X           Y           Z
 ---------------------------------------------------------------------
      1          6           0       -1.857203    0.000000    0.000000
      2          8           0        1.857203    0.000000    0.000000
      3          1           0        1.909823   -0.964351    0.000596
      4          1           0       -1.923963   -0.534339    0.937890
      5          1           0       -1.755434    1.076749   -0.000654
      6          1           0       -1.923880   -0.535481   -0.937244
 ---------------------------------------------------------------------

 Alpha  occ. eigenvalues --  -19.58343 -10.67211  -1.00785  -0.85068  -0.57165
 Alpha  occ. eigenvalues --   -0.56977  -0.45321  -0.32281  -0.27509
 Alpha virt. eigenvalues --   -0.17444   0.00316   0.03630   0.03885   0.06835
 Alpha virt. eigenvalues --    0.13198   0.14594   0.14756   0.19163   0.22720
 Alpha virt. eigenvalues --    0.23061   0.24962   0.28147   0.38936   0.39138

  Beta  occ. eigenvalues --  -19.58343 -10.67211  -1.00785  -0.85068  -0.57165
  Beta  occ. eigenvalues --   -0.56977  -0.45321  -0.32281  -0.27509
  Beta virt. eigenvalues --   -0.17444   0.00316   0.03630   0.03885   0.06835
  Beta virt. eigenvalues --    0.13198   0.14594   0.14756   0.19163   0.22720
  Beta virt. eigenvalues --    0.23061   0.24962   0.28147   0.38936   0.39138

 Mulliken charges and spin densities:
               1          2
     1  C   -0.292281  -0.000000
     2  O   -0.563356   0.000000
     3  H    0.212328   0.000000
     4  H    0.210541   0.000000
     5  H    0.222224   0.000000
     6  H    0.210544   0.000000
 Sum of Mulliken charges =  -0.00000   0.00000

 Dipole moment (field-independent basis, Debye):
    X=             -6.3638    Y=             -1.5829    Z=              0.0010  Tot=              6.5577
 Quadrupole moment (field-independent basis, Debye-Ang):
   XX=            -13.2049   YY=            -11.5003   ZZ=            -13.9169
   XY=             -3.1160   XZ=              0.0019   YZ=             -0.0015

 Normal termination of Gaussian 16 at Mon Apr 21 18:46:31 2025.
