 Gaussian 16, Revision A.03,
 Gaussian 16:  ES64L-G16RevA.03 25-Dec-2016

 --------------------------------------------
 #p opt UM062X/6-311+G** nosymm int=superfine
 --------------------------------------------

 -------------------
 Title Card Required
 -------------------
 Symbolic Z-matrix:
 Charge =  0 Multiplicity = 1

 SCF Done:  E(UM062X) =  -111.656097087     A.U. after   16 cycles
 SCF Done:  E(UM062X) =  -111.672126810     A.U. after   16 cycles
 SCF Done:  E(UM062X) =  -111.680716331     A.U. after   15 cycles
 SCF Done:  E(UM062X) =  -111.681908813     A.U. after   12 cycles
 SCF Done:  E(UM062X) =  -111.683115928     A.U. after   13 cycles
 SCF Done:  E(UM062X) =  -111.683641636     A.U. after   13 cycles
 SCF Done:  E(UM062X) =  -111.683939226     A.U. after   13 cycles
 SCF Done:  E(UM062X) =  -111.683998419     A.U. after   11 cycles
 SCF Done:  E(UM062X) =  -111.684030131     A.U. after   12 cycles
 SCF Done:  E(UM062X) =  -111.684045276     A.U. after   12 cycles
 SCF Done:  E(UM062X) =  -111.684045727     A.U. after    9 cycles
 SCF Done:  E(UM062X) =  -111.684045742     A.U. after    8 cycles
 Optimization completed.
    -- Stationary point found.

                          Input orientation:
 ---------------------------------------------------------------------
 Center     Atomic      Atomic             Coordinates (Angstroms)
 Number     Number       Type             X           Y           Z
 ---------------------------------------------------------------------
      1          7           0       -1.411540    0.000000    0.000000
      2          7           0        1.411540    0.000000    0.000000
      3          1           0       -1.340363   -0.819071   -0.615661
      4          1           0        1.340458    0.414679   -0.937003
      5          1           0       -1.340454   -0.415008    0.936860
      6          1           0        1.340279    0.819277    0.615375
 ---------------------------------------------------------------------

 Alpha  occ. eigenvalues --  -14.80421 -14.80419  -0.95374  -0.93904  -0.55184
 Alpha  occ. eigenvalues --   -0.54225  -0.40987  -0.39886  -0.31492
 Alpha virt. eigenvalues --   -0.14536   0.04598   0.06825   0.08729   0.11458
 Alpha virt. eigenvalues --    0.13018   0.13908   0.15741   0.15965   0.19403
 Alpha virt. eigenvalues --    0.20523   0.26720   0.27787   0.51439   0.51529

  Beta  occ. eigenvalues --  -14.80421 -14.80419  -0.95374  -0.93904  -0.55184
  Beta  occ. eigenvalues --   -0.54225  -0.40987  -0.39886  -0.31492
  Beta virt. eigenvalues --   -0.14536   0.04598   0.06825   0.08729   0.11458
  Beta virt. eigenvalues --    0.13018   0.13908   0.15741   0.15965   0.19403
  Beta virt. eigenvalues --    0.20523   0.26720   0.27787   0.51439   0.51529

 Mulliken charges and spin densities:
               1          2
     1  N   -0.504847  -0.000000
     2  N   -0.504825   0.000000
     3  H    0.252413   0.000000
     4  H    0.252410  -0.000000
     5  H    0.252423   0.000000
     6  H    0.252425  -0.000000
 Sum of Mulliken charges =  -0.00000  -0.00000

 Dipole moment (field-independent basis, Debye):
    X=             -0.0001    Y=             -0.0002    Z=             -0.0007  Tot=              0.0007
 Quadrupole moment (field-independent basis, Debye-Ang):
   XX=            -15.6942   YY=            -14.1833   ZZ=            -11.4289
   XY=              6.0345   XZ=             -1.5721   YZ=              0.7696

 Normal termination of Gaussian 16 at Thu May 15 14:43:28 2025.
