 Gaussian 16, Revision A.03,
 Gaussian 16:  ES64L-G16RevA.03 25-Dec-2016

 --------------------------------------------
 #p opt UM062X/6-311+G** nosymm int=superfine
 --------------------------------------------

 -------------------
 Title Card Required
 -------------------
 Symbolic Z-matrix:
 Charge = -1 Multiplicity = 2

 SCF Done:  E(UM062X) =  -53.2057518016     A.U. after   11 cycles
 SCF Done:  E(UM062X) =  -53.2092688318     A.U. after   11 cycles
 SCF Done:  E(UM062X) =  -53.2100327817     A.U. after   10 cycles
 SCF Done:  E(UM062X) =  -53.2100360617     A.U. after    8 cycles
 Optimization completed.
    -- Stationary point found.

                          Input orientation:
 ---------------------------------------------------------------------
 Center     Atomic      Atomic             Coordinates (Angstroms)
 Number     Number       Type             X           Y           Z
 ---------------------------------------------------------------------
      1          5           0       -1.890672    0.000000    0.000000
      2          5           0        1.890672    0.000000    0.000000
      3          1           0        1.966218   -1.196659   -0.000014
      4          1           0       -1.966030   -0.598328    1.036353
      5          1           0        1.966182    0.598347   -1.036332
      6          1           0        1.965972    0.598314    1.036364
      7          1           0       -1.966225    1.196658   -0.000000
      8          1           0       -1.966117   -0.598334   -1.036344
 ---------------------------------------------------------------------

 Alpha  occ. eigenvalues --   -6.84128  -6.84128  -0.39681  -0.38930  -0.21444
 Alpha  occ. eigenvalues --   -0.21444  -0.21063  -0.21063   0.00857
 Alpha virt. eigenvalues --    0.12485   0.16983   0.17748   0.17748   0.18489
 Alpha virt. eigenvalues --    0.18489   0.19752   0.22785   0.23665   0.32908
 Alpha virt. eigenvalues --    0.32908   0.34937   0.34938   0.37529   0.39069

  Beta  occ. eigenvalues --   -6.84090  -6.84089  -0.37855  -0.37376  -0.21254
  Beta  occ. eigenvalues --   -0.21254  -0.20894  -0.20894
  Beta virt. eigenvalues --    0.12128   0.13787   0.14326   0.15532   0.15532
  Beta virt. eigenvalues --    0.18044   0.18044   0.21920   0.22606   0.25667
  Beta virt. eigenvalues --    0.31905   0.31905   0.34297   0.34299   0.36846

 Mulliken charges and spin densities:
               1          2
     1  B   -0.333269   0.570028
     2  B   -0.333269   0.570028
     3  H   -0.055592  -0.023354
     4  H   -0.055568  -0.023337
     5  H   -0.055574  -0.023336
     6  H   -0.055565  -0.023337
     7  H   -0.055592  -0.023354
     8  H   -0.055571  -0.023337
 Sum of Mulliken charges =  -1.00000   1.00000

 Dipole moment (field-independent basis, Debye):
    X=             -0.0000    Y=             -0.0000    Z=              0.0001  Tot=              0.0001
 Quadrupole moment (field-independent basis, Debye-Ang):
   XX=            -41.5062   YY=            -24.2672   ZZ=            -24.2669
   XY=              0.0001   XZ=              0.0000   YZ=              0.0000

 Normal termination of Gaussian 16 at Mon Apr 21 16:54:24 2025.
