 Gaussian 16, Revision A.03,
 Gaussian 16:  ES64L-G16RevA.03 25-Dec-2016

 --------------------------------------------
 #p opt UM062X/6-311+G** nosymm int=superfine
 --------------------------------------------

 -------------------
 Title Card Required
 -------------------
 Symbolic Z-matrix:
 Charge =  1 Multiplicity = 2

 SCF Done:  E(UM062X) =  -579.673199575     A.U. after   14 cycles
 SCF Done:  E(UM062X) =  -579.674007983     A.U. after   12 cycles
 SCF Done:  E(UM062X) =  -579.674808602     A.U. after   12 cycles
 SCF Done:  E(UM062X) =  -579.676047267     A.U. after   14 cycles
 SCF Done:  E(UM062X) =  -579.676561599     A.U. after   14 cycles
 SCF Done:  E(UM062X) =  -579.676951142     A.U. after   14 cycles
 SCF Done:  E(UM062X) =  -579.677046446     A.U. after   10 cycles
 SCF Done:  E(UM062X) =  -579.677057913     A.U. after   11 cycles
 SCF Done:  E(UM062X) =  -579.677059696     A.U. after   10 cycles
 SCF Done:  E(UM062X) =  -579.677061247     A.U. after   12 cycles
 SCF Done:  E(UM062X) =  -579.677067330     A.U. after   11 cycles
 SCF Done:  E(UM062X) =  -579.677071773     A.U. after   11 cycles
 SCF Done:  E(UM062X) =  -579.677071780     A.U. after    9 cycles
 Optimization completed.
    -- Stationary point found.

                          Input orientation:
 ---------------------------------------------------------------------
 Center     Atomic      Atomic             Coordinates (Angstroms)
 Number     Number       Type             X           Y           Z
 ---------------------------------------------------------------------
      1         14           0       -2.327975    0.000000    0.000000
      2         14           0        2.327975    0.000000    0.000000
      3          1           0       -2.434423   -1.504760   -0.000000
      4          1           0        2.434674    1.504736   -0.000000
 ---------------------------------------------------------------------

 Alpha  occ. eigenvalues --  -67.26151 -67.26151  -5.80321  -5.80320  -4.11420
 Alpha  occ. eigenvalues --   -4.11420  -4.11334  -4.11334  -4.10686  -4.10686
 Alpha  occ. eigenvalues --   -0.75155  -0.74756  -0.51878  -0.51711  -0.39289
 Alpha virt. eigenvalues --   -0.29643  -0.27056  -0.26478  -0.10571  -0.09228
 Alpha virt. eigenvalues --   -0.08350  -0.07813  -0.07524  -0.06468  -0.05514
 Alpha virt. eigenvalues --   -0.05422  -0.04798  -0.02406   0.12694   0.14292

  Beta  occ. eigenvalues --  -67.25897 -67.25897  -5.80249  -5.80248  -4.11272
  Beta  occ. eigenvalues --   -4.11272  -4.10735  -4.10734  -4.10586  -4.10586
  Beta  occ. eigenvalues --   -0.73326  -0.73140  -0.51244  -0.51062
  Beta virt. eigenvalues --   -0.27643  -0.26894  -0.26082  -0.23865  -0.14317
  Beta virt. eigenvalues --   -0.10836  -0.09088  -0.08294  -0.08004  -0.06489
  Beta virt. eigenvalues --   -0.05574  -0.05328  -0.05060  -0.02527   0.09474

 Mulliken charges and spin densities:
               1          2
     1  Si   0.583576   0.508054
     2  Si   0.583564   0.508063
     3  H   -0.083572  -0.008059
     4  H   -0.083568  -0.008058
 Sum of Mulliken charges =   1.00000   1.00000

 Dipole moment (field-independent basis, Debye):
    X=              0.0000    Y=             -0.0000    Z=             -0.0000  Tot=              0.0000
 Quadrupole moment (field-independent basis, Debye-Ang):
   XX=              6.9952   YY=            -27.8070   ZZ=            -20.0127
   XY=              2.4325   XZ=             -0.0000   YZ=              0.0000

 Normal termination of Gaussian 16 at Mon Apr 21 20:39:57 2025.
