 Gaussian 16, Revision A.03,
 Gaussian 16:  ES64L-G16RevA.03 25-Dec-2016

 --------------------------------------------
 #p opt UM062X/6-311+G** nosymm int=superfine
 --------------------------------------------

 -------------------
 Title Card Required
 -------------------
 Symbolic Z-matrix:
 Charge =  0 Multiplicity = 1

 SCF Done:  E(UM062X) =  -474.488664445     A.U. after   13 cycles
 SCF Done:  E(UM062X) =  -474.489036289     A.U. after   14 cycles
 SCF Done:  E(UM062X) =  -474.489140462     A.U. after   12 cycles
 SCF Done:  E(UM062X) =  -474.489144478     A.U. after   11 cycles
 Optimization completed.
    -- Stationary point found.

                          Input orientation:
 ---------------------------------------------------------------------
 Center     Atomic      Atomic             Coordinates (Angstroms)
 Number     Number       Type             X           Y           Z
 ---------------------------------------------------------------------
      1          8           0       -1.161006   -0.000002    0.000013
      2         16           0        1.161006    0.000002   -0.000013
      3          1           0       -1.235062    0.958157    0.115565
      4          1           0        1.103326   -0.341383   -1.298800
 ---------------------------------------------------------------------

 Alpha  occ. eigenvalues --  -89.97006 -19.67277  -8.33032  -6.25250  -6.24885
 Alpha  occ. eigenvalues --   -6.24344  -1.09421  -0.82869  -0.53261  -0.49212
 Alpha  occ. eigenvalues --   -0.41103  -0.39816  -0.34489
 Alpha virt. eigenvalues --   -0.13212   0.01531   0.04141   0.04853   0.05781
 Alpha virt. eigenvalues --    0.07648   0.15398   0.19486   0.19999   0.21744
 Alpha virt. eigenvalues --    0.27261   0.31568   0.33922   0.35156   0.40585

  Beta  occ. eigenvalues --  -89.97006 -19.67277  -8.33032  -6.25250  -6.24885
  Beta  occ. eigenvalues --   -6.24344  -1.09421  -0.82869  -0.53261  -0.49212
  Beta  occ. eigenvalues --   -0.41103  -0.39816  -0.34489
  Beta virt. eigenvalues --   -0.13212   0.01531   0.04141   0.04853   0.05781
  Beta virt. eigenvalues --    0.07648   0.15398   0.19486   0.19999   0.21744
  Beta virt. eigenvalues --    0.27261   0.31568   0.33922   0.35156   0.40585

 Mulliken charges and spin densities:
               1          2
     1  O   -0.436594   0.000000
     2  S    0.077738  -0.000000
     3  H    0.252346   0.000000
     4  H    0.106510  -0.000000
 Sum of Mulliken charges =  -0.00000   0.00000

 Dipole moment (field-independent basis, Debye):
    X=              1.6430    Y=              1.3548    Z=             -0.8889  Tot=              2.3076
 Quadrupole moment (field-independent basis, Debye-Ang):
   XX=            -18.4894   YY=            -19.7373   ZZ=            -18.6138
   XY=             -2.8352   XZ=             -1.7699   YZ=              1.3177

 Normal termination of Gaussian 16 at Mon Apr 21 22:40:41 2025.
