 Gaussian 16, Revision A.03,
 Gaussian 16:  ES64L-G16RevA.03 25-Dec-2016

 --------------------------------------------
 #p opt UM062X/6-311+G** nosymm int=superfine
 --------------------------------------------

 -------------------
 Title Card Required
 -------------------
 Symbolic Z-matrix:
 Charge =  0 Multiplicity = 1

 SCF Done:  E(UM062X) =  -684.957678977     A.U. after   11 cycles
 SCF Done:  E(UM062X) =  -684.959334252     A.U. after   11 cycles
 SCF Done:  E(UM062X) =  -684.960436182     A.U. after   11 cycles
 SCF Done:  E(UM062X) =  -684.960582360     A.U. after   10 cycles
 SCF Done:  E(UM062X) =  -684.960628398     A.U. after   10 cycles
 SCF Done:  E(UM062X) =  -684.960653376     A.U. after   10 cycles
 SCF Done:  E(UM062X) =  -684.960678063     A.U. after   10 cycles
 SCF Done:  E(UM062X) =  -684.960707376     A.U. after   11 cycles
 SCF Done:  E(UM062X) =  -684.960732769     A.U. after   12 cycles
 SCF Done:  E(UM062X) =  -684.960802593     A.U. after   12 cycles
 SCF Done:  E(UM062X) =  -684.960845692     A.U. after   11 cycles
 SCF Done:  E(UM062X) =  -684.960873197     A.U. after   10 cycles
 SCF Done:  E(UM062X) =  -684.960874082     A.U. after   11 cycles
 SCF Done:  E(UM062X) =  -684.960874320     A.U. after    8 cycles
 SCF Done:  E(UM062X) =  -684.960874405     A.U. after    8 cycles
 SCF Done:  E(UM062X) =  -684.960874422     A.U. after   10 cycles
 Optimization completed.
    -- Stationary point found.

                          Input orientation:
 ---------------------------------------------------------------------
 Center     Atomic      Atomic             Coordinates (Angstroms)
 Number     Number       Type             X           Y           Z
 ---------------------------------------------------------------------
      1         15           0       -1.792217    0.000000    0.000000
      2         15           0        1.792217    0.000000    0.000000
      3          1           0        1.734192   -0.939938    1.060954
      4          1           0       -1.737868    1.018293    0.986290
      5          1           0        1.736881   -1.026584   -0.977584
      6          1           0       -1.735363    0.948956   -1.052945
 ---------------------------------------------------------------------

 Alpha  occ. eigenvalues --  -78.04917 -78.04916  -6.87264  -6.87263  -4.98816
 Alpha  occ. eigenvalues --   -4.98815  -4.98697  -4.98696  -4.98512  -4.98511
 Alpha  occ. eigenvalues --   -0.71404  -0.70284  -0.45114  -0.44566  -0.36276
 Alpha  occ. eigenvalues --   -0.35786  -0.26723
 Alpha virt. eigenvalues --   -0.12114   0.01649   0.02972   0.03275   0.04111
 Alpha virt. eigenvalues --    0.04789   0.05713   0.06092   0.06171   0.06574
 Alpha virt. eigenvalues --    0.08402   0.15613   0.18678   0.28157   0.28473

  Beta  occ. eigenvalues --  -78.04917 -78.04916  -6.87264  -6.87263  -4.98816
  Beta  occ. eigenvalues --   -4.98815  -4.98697  -4.98696  -4.98512  -4.98511
  Beta  occ. eigenvalues --   -0.71404  -0.70284  -0.45114  -0.44566  -0.36276
  Beta  occ. eigenvalues --   -0.35786  -0.26723
  Beta virt. eigenvalues --   -0.12114   0.01649   0.02972   0.03275   0.04111
  Beta virt. eigenvalues --    0.04789   0.05713   0.06092   0.06171   0.06574
  Beta virt. eigenvalues --    0.08402   0.15613   0.18678   0.28157   0.28473

 Mulliken charges and spin densities:
               1          2
     1  P   -0.027760  -0.000000
     2  P   -0.027588   0.000000
     3  H    0.013826  -0.000000
     4  H    0.013772   0.000000
     5  H    0.013857  -0.000000
     6  H    0.013894   0.000000
 Sum of Mulliken charges =   0.00000  -0.00000

 Dipole moment (field-independent basis, Debye):
    X=             -0.0003    Y=             -0.0000    Z=              0.0072  Tot=              0.0072
 Quadrupole moment (field-independent basis, Debye-Ang):
   XX=            -28.9775   YY=            -31.2004   ZZ=            -28.4479
   XY=             -3.8957   XZ=              0.1448   YZ=              0.1046

 Normal termination of Gaussian 16 at Mon Apr 21 20:51:11 2025.
