 Gaussian 16, Revision A.03,
 Gaussian 16:  ES64L-G16RevA.03 25-Dec-2016

 --------------------------------------------
 #p opt UM062X/6-311+G** nosymm int=superfine
 --------------------------------------------

 -------------------
 Title Card Required
 -------------------
 Symbolic Z-matrix:
 Charge =  0 Multiplicity = 1

 SCF Done:  E(UM062X) =  -684.907213246     A.U. after   11 cycles
 SCF Done:  E(UM062X) =  -684.907780886     A.U. after   10 cycles
 SCF Done:  E(UM062X) =  -684.908084902     A.U. after   12 cycles
 SCF Done:  E(UM062X) =  -684.908582288     A.U. after   10 cycles
 SCF Done:  E(UM062X) =  -684.908790111     A.U. after   11 cycles
 SCF Done:  E(UM062X) =  -684.908908143     A.U. after   12 cycles
 SCF Done:  E(UM062X) =  -684.908923706     A.U. after   11 cycles
 SCF Done:  E(UM062X) =  -684.908933749     A.U. after   11 cycles
 SCF Done:  E(UM062X) =  -684.908952071     A.U. after   12 cycles
 SCF Done:  E(UM062X) =  -684.908980189     A.U. after   14 cycles
 SCF Done:  E(UM062X) =  -684.909088910     A.U. after   11 cycles
 SCF Done:  E(UM062X) =  -684.909099114     A.U. after   10 cycles
 SCF Done:  E(UM062X) =  -684.909106693     A.U. after   11 cycles
 SCF Done:  E(UM062X) =  -684.909106789     A.U. after   11 cycles
 SCF Done:  E(UM062X) =  -684.909106411     A.U. after   12 cycles
 SCF Done:  E(UM062X) =  -684.909107389     A.U. after   11 cycles
 SCF Done:  E(UM062X) =  -684.909107417     A.U. after    8 cycles
 SCF Done:  E(UM062X) =  -684.909107461     A.U. after    9 cycles
 SCF Done:  E(UM062X) =  -684.909107506     A.U. after    8 cycles
 SCF Done:  E(UM062X) =  -684.909107515     A.U. after    9 cycles
 Optimization completed.
    -- Stationary point found.

                          Input orientation:
 ---------------------------------------------------------------------
 Center     Atomic      Atomic             Coordinates (Angstroms)
 Number     Number       Type             X           Y           Z
 ---------------------------------------------------------------------
      1         15           0       -2.392217    0.000000    0.000000
      2         15           0        2.392217    0.000000    0.000000
      3          1           0        2.272845   -1.021663    0.977240
      4          1           0       -2.278603    1.098344    0.891062
      5          1           0        2.282223   -0.937085   -1.059888
      6          1           0       -2.281068    0.848046   -1.132141
 ---------------------------------------------------------------------

 Alpha  occ. eigenvalues --  -78.04954 -78.04953  -6.87372  -6.87372  -4.98917
 Alpha  occ. eigenvalues --   -4.98916  -4.98797  -4.98797  -4.98615  -4.98614
 Alpha  occ. eigenvalues --   -0.71181  -0.70959  -0.45134  -0.45061  -0.36275
 Alpha  occ. eigenvalues --   -0.36201  -0.23754
 Alpha virt. eigenvalues --   -0.15772   0.01530   0.02836   0.03189   0.04004
 Alpha virt. eigenvalues --    0.04824   0.05849   0.06046   0.06077   0.06120
 Alpha virt. eigenvalues --    0.07857   0.12719   0.18214   0.29073   0.29738

  Beta  occ. eigenvalues --  -78.04954 -78.04953  -6.87372  -6.87372  -4.98917
  Beta  occ. eigenvalues --   -4.98916  -4.98797  -4.98797  -4.98615  -4.98614
  Beta  occ. eigenvalues --   -0.71181  -0.70959  -0.45134  -0.45061  -0.36275
  Beta  occ. eigenvalues --   -0.36201  -0.23754
  Beta virt. eigenvalues --   -0.15772   0.01530   0.02836   0.03189   0.04004
  Beta virt. eigenvalues --    0.04824   0.05849   0.06046   0.06077   0.06120
  Beta virt. eigenvalues --    0.07857   0.12719   0.18214   0.29073   0.29738

 Mulliken charges and spin densities:
               1          2
     1  P    0.008340  -0.000000
     2  P    0.008558   0.000000
     3  H   -0.003801  -0.000000
     4  H   -0.003844   0.000000
     5  H   -0.004632  -0.000000
     6  H   -0.004621   0.000000
 Sum of Mulliken charges =  -0.00000  -0.00000

 Dipole moment (field-independent basis, Debye):
    X=             -0.0011    Y=             -0.0066    Z=             -0.1473  Tot=              0.1475
 Quadrupole moment (field-independent basis, Debye-Ang):
   XX=            -29.1085   YY=            -31.2377   ZZ=            -28.5445
   XY=             -4.6698   XZ=              0.1859   YZ=              0.1095

 Normal termination of Gaussian 16 at Mon Apr 21 21:02:31 2025.
