 Gaussian 16, Revision A.03,
 Gaussian 16:  ES64L-G16RevA.03 25-Dec-2016

 --------------------------------------------
 #p opt UM062X/6-311+G** nosymm int=superfine
 --------------------------------------------

 -------------------
 Title Card Required
 -------------------
 Symbolic Z-matrix:
 Charge =  0 Multiplicity = 1

 SCF Done:  E(UM062X) =  -437.157221878     A.U. after   16 cycles
 SCF Done:  E(UM062X) =  -437.159984598     A.U. after   16 cycles
 SCF Done:  E(UM062X) =  -437.160903594     A.U. after   14 cycles
 SCF Done:  E(UM062X) =  -437.160904787     A.U. after   17 cycles
 Optimization completed.
    -- Stationary point found.

                          Input orientation:
 ---------------------------------------------------------------------
 Center     Atomic      Atomic             Coordinates (Angstroms)
 Number     Number       Type             X           Y           Z
 ---------------------------------------------------------------------
      1          6           0       -2.127140    0.000000    0.000000
      2         16           0        2.127140    0.000000    0.000000
      3          1           0       -2.816178   -0.866506   -0.000041
      4          1           0       -2.817162    0.865722   -0.000165
 ---------------------------------------------------------------------

 Alpha  occ. eigenvalues --  -89.94516 -10.62312  -8.30565  -6.23355  -6.21768
 Alpha  occ. eigenvalues --   -6.21768  -0.76936  -0.74669  -0.49055  -0.32821
 Alpha  occ. eigenvalues --   -0.31985  -0.31978
 Alpha virt. eigenvalues --   -0.16976  -0.09450   0.01528   0.04575   0.05412
 Alpha virt. eigenvalues --    0.06399   0.07961   0.08614   0.08882   0.13883
 Alpha virt. eigenvalues --    0.17394   0.18724   0.35150   0.36609   0.36621

  Beta  occ. eigenvalues --  -89.94516 -10.62312  -8.30565  -6.23355  -6.21768
  Beta  occ. eigenvalues --   -6.21768  -0.76936  -0.74669  -0.49055  -0.32821
  Beta  occ. eigenvalues --   -0.31985  -0.31978
  Beta virt. eigenvalues --   -0.16976  -0.09450   0.01528   0.04575   0.05412
  Beta virt. eigenvalues --    0.06399   0.07961   0.08614   0.08882   0.13883
  Beta virt. eigenvalues --    0.17394   0.18724   0.35150   0.36609   0.36621

 Mulliken charges and spin densities:
               1          2
     1  C   -0.277809   0.000000
     2  S    0.000054  -0.000000
     3  H    0.138874  -0.000000
     4  H    0.138882  -0.000000
 Sum of Mulliken charges =  -0.00000  -0.00000

 Dipole moment (field-independent basis, Debye):
    X=             -2.4911    Y=             -0.0011    Z=             -0.0003  Tot=              2.4911
 Quadrupole moment (field-independent basis, Debye-Ang):
   XX=             -9.8908   YY=            -22.3778   ZZ=            -21.7061
   XY=              0.0004   XZ=             -0.0000   YZ=              0.0000

 Normal termination of Gaussian 16 at Mon Apr 21 19:46:16 2025.
