 Gaussian 16, Revision A.03,
 Gaussian 16:  ES64L-G16RevA.03 25-Dec-2016

 --------------------------------------------
 #p opt UM062X/6-311+G** nosymm int=superfine
 --------------------------------------------

 -------------------
 Title Card Required
 -------------------
 Symbolic Z-matrix:
 Charge =  0 Multiplicity = 1

 SCF Done:  E(UM062X) =  -83.1254110174     A.U. after   10 cycles
 SCF Done:  E(UM062X) =  -83.1404421198     A.U. after    9 cycles
 SCF Done:  E(UM062X) =  -83.1435281324     A.U. after    9 cycles
 SCF Done:  E(UM062X) =  -83.1435477929     A.U. after    7 cycles
 Optimization completed.
    -- Stationary point found.

                          Input orientation:
 ---------------------------------------------------------------------
 Center     Atomic      Atomic             Coordinates (Angstroms)
 Number     Number       Type             X           Y           Z
 ---------------------------------------------------------------------
      1          5           0       -1.702429    0.000000    0.000000
      2          7           0        1.702429    0.000000    0.000000
      3          1           0        2.064915   -0.945840    0.000001
      4          1           0       -1.721984   -0.594107    1.028988
      5          1           0        2.064810    0.472971   -0.819142
      6          1           0        2.064797    0.472968    0.819150
      7          1           0       -1.722002    1.188179    0.000015
      8          1           0       -1.722000   -0.594084   -1.029001
 ---------------------------------------------------------------------

 Alpha  occ. eigenvalues --  -14.73372  -7.03830  -0.96533  -0.57009  -0.54383
 Alpha  occ. eigenvalues --   -0.54383  -0.39444  -0.39444  -0.34731
 Alpha virt. eigenvalues --   -0.01626   0.02316   0.04815   0.04815   0.05507
 Alpha virt. eigenvalues --    0.08459   0.10869   0.10869   0.17670   0.17671
 Alpha virt. eigenvalues --    0.17892   0.19561   0.19561   0.23029   0.27982

  Beta  occ. eigenvalues --  -14.73372  -7.03830  -0.96533  -0.57009  -0.54383
  Beta  occ. eigenvalues --   -0.54383  -0.39444  -0.39444  -0.34731
  Beta virt. eigenvalues --   -0.01626   0.02316   0.04815   0.04815   0.05507
  Beta virt. eigenvalues --    0.08459   0.10869   0.10869   0.17670   0.17671
  Beta virt. eigenvalues --    0.17892   0.19561   0.19561   0.23029   0.27982

 Mulliken charges and spin densities:
               1          2
     1  B    0.013397   0.000000
     2  N   -0.737653  -0.000000
     3  H    0.248963   0.000000
     4  H   -0.007543  -0.000000
     5  H    0.248963   0.000000
     6  H    0.248963   0.000000
     7  H   -0.007547  -0.000000
     8  H   -0.007543  -0.000000
 Sum of Mulliken charges =  -0.00000  -0.00000

 Dipole moment (field-independent basis, Debye):
    X=              2.1068    Y=              0.0001    Z=              0.0000  Tot=              2.1068
 Quadrupole moment (field-independent basis, Debye-Ang):
   XX=            -10.9245   YY=            -15.6903   ZZ=            -15.6903
   XY=              0.0001   XZ=             -0.0000   YZ=              0.0000

 Normal termination of Gaussian 16 at Mon Apr 21 17:39:07 2025.
