 Gaussian 16, Revision A.03,
 Gaussian 16:  ES64L-G16RevA.03 25-Dec-2016

 --------------------------------------------
 #p opt UM062X/6-311+G** nosymm int=superfine
 --------------------------------------------

 -------------------
 Title Card Required
 -------------------
 Symbolic Z-matrix:
 Charge =  0 Multiplicity = 1

 SCF Done:  E(UM062X) =  -474.491073493     A.U. after   13 cycles
 SCF Done:  E(UM062X) =  -474.494746838     A.U. after   14 cycles
 SCF Done:  E(UM062X) =  -474.495389480     A.U. after   15 cycles
 SCF Done:  E(UM062X) =  -474.495528830     A.U. after   14 cycles
 SCF Done:  E(UM062X) =  -474.495529092     A.U. after   10 cycles
 Optimization completed.
    -- Stationary point found.

                          Input orientation:
 ---------------------------------------------------------------------
 Center     Atomic      Atomic             Coordinates (Angstroms)
 Number     Number       Type             X           Y           Z
 ---------------------------------------------------------------------
      1          8           0       -1.139392    0.000000    0.000000
      2         16           0        1.139392    0.000000    0.000000
      3          1           0       -1.222766   -0.954325   -0.137070
      4          1           0        1.090677    0.307887    1.307252
 ---------------------------------------------------------------------

 Alpha  occ. eigenvalues --  -89.96887 -19.67231  -8.32916  -6.25134  -6.24769
 Alpha  occ. eigenvalues --   -6.24230  -1.09580  -0.82791  -0.53396  -0.49244
 Alpha  occ. eigenvalues --   -0.41460  -0.39843  -0.34368
 Alpha virt. eigenvalues --   -0.12525   0.01527   0.04145   0.04883   0.05811
 Alpha virt. eigenvalues --    0.07705   0.15459   0.19464   0.20008   0.21761
 Alpha virt. eigenvalues --    0.27375   0.31604   0.33884   0.35125   0.40628

  Beta  occ. eigenvalues --  -89.96887 -19.67231  -8.32916  -6.25134  -6.24769
  Beta  occ. eigenvalues --   -6.24230  -1.09580  -0.82791  -0.53396  -0.49244
  Beta  occ. eigenvalues --   -0.41460  -0.39843  -0.34368
  Beta virt. eigenvalues --   -0.12525   0.01527   0.04145   0.04883   0.05811
  Beta virt. eigenvalues --    0.07705   0.15459   0.19464   0.20008   0.21761
  Beta virt. eigenvalues --    0.27375   0.31604   0.33884   0.35125   0.40628

 Mulliken charges and spin densities:
               1          2
     1  O   -0.437017  -0.000000
     2  S    0.078244   0.000000
     3  H    0.253197  -0.000000
     4  H    0.105576  -0.000000
 Sum of Mulliken charges =   0.00000  -0.00000

 Dipole moment (field-independent basis, Debye):
    X=              1.5917    Y=             -1.3759    Z=              0.8553  Tot=              2.2712
 Quadrupole moment (field-independent basis, Debye-Ang):
   XX=            -18.5313   YY=            -19.7852   ZZ=            -18.5365
   XY=              2.7769   XZ=              1.8208   YZ=              1.2781

 Normal termination of Gaussian 16 at Thu May 15 12:55:40 2025.
