 Gaussian 16, Revision A.03,
 Gaussian 16:  ES64L-G16RevA.03 25-Dec-2016

 --------------------------------------------
 #p opt UM062X/6-311+G** nosymm int=superfine
 --------------------------------------------

 -------------------
 Title Card Required
 -------------------
 Symbolic Z-matrix:
 Charge =  0 Multiplicity = 1

 SCF Done:  E(UM062X) =  -110.201282915     A.U. after   12 cycles
 SCF Done:  E(UM062X) =  -110.205423100     A.U. after   13 cycles
 SCF Done:  E(UM062X) =  -110.210796229     A.U. after   15 cycles
 SCF Done:  E(UM062X) =  -110.211268941     A.U. after   13 cycles
 SCF Done:  E(UM062X) =  -110.211269404     A.U. after   10 cycles
 Optimization completed.
    -- Stationary point found.

                          Input orientation:
 ---------------------------------------------------------------------
 Center     Atomic      Atomic             Coordinates (Angstroms)
 Number     Number       Type             X           Y           Z
 ---------------------------------------------------------------------
      1          7           0       -1.540428    0.000000    0.000000
      2          7           0        1.540428    0.000000    0.000000
      3          1           0       -1.339123   -1.019109    0.000000
      4          1           0        1.339123    1.019109    0.000000
 ---------------------------------------------------------------------

 Alpha  occ. eigenvalues --  -14.88708 -14.88705  -0.93079  -0.91965  -0.49293
 Alpha  occ. eigenvalues --   -0.48622  -0.32619  -0.30747
 Alpha virt. eigenvalues --   -0.20814  -0.18757   0.05375   0.07238   0.10707
 Alpha virt. eigenvalues --    0.11661   0.13313   0.14803   0.15642   0.18228
 Alpha virt. eigenvalues --    0.19599   0.23115   0.51903   0.55154   0.70645

  Beta  occ. eigenvalues --  -14.88708 -14.88705  -0.93079  -0.91965  -0.49293
  Beta  occ. eigenvalues --   -0.48622  -0.32619  -0.30747
  Beta virt. eigenvalues --   -0.20814  -0.18757   0.05375   0.07238   0.10707
  Beta virt. eigenvalues --    0.11661   0.13313   0.14803   0.15642   0.18228
  Beta virt. eigenvalues --    0.19599   0.23115   0.51903   0.55154   0.70645

 Mulliken charges and spin densities:
               1          2
     1  N   -0.239858   0.000007
     2  N   -0.239858  -0.000007
     3  H    0.239858  -0.000000
     4  H    0.239858   0.000000
 Sum of Mulliken charges =  -0.00000  -0.00000

 Dipole moment (field-independent basis, Debye):
    X=             -0.0000    Y=             -0.0000    Z=              0.0000  Tot=              0.0000
 Quadrupole moment (field-independent basis, Debye-Ang):
   XX=            -14.3410   YY=            -11.1884   ZZ=            -14.2026
   XY=              5.1471   XZ=             -0.0000   YZ=             -0.0000

 Normal termination of Gaussian 16 at Thu May 15 15:39:50 2025.
