 Gaussian 16, Revision A.03,
 Gaussian 16:  ES64L-G16RevA.03 25-Dec-2016

 --------------------------------------------
 #p opt UM062X/6-311+G** nosymm int=superfine
 --------------------------------------------

 -------------------
 Title Card Required
 -------------------
 Symbolic Z-matrix:
 Charge =  0 Multiplicity = 1

 SCF Done:  E(UM062X) =  -77.0142994117     A.U. after   13 cycles
 SCF Done:  E(UM062X) =  -77.0137477362     A.U. after   12 cycles
 SCF Done:  E(UM062X) =  -77.0145092087     A.U. after   12 cycles
 SCF Done:  E(UM062X) =  -77.0145324498     A.U. after   11 cycles
 Optimization completed.
    -- Stationary point found.

                          Input orientation:
 ---------------------------------------------------------------------
 Center     Atomic      Atomic             Coordinates (Angstroms)
 Number     Number       Type             X           Y           Z
 ---------------------------------------------------------------------
      1          6           0       -1.057625    0.000000    0.000000
      2          6           0        1.057625    0.000000    0.000000
      3          1           0       -1.112246    0.344225    1.062349
      4          1           0        1.112392    1.030593   -0.430042
 ---------------------------------------------------------------------

 Alpha  occ. eigenvalues --  -10.66105 -10.66094  -0.76653  -0.68376  -0.40866
 Alpha  occ. eigenvalues --   -0.37820  -0.30163
 Alpha virt. eigenvalues --   -0.09154  -0.08629   0.00741   0.02703   0.06504
 Alpha virt. eigenvalues --    0.07657   0.08719   0.09804   0.10191   0.10450
 Alpha virt. eigenvalues --    0.15841   0.16530   0.21134   0.45918   0.47619

  Beta  occ. eigenvalues --  -10.66105 -10.66094  -0.76653  -0.68376  -0.40866
  Beta  occ. eigenvalues --   -0.37820  -0.30163
  Beta virt. eigenvalues --   -0.09154  -0.08629   0.00741   0.02703   0.06504
  Beta virt. eigenvalues --    0.07657   0.08719   0.09804   0.10191   0.10450
  Beta virt. eigenvalues --    0.15841   0.16530   0.21134   0.45918   0.47619

 Mulliken charges and spin densities:
               1          2
     1  C   -0.142604  -0.000000
     2  C   -0.142630   0.000000
     3  H    0.142614   0.000000
     4  H    0.142621  -0.000000
 Sum of Mulliken charges =   0.00000  -0.00000

 Dipole moment (field-independent basis, Debye):
    X=              0.0001    Y=              1.8833    Z=              0.8661  Tot=              2.0729
 Quadrupole moment (field-independent basis, Debye-Ang):
   XX=            -17.2002   YY=            -13.0099   ZZ=            -13.0745
   XY=              1.1554   XZ=             -2.5120   YZ=              0.0377

 Normal termination of Gaussian 16 at Tue Dec  3 21:24:52 2024.
