 Gaussian 16, Revision A.03,
 Gaussian 16:  ES64L-G16RevA.03 25-Dec-2016

 --------------------------------------------
 #p opt UM062X/6-311+G** nosymm int=superfine
 --------------------------------------------

 -------------------
 Title Card Required
 -------------------
 Symbolic Z-matrix:
 Charge =  0 Multiplicity = 1

 SCF Done:  E(UM062X) =  -582.367434960     A.U. after   10 cycles
 SCF Done:  E(UM062X) =  -582.369771271     A.U. after    9 cycles
 SCF Done:  E(UM062X) =  -582.370448978     A.U. after    9 cycles
 SCF Done:  E(UM062X) =  -582.370449368     A.U. after    7 cycles
 Optimization completed.
    -- Stationary point found.

                          Input orientation:
 ---------------------------------------------------------------------
 Center     Atomic      Atomic             Coordinates (Angstroms)
 Number     Number       Type             X           Y           Z
 ---------------------------------------------------------------------
      1         14           0       -2.419819    0.000000    0.000000
      2         14           0        2.419819    0.000000    0.000000
      3          1           0        2.819911   -1.420638   -0.000055
      4          1           0       -2.819687   -0.710297    1.230399
      5          1           0        2.819817    0.710473   -1.230255
      6          1           0        2.819695    0.710349    1.230366
      7          1           0       -2.819914    1.420638   -0.000112
      8          1           0       -2.819823   -0.710527   -1.230222
 ---------------------------------------------------------------------

 Alpha  occ. eigenvalues --  -67.01916 -67.01916  -5.56828  -5.56828  -3.88064
 Alpha  occ. eigenvalues --   -3.88064  -3.87818  -3.87818  -3.87818  -3.87818
 Alpha  occ. eigenvalues --   -0.61181  -0.60956  -0.42169  -0.42168  -0.42128
 Alpha  occ. eigenvalues --   -0.42127  -0.21347
 Alpha virt. eigenvalues --   -0.11441   0.01987   0.02960   0.02960   0.03227
 Alpha virt. eigenvalues --    0.04984   0.04984   0.06254   0.06659   0.07548
 Alpha virt. eigenvalues --    0.07548   0.08470   0.08471   0.11347   0.15556

  Beta  occ. eigenvalues --  -67.01916 -67.01916  -5.56828  -5.56828  -3.88064
  Beta  occ. eigenvalues --   -3.88064  -3.87818  -3.87818  -3.87818  -3.87818
  Beta  occ. eigenvalues --   -0.61181  -0.60956  -0.42169  -0.42168  -0.42128
  Beta  occ. eigenvalues --   -0.42127  -0.21347
  Beta virt. eigenvalues --   -0.11441   0.01987   0.02960   0.02960   0.03227
  Beta virt. eigenvalues --    0.04984   0.04984   0.06254   0.06659   0.07548
  Beta virt. eigenvalues --    0.07548   0.08470   0.08471   0.11347   0.15556

 Mulliken charges and spin densities:
               1          2
     1  Si   0.264488   0.000000
     2  Si   0.264488  -0.000000
     3  H   -0.088161  -0.000000
     4  H   -0.088163   0.000000
     5  H   -0.088164  -0.000000
     6  H   -0.088163  -0.000000
     7  H   -0.088161   0.000000
     8  H   -0.088164   0.000000
 Sum of Mulliken charges =  -0.00000   0.00000

 Dipole moment (field-independent basis, Debye):
    X=              0.0000    Y=             -0.0000    Z=              0.0000  Tot=              0.0000
 Quadrupole moment (field-independent basis, Debye-Ang):
   XX=            -27.8589   YY=            -32.2047   ZZ=            -32.2049
   XY=             -0.0007   XZ=              0.0000   YZ=              0.0000

 Normal termination of Gaussian 16 at Mon Apr 21 20:21:55 2025.
