 Gaussian 16, Revision A.03,
 Gaussian 16:  ES64L-G16RevA.03 25-Dec-2016

 ---------------------------------------------------
 #p UM062X/6-311+G** force int=superfine pop=saveNBO
 ---------------------------------------------------

 -------------------
 Title Card Required
 -------------------
 Symbolic Z-matrix:
 Charge =  0 Multiplicity = 1

                         Standard orientation:
 ---------------------------------------------------------------------
 Center     Atomic      Atomic             Coordinates (Angstroms)
 Number     Number       Type             X           Y           Z
 ---------------------------------------------------------------------
      1          6           0        0.000000    0.000000   -3.220794
      2         16           0        0.000000    0.000000    1.207798
 ---------------------------------------------------------------------

 SCF Done:  E(UM062X) =  -435.719347207     A.U. after   31 cycles

 The electronic state is 1-SG.
 Alpha  occ. eigenvalues --  -89.92849 -10.82437  -8.28716  -6.20492  -6.20492
 Alpha  occ. eigenvalues --   -6.20474  -0.72604  -0.71323  -0.28319  -0.27614
 Alpha  occ. eigenvalues --   -0.27614
 Alpha virt. eigenvalues --   -0.21085  -0.21085  -0.20163   0.02360   0.05541
 Alpha virt. eigenvalues --    0.05541   0.05569   0.08125   0.08249   0.08249
 Alpha virt. eigenvalues --    0.13005   0.36325   0.36776   0.36776   0.51021

  Beta  occ. eigenvalues --  -89.92849 -10.82437  -8.28716  -6.20492  -6.20492
  Beta  occ. eigenvalues --   -6.20474  -0.72604  -0.71323  -0.28319  -0.27614
  Beta  occ. eigenvalues --   -0.27614
  Beta virt. eigenvalues --   -0.21085  -0.21085  -0.20163   0.02360   0.05541
  Beta virt. eigenvalues --    0.05541   0.05569   0.08125   0.08249   0.08249
  Beta virt. eigenvalues --    0.13005   0.36325   0.36776   0.36776   0.51021

 Mulliken charges and spin densities:
               1          2
     1  C    0.218950   0.000000
     2  S   -0.218950  -0.000000
 Sum of Mulliken charges =  -0.00000   0.00000

 Dipole moment (field-independent basis, Debye):
    X=              0.0000    Y=              0.0000    Z=             -4.7023  Tot=              4.7023
 Quadrupole moment (field-independent basis, Debye-Ang):
   XX=            -20.8903   YY=            -20.8903   ZZ=             -9.1017
   XY=              0.0000   XZ=              0.0000   YZ=              0.0000

 Summary of Natural Population Analysis:

                                       Natural Population
                Natural  -----------------------------------------------
    Atom  No    Charge         Core      Valence    Rydberg      Total
 -----------------------------------------------------------------------
      C    1    0.12126      1.00000     1.87836    0.00038     2.87874
      S    2   -0.12126      5.00000     3.12106    0.00020     8.12126
 =======================================================================
   * Total *   -0.00000      6.00000     4.99943    0.00057    11.00000

 Normal termination of Gaussian 16 at Mon Apr 21 19:47:08 2025.
