 Gaussian 16, Revision A.03,
 Gaussian 16:  ES64L-G16RevA.03 25-Dec-2016

 --------------------------------------------
 #p opt UM062X/6-311+G** nosymm int=superfine
 --------------------------------------------

 -------------------
 Title Card Required
 -------------------
 Symbolic Z-matrix:
 Charge =  1 Multiplicity = 2

 SCF Done:  E(UM062X) =  -1615.50225236     A.U. after   29 cycles
 SCF Done:  E(UM062X) =  -1615.52788164     A.U. after   26 cycles
 SCF Done:  E(UM062X) =  -1615.53661092     A.U. after   26 cycles
 SCF Done:  E(UM062X) =  -1615.53677084     A.U. after   24 cycles
 SCF Done:  E(UM062X) =  -1615.53634019     A.U. after   24 cycles
 SCF Done:  E(UM062X) =  -1615.53593623     A.U. after   30 cycles
 SCF Done:  E(UM062X) =  -1615.53677091     A.U. after   28 cycles
 SCF Done:  E(UM062X) =  -1615.53687929     A.U. after   24 cycles
 SCF Done:  E(UM062X) =  -1615.53689515     A.U. after   22 cycles
 SCF Done:  E(UM062X) =  -1615.53689356     A.U. after   23 cycles
 SCF Done:  E(UM062X) =  -1615.54403804     A.U. after   18 cycles
 SCF Done:  E(UM062X) =  -1615.54404438     A.U. after   18 cycles
 SCF Done:  E(UM062X) =  -1615.54404792     A.U. after   18 cycles
 SCF Done:  E(UM062X) =  -1615.54404911     A.U. after   17 cycles
 SCF Done:  E(UM062X) =  -1615.54404955     A.U. after   16 cycles
 SCF Done:  E(UM062X) =  -1615.54404982     A.U. after   15 cycles
 SCF Done:  E(UM062X) =  -1615.54404995     A.U. after   14 cycles
 SCF Done:  E(UM062X) =  -1615.54405004     A.U. after   15 cycles
 SCF Done:  E(UM062X) =  -1615.54405011     A.U. after   14 cycles
 SCF Done:  E(UM062X) =  -1615.54405014     A.U. after   13 cycles
 Optimization completed.
    -- Stationary point found.

                          Input orientation:
 ---------------------------------------------------------------------
 Center     Atomic      Atomic             Coordinates (Angstroms)
 Number     Number       Type             X           Y           Z
 ---------------------------------------------------------------------
      1          6           0       -1.954628   -0.000000    0.000000
      2          6           0        1.954628    0.000000    0.000000
      3          6           0       -0.009063   -1.921694   -0.014963
      4          6           0       -0.014192   -3.333913   -0.006963
      5          6           0       -1.081413   -4.183547    0.412629
      6          6           0       -1.361109   -1.380488    0.258246
      7          6           0        0.608938   -5.577408   -0.241931
      8          1           0        1.209693   -6.443438   -0.481094
      9          6           0       -1.455219    1.041902    0.840379
     10          6           0       -0.639232   -5.576464    0.266545
     11          1           0       -1.236888   -6.438653    0.524965
     12          6           0        1.050176   -4.185849   -0.417144
     13          6           0        1.338669   -1.364407   -0.309338
     14          6           0        1.871794    2.459172   -0.746163
     15          6           0       -2.850646    0.059589   -1.116104
     16          6           0       -0.911907    3.361436    1.425709
     17          1           0       -1.082513    4.420969    1.277049
     18          6           0       -2.250227   -3.625830    0.839444
     19          1           0       -3.085097   -4.212521    1.202935
     20          6           0       -3.721513    1.154907   -1.437087
     21          6           0        2.318344   -2.223305   -0.774467
     22          1           0        3.283601   -1.781135   -0.996691
     23          6           0        2.705616    0.036480    1.242759
     24          6           0        3.503875    1.125015    1.704662
     25          6           0        2.203906   -3.628340   -0.877705
     26          1           0        3.034814   -4.219286   -1.244635
     27          6           0       -1.703287    2.452201    0.694003
     28          6           0       -0.529323    0.657819    1.859323
     29          1           0       -0.379447   -0.392086    2.065612
     30          6           0        2.618827   -1.087830    2.108780
     31          1           0        2.017104   -1.938904    1.822994
     32          6           0        0.041779    2.941534    2.324227
     33          1           0        0.641722    3.667668    2.859749
     34          6           0       -2.370217   -2.229581    0.692663
     35          1           0       -3.344159   -1.790667    0.882990
     36          6           0       -4.681251    0.983167   -2.462866
     37          1           0       -5.366922    1.797943   -2.661304
     38          6           0        1.486567    1.084970   -0.831542
     39          6           0       -2.758565    3.039381   -0.063313
     40          1           0       -2.863894    4.110403    0.079557
     41          6           0       -4.733302   -0.152533   -3.230989
     42          1           0       -5.470527   -0.242142   -4.019714
     43          6           0       -3.671473    2.471274   -0.888908
     44          1           0       -4.426218    3.144623   -1.281991
     45          6           0        4.177212    1.017865    2.931317
     46          1           0        4.798954    1.849135    3.244295
     47          6           0        0.199967    1.570559    2.577108
     48          1           0        0.910362    1.225852    3.319937
     49          6           0       -2.900942   -1.078612   -1.983552
     50          1           0       -2.197406   -1.884793   -1.837760
     51          6           0        4.067627   -0.091906    3.749704
     52          1           0        4.596817   -0.134226    4.693276
     53          6           0        1.202708    3.414537   -1.523715
     54          1           0        1.514461    4.449605   -1.434453
     55          6           0        3.266233   -1.150412    3.328025
     56          1           0        3.152210   -2.033130    3.945612
     57          6           0        0.187154    3.085159   -2.406223
     58          1           0       -0.307196    3.853682   -2.987599
     59          6           0        2.988268    2.966539    0.033943
     60          1           0        3.290886    3.973112   -0.239871
     61          6           0       -3.797794   -1.178349   -3.014144
     62          1           0       -3.786649   -2.051316   -3.654390
     63          6           0        3.691020    2.396804    1.022895
     64          1           0        4.488703    3.003126    1.441459
     65          6           0        0.514292    0.776224   -1.824965
     66          1           0        0.264618   -0.259662   -2.010005
     67          6           0       -0.131643    1.738789   -2.575896
     68          1           0       -0.873048    1.435653   -3.307630
 ---------------------------------------------------------------------

 Alpha  occ. eigenvalues --  -10.74150 -10.70917 -10.70744 -10.70520 -10.70380
 Alpha  occ. eigenvalues --  -10.68997 -10.68892 -10.68869 -10.68770 -10.68121
 Alpha  occ. eigenvalues --  -10.67888 -10.67766 -10.67546 -10.67348 -10.67254
 Alpha  occ. eigenvalues --  -10.67153 -10.67128 -10.66928 -10.66692 -10.66283
 Alpha  occ. eigenvalues --  -10.66269 -10.66098 -10.65632 -10.65538 -10.65520
 Alpha  occ. eigenvalues --  -10.65319 -10.64958 -10.64664 -10.64390 -10.64358
 Alpha  occ. eigenvalues --  -10.64060 -10.64007 -10.63984 -10.63948 -10.63907
 Alpha  occ. eigenvalues --  -10.63858 -10.63775 -10.63745 -10.63514 -10.63440
 Alpha  occ. eigenvalues --  -10.63368 -10.63273  -1.13031  -1.10758  -1.09968
 Alpha  occ. eigenvalues --   -1.08273  -1.06385  -1.05950  -1.04284  -1.03942
 Alpha  occ. eigenvalues --   -1.01817  -1.00051  -0.99773  -0.99064  -0.98348
 Alpha  occ. eigenvalues --   -0.95539  -0.95263  -0.95003  -0.94331  -0.93597
 Alpha  occ. eigenvalues --   -0.91693  -0.90953  -0.88539  -0.86973  -0.85601
 Alpha  occ. eigenvalues --   -0.83544  -0.82427  -0.81694  -0.81338  -0.81071
 Alpha  occ. eigenvalues --   -0.78994  -0.77956  -0.77825  -0.77635  -0.75652
 Alpha  occ. eigenvalues --   -0.75013  -0.73723  -0.73086  -0.71345  -0.69618
 Alpha  occ. eigenvalues --   -0.69272  -0.68510  -0.68379  -0.67622  -0.67147
 Alpha  occ. eigenvalues --   -0.66449  -0.65838  -0.64912  -0.64333  -0.63970
 Alpha  occ. eigenvalues --   -0.63735  -0.63084  -0.62465  -0.62365  -0.61850
 Alpha  occ. eigenvalues --   -0.61323  -0.60593  -0.60411  -0.59252  -0.59120
 Alpha  occ. eigenvalues --   -0.58724  -0.58703  -0.58424  -0.57880  -0.57687
 Alpha  occ. eigenvalues --   -0.57620  -0.57178  -0.56010  -0.55697  -0.54790
 Alpha  occ. eigenvalues --   -0.54479  -0.53971  -0.53924  -0.53465  -0.53283
 Alpha  occ. eigenvalues --   -0.52675  -0.51812  -0.51229  -0.51114  -0.50880
 Alpha  occ. eigenvalues --   -0.50435  -0.50087  -0.49999  -0.49063  -0.48736
 Alpha  occ. eigenvalues --   -0.48041  -0.47526  -0.46904  -0.46422  -0.44618
 Alpha  occ. eigenvalues --   -0.43271  -0.41874  -0.41177  -0.40170  -0.39511
 Alpha  occ. eigenvalues --   -0.38232  -0.37260  -0.36680  -0.29473
 Alpha virt. eigenvalues --   -0.21985  -0.17448  -0.15484  -0.12722  -0.10779
 Alpha virt. eigenvalues --   -0.10136  -0.09469  -0.08734  -0.07834  -0.07688
 Alpha virt. eigenvalues --   -0.07444  -0.06922  -0.06829  -0.06197  -0.05956

  Beta  occ. eigenvalues --  -10.74147 -10.70917 -10.70743 -10.70516 -10.70380
  Beta  occ. eigenvalues --  -10.68995 -10.68892 -10.68863 -10.68749 -10.68120
  Beta  occ. eigenvalues --  -10.67888 -10.67766 -10.67546 -10.67348 -10.67253
  Beta  occ. eigenvalues --  -10.67170 -10.67150 -10.66688 -10.66545 -10.66358
  Beta  occ. eigenvalues --  -10.66281 -10.66180 -10.65632 -10.65538 -10.65431
  Beta  occ. eigenvalues --  -10.65240 -10.64952 -10.64659 -10.64392 -10.64323
  Beta  occ. eigenvalues --  -10.64044 -10.64009 -10.63999 -10.63936 -10.63859
  Beta  occ. eigenvalues --  -10.63835 -10.63749 -10.63743 -10.63472 -10.63460
  Beta  occ. eigenvalues --  -10.63376 -10.63211  -1.13016  -1.10716  -1.09955
  Beta  occ. eigenvalues --   -1.07926  -1.06368  -1.05764  -1.04268  -1.03752
  Beta  occ. eigenvalues --   -1.01775  -0.99853  -0.99742  -0.98615  -0.98319
  Beta  occ. eigenvalues --   -0.95356  -0.95246  -0.94948  -0.94149  -0.93566
  Beta  occ. eigenvalues --   -0.91564  -0.90803  -0.88519  -0.86965  -0.84953
  Beta  occ. eigenvalues --   -0.83444  -0.82302  -0.81611  -0.81309  -0.81002
  Beta  occ. eigenvalues --   -0.78883  -0.77926  -0.77761  -0.77499  -0.75574
  Beta  occ. eigenvalues --   -0.74887  -0.73420  -0.72907  -0.71309  -0.69596
  Beta  occ. eigenvalues --   -0.69224  -0.68458  -0.68328  -0.67383  -0.67112
  Beta  occ. eigenvalues --   -0.66385  -0.65758  -0.64684  -0.64267  -0.63921
  Beta  occ. eigenvalues --   -0.63567  -0.62807  -0.62444  -0.62286  -0.61831
  Beta  occ. eigenvalues --   -0.61217  -0.60482  -0.60336  -0.59178  -0.59043
  Beta  occ. eigenvalues --   -0.58574  -0.58523  -0.58242  -0.57752  -0.57605
  Beta  occ. eigenvalues --   -0.57543  -0.57100  -0.55919  -0.55268  -0.54682
  Beta  occ. eigenvalues --   -0.54378  -0.53935  -0.53632  -0.53225  -0.53067
  Beta  occ. eigenvalues --   -0.52643  -0.51767  -0.51122  -0.50981  -0.50679
  Beta  occ. eigenvalues --   -0.50268  -0.50040  -0.49825  -0.48856  -0.48639
  Beta  occ. eigenvalues --   -0.47854  -0.47360  -0.46329  -0.45663  -0.43727
  Beta  occ. eigenvalues --   -0.42861  -0.41254  -0.40653  -0.39976  -0.39041
  Beta  occ. eigenvalues --   -0.38176  -0.37023  -0.35888
  Beta virt. eigenvalues --   -0.21926  -0.17489  -0.16663  -0.15252  -0.12786
  Beta virt. eigenvalues --   -0.10750  -0.10034  -0.09411  -0.08741  -0.07727
  Beta virt. eigenvalues --   -0.07398  -0.07065  -0.06786  -0.06531  -0.06169

 Mulliken charges and spin densities:
               1          2
     1  C    0.393073  -0.007128
     2  C    0.217010   0.579955
     3  C    0.453011   0.017501
     4  C    0.085230  -0.009202
     5  C    0.123954   0.001931
     6  C   -0.016847  -0.005613
     7  C   -0.262961   0.001352
     8  H    0.177066   0.000059
     9  C   -0.040277   0.002099
    10  C   -0.298978   0.005484
    11  H    0.175086  -0.000161
    12  C    0.133986   0.022779
    13  C    0.020993  -0.109694
    14  C    0.602193   0.162324
    15  C    0.158438  -0.000695
    16  C   -0.360918   0.009960
    17  H    0.163358  -0.000640
    18  C   -0.315530  -0.001335
    19  H    0.172223   0.000096
    20  C    0.695920   0.001920
    21  C   -0.432945   0.056882
    22  H    0.173726  -0.001110
    23  C    0.170109  -0.094701
    24  C    0.717600   0.154620
    25  C   -0.277722   0.020605
    26  H    0.172314   0.000304
    27  C    0.675651   0.027736
    28  C   -0.419702  -0.026148
    29  H    0.217496   0.002085
    30  C   -0.283719   0.111329
    31  H    0.198910  -0.005106
    32  C   -0.142385  -0.002117
    33  H    0.183260   0.000299
    34  C   -0.592004  -0.001627
    35  H    0.171453  -0.000086
    36  C   -0.134810   0.005302
    37  H    0.181979  -0.000039
    38  C    0.053022  -0.126388
    39  C   -0.553180  -0.011413
    40  H    0.179204   0.000208
    41  C   -0.307985   0.003165
    42  H    0.194640  -0.000116
    43  C   -0.474883   0.003130
    44  H    0.180349  -0.000591
    45  C   -0.185632  -0.073033
    46  H    0.165018   0.001916
    47  C   -0.004176   0.003485
    48  H    0.192983   0.000374
    49  C   -0.195392   0.001568
    50  H    0.221631  -0.000115
    51  C   -0.374823   0.142412
    52  H    0.175239  -0.006816
    53  C   -0.179062  -0.095036
    54  H    0.156435   0.002330
    55  C   -0.291641  -0.056266
    56  H    0.166557   0.001909
    57  C   -0.326231   0.164972
    58  H    0.165946  -0.008416
    59  C   -0.640768   0.016476
    60  H    0.168389  -0.000740
    61  C   -0.148977   0.000035
    62  H    0.184441  -0.000110
    63  C   -0.494372   0.020252
    64  H    0.167875  -0.002294
    65  C   -0.102284   0.178668
    66  H    0.177412  -0.010038
    67  C   -0.291650  -0.071312
    68  H    0.166674   0.002563
 Sum of Mulliken charges =   1.00000   1.00000

 Dipole moment (field-independent basis, Debye):
    X=             -6.0307    Y=              1.9528    Z=             -0.5105  Tot=              6.3595
 Quadrupole moment (field-independent basis, Debye-Ang):
   XX=           -178.6726   YY=           -172.5376   ZZ=           -209.1110
   XY=             -3.8315   XZ=             32.2796   YZ=              4.1374

 Normal termination of Gaussian 16 at Fri Nov 22 16:51:41 2024.
