 Gaussian 16, Revision A.03,
 Gaussian 16:  ES64L-G16RevA.03 25-Dec-2016

 ---------------------------------------
 #p UM062X/6-311+G** force int=superfine
 ---------------------------------------

 -------------------
 Title Card Required
 -------------------
 Symbolic Z-matrix:
 Charge =  0 Multiplicity = 1

                         Standard orientation:
 ---------------------------------------------------------------------
 Center     Atomic      Atomic             Coordinates (Angstroms)
 Number     Number       Type             X           Y           Z
 ---------------------------------------------------------------------
      1          6           0        0.000000    0.994308   -0.000000
      2          6           0       -0.000000   -0.994308    0.000000
      3          1           0        0.971906    1.462381   -0.000000
      4          1           0       -0.971902    1.462360   -0.000000
      5          1           0       -0.971906   -1.462381    0.000000
      6          1           0        0.971902   -1.462360    0.000000
 ---------------------------------------------------------------------

 SCF Done:  E(UM062X) =  -78.3821637550     A.U. after    8 cycles

 The electronic state is 1-AG.
 Alpha  occ. eigenvalues --  -10.60925 -10.60911  -0.77615  -0.71315  -0.52962
 Alpha  occ. eigenvalues --   -0.49624  -0.38246  -0.26284
 Alpha virt. eigenvalues --   -0.06326   0.01991   0.03364   0.05392   0.07352
 Alpha virt. eigenvalues --    0.09068   0.09863   0.09958   0.11419   0.15375
 Alpha virt. eigenvalues --    0.16456   0.20778   0.21237   0.28202   0.39779

  Beta  occ. eigenvalues --  -10.60925 -10.60911  -0.77615  -0.71315  -0.52962
  Beta  occ. eigenvalues --   -0.49624  -0.38246  -0.26284
  Beta virt. eigenvalues --   -0.06326   0.01991   0.03364   0.05392   0.07352
  Beta virt. eigenvalues --    0.09068   0.09863   0.09958   0.11419   0.15375
  Beta virt. eigenvalues --    0.16456   0.20778   0.21237   0.28202   0.39779

 Mulliken charges and spin densities:
               1          2
     1  C   -0.358986  -0.000000
     2  C   -0.358986  -0.000000
     3  H    0.179493  -0.000000
     4  H    0.179493   0.000000
     5  H    0.179493  -0.000000
     6  H    0.179493   0.000000
 Sum of Mulliken charges =  -0.00000  -0.00000

 Dipole moment (field-independent basis, Debye):
    X=             -0.0000    Y=              0.0000    Z=              0.0000  Tot=              0.0000
 Quadrupole moment (field-independent basis, Debye-Ang):
   XX=            -12.0970   YY=            -11.2859   ZZ=            -18.1145
   XY=              0.0001   XZ=             -0.0000   YZ=             -0.0000

 Normal termination of Gaussian 16 at Tue Nov 19 11:49:32 2024.
