 Gaussian 16, Revision A.03,
 Gaussian 16:  ES64L-G16RevA.03 25-Dec-2016

 --------------------------------------------
 #p opt UM062X/6-311+G** nosymm int=superfine
 --------------------------------------------

 -------------------
 Title Card Required
 -------------------
 Symbolic Z-matrix:
 Charge =  0 Multiplicity = 1

 SCF Done:  E(UM062X) =  -78.2007347050     A.U. after    9 cycles
 SCF Done:  E(UM062X) =  -78.2176399347     A.U. after    9 cycles
 SCF Done:  E(UM062X) =  -78.2329797522     A.U. after    8 cycles
 SCF Done:  E(UM062X) =  -78.2333231795     A.U. after    8 cycles
 SCF Done:  E(UM062X) =  -78.2333245816     A.U. after    7 cycles
 Optimization completed.
    -- Stationary point found.

                          Input orientation:
 ---------------------------------------------------------------------
 Center     Atomic      Atomic             Coordinates (Angstroms)
 Number     Number       Type             X           Y           Z
 ---------------------------------------------------------------------
      1          6           0       -2.010595    0.000000    0.000000
      2          6           0        2.010595    0.000000    0.000000
      3          1           0       -2.716455   -0.858466   -0.000000
      4          1           0       -2.716423    0.858494    0.000000
      5          1           0        2.716455    0.858466   -0.000000
      6          1           0        2.716423   -0.858494    0.000000
 ---------------------------------------------------------------------

 Alpha  occ. eigenvalues --  -10.59488 -10.59488  -0.74485  -0.74446  -0.46198
 Alpha  occ. eigenvalues --   -0.46162  -0.30741  -0.29133
 Alpha virt. eigenvalues --   -0.07247  -0.06810   0.02518   0.03169   0.06591
 Alpha virt. eigenvalues --    0.08619   0.08670   0.10395   0.12279   0.15470
 Alpha virt. eigenvalues --    0.17529   0.19944   0.20765   0.21754   0.45526

  Beta  occ. eigenvalues --  -10.59488 -10.59488  -0.74485  -0.74446  -0.46198
  Beta  occ. eigenvalues --   -0.46162  -0.30741  -0.29133
  Beta virt. eigenvalues --   -0.07247  -0.06810   0.02518   0.03169   0.06591
  Beta virt. eigenvalues --    0.08619   0.08670   0.10395   0.12279   0.15470
  Beta virt. eigenvalues --    0.17529   0.19944   0.20765   0.21754   0.45526

 Mulliken charges and spin densities:
               1          2
     1  C   -0.238698  -0.000000
     2  C   -0.238698  -0.000000
     3  H    0.119349   0.000000
     4  H    0.119349  -0.000000
     5  H    0.119349  -0.000000
     6  H    0.119349   0.000000
 Sum of Mulliken charges =  -0.00000  -0.00000

 Dipole moment (field-independent basis, Debye):
    X=              0.0000    Y=              0.0000    Z=             -0.0000  Tot=              0.0000
 Quadrupole moment (field-independent basis, Debye-Ang):
   XX=             -3.0775   YY=            -14.6477   ZZ=            -12.9281
   XY=             -0.0001   XZ=             -0.0000   YZ=             -0.0000

 Normal termination of Gaussian 16 at Tue Dec  3 11:18:42 2024.
