 Gaussian 16, Revision A.03,
 Gaussian 16:  ES64L-G16RevA.03 25-Dec-2016

 --------------------------------------------
 #p opt UM062X/6-311+G** nosymm int=superfine
 --------------------------------------------

 -------------------
 Title Card Required
 -------------------
 Symbolic Z-matrix:
 Charge =  0 Multiplicity = 1

 SCF Done:  E(UM062X) =  -437.167248761     A.U. after   16 cycles
 SCF Done:  E(UM062X) =  -437.168987263     A.U. after   15 cycles
 SCF Done:  E(UM062X) =  -437.169595722     A.U. after   14 cycles
 Optimization completed.
    -- Stationary point found.

                          Input orientation:
 ---------------------------------------------------------------------
 Center     Atomic      Atomic             Coordinates (Angstroms)
 Number     Number       Type             X           Y           Z
 ---------------------------------------------------------------------
      1          6           0       -1.802140    0.000000    0.000000
      2         16           0        1.802140    0.000000    0.000000
      3          1           0       -2.469645   -0.877960   -0.000168
      4          1           0       -2.470585    0.877245   -0.000298
 ---------------------------------------------------------------------

 Alpha  occ. eigenvalues --  -89.93116 -10.64525  -8.29134  -6.21893  -6.20360
 Alpha  occ. eigenvalues --   -6.20358  -0.78530  -0.73285  -0.51187  -0.34358
 Alpha  occ. eigenvalues --   -0.30697  -0.30681
 Alpha virt. eigenvalues --   -0.15527  -0.10892   0.01066   0.05066   0.05368
 Alpha virt. eigenvalues --    0.06625   0.08211   0.08848   0.09277   0.14070
 Alpha virt. eigenvalues --    0.16972   0.17843   0.36111   0.36626   0.37026

  Beta  occ. eigenvalues --  -89.93116 -10.64525  -8.29134  -6.21893  -6.20360
  Beta  occ. eigenvalues --   -6.20358  -0.78530  -0.73285  -0.51187  -0.34358
  Beta  occ. eigenvalues --   -0.30697  -0.30681
  Beta virt. eigenvalues --   -0.15527  -0.10892   0.01066   0.05066   0.05368
  Beta virt. eigenvalues --    0.06625   0.08211   0.08848   0.09277   0.14070
  Beta virt. eigenvalues --    0.16972   0.17843   0.36111   0.36626   0.37026

 Mulliken charges and spin densities:
               1          2
     1  C   -0.273054   0.000000
     2  S   -0.038046  -0.000000
     3  H    0.155544  -0.000000
     4  H    0.155555   0.000000
 Sum of Mulliken charges =  -0.00000  -0.00000

 Dipole moment (field-independent basis, Debye):
    X=             -3.3445    Y=             -0.0010    Z=             -0.0007  Tot=              3.3445
 Quadrupole moment (field-independent basis, Debye-Ang):
   XX=            -11.1898   YY=            -22.3242   ZZ=            -21.8716
   XY=              0.0001   XZ=             -0.0001   YZ=              0.0000

 Normal termination of Gaussian 16 at Mon Apr 21 19:44:28 2025.
