 Gaussian 16, Revision A.03,
 Gaussian 16:  ES64L-G16RevA.03 25-Dec-2016

 ---------------------------------------------------
 #p UM062X/6-311+G** force int=superfine pop=saveNBO
 ---------------------------------------------------

 -------------------
 Title Card Required
 -------------------
 Symbolic Z-matrix:
 Charge =  0 Multiplicity = 1

                         Standard orientation:
 ---------------------------------------------------------------------
 Center     Atomic      Atomic             Coordinates (Angstroms)
 Number     Number       Type             X           Y           Z
 ---------------------------------------------------------------------
      1          6           0        0.000000    0.000000   -0.726951
      2          8           0        0.000000    0.000000    0.545213
 ---------------------------------------------------------------------

 SCF Done:  E(UM062X) =  -113.270688766     A.U. after    9 cycles

 The electronic state is 1-SG.
 Alpha  occ. eigenvalues --  -19.74042 -10.71352  -1.21789  -0.67211  -0.50910
 Alpha  occ. eigenvalues --   -0.50910  -0.46341
 Alpha virt. eigenvalues --   -0.03511  -0.03511   0.03571   0.06006   0.07187
 Alpha virt. eigenvalues --    0.07187   0.19359   0.22476   0.22476   0.28427
 Alpha virt. eigenvalues --    0.36603   0.55574   0.55574   0.61263   0.82585

  Beta  occ. eigenvalues --  -19.74042 -10.71352  -1.21789  -0.67211  -0.50910
  Beta  occ. eigenvalues --   -0.50910  -0.46341
  Beta virt. eigenvalues --   -0.03511  -0.03511   0.03571   0.06006   0.07187
  Beta virt. eigenvalues --    0.07187   0.19359   0.22476   0.22476   0.28427
  Beta virt. eigenvalues --    0.36603   0.55574   0.55574   0.61263   0.82585

 Mulliken charges and spin densities:
               1          2
     1  C    0.103096  -0.000000
     2  O   -0.103096  -0.000000
 Sum of Mulliken charges =  -0.00000  -0.00000

 Dipole moment (field-independent basis, Debye):
    X=              0.0000    Y=              0.0000    Z=             -0.6290  Tot=              0.6290
 Quadrupole moment (field-independent basis, Debye-Ang):
   XX=            -10.6021   YY=            -10.6021   ZZ=            -12.3367
   XY=              0.0000   XZ=              0.0000   YZ=              0.0000

 Summary of Natural Population Analysis:

                                       Natural Population
                Natural  -----------------------------------------------
    Atom  No    Charge         Core      Valence    Rydberg      Total
 -----------------------------------------------------------------------
      C    1    0.28134      0.99994     1.69633    0.02239     2.71866
      O    2   -0.28134      0.99993     3.27466    0.00674     4.28134
 =======================================================================
   * Total *   -0.00000      1.99987     4.97100    0.02913     7.00000

 Normal termination of Gaussian 16 at Mon Apr 21 19:31:11 2025.
