 Gaussian 16, Revision A.03,
 Gaussian 16:  ES64L-G16RevA.03 25-Dec-2016

 --------------------------------------------
 #p opt UM062X/6-311+G** nosymm int=superfine
 --------------------------------------------

 -------------------
 Title Card Required
 -------------------
 Symbolic Z-matrix:
 Charge =  0 Multiplicity = 1

 SCF Done:  E(UM062X) =  -77.0130197864     A.U. after   10 cycles
 SCF Done:  E(UM062X) =  -77.0573530144     A.U. after    9 cycles
 SCF Done:  E(UM062X) =  -77.1195990607     A.U. after   10 cycles
 SCF Done:  E(UM062X) =  -77.1224185536     A.U. after    9 cycles
 SCF Done:  E(UM062X) =  -77.1224272125     A.U. after    7 cycles
 Optimization completed.
    -- Stationary point found.

                          Input orientation:
 ---------------------------------------------------------------------
 Center     Atomic      Atomic             Coordinates (Angstroms)
 Number     Number       Type             X           Y           Z
 ---------------------------------------------------------------------
      1          6           0       -0.819966    0.000000    0.000000
      2          6           0        0.819966    0.000000    0.000000
      3          1           0       -1.894724   -0.000034    0.000000
      4          1           0        1.894690   -0.000037   -0.000011
 ---------------------------------------------------------------------

 Alpha  occ. eigenvalues --  -10.65013 -10.64977  -0.78234  -0.69280  -0.53724
 Alpha  occ. eigenvalues --   -0.30661  -0.30661
 Alpha virt. eigenvalues --   -0.03655  -0.03655   0.00676   0.02329   0.07001
 Alpha virt. eigenvalues --    0.08351   0.08351   0.09500   0.11224   0.11224
 Alpha virt. eigenvalues --    0.17754   0.22769   0.28470   0.46632   0.58658

  Beta  occ. eigenvalues --  -10.65013 -10.64977  -0.78234  -0.69280  -0.53724
  Beta  occ. eigenvalues --   -0.30661  -0.30661
  Beta virt. eigenvalues --   -0.03655  -0.03655   0.00676   0.02329   0.07001
  Beta virt. eigenvalues --    0.08351   0.08351   0.09500   0.11224   0.11224
  Beta virt. eigenvalues --    0.17754   0.22769   0.28470   0.46632   0.58658

 Mulliken charges and spin densities:
               1          2
     1  C   -0.240549   0.000000
     2  C   -0.240551  -0.000000
     3  H    0.240555  -0.000000
     4  H    0.240545   0.000000
 Sum of Mulliken charges =  -0.00000   0.00000

 Dipole moment (field-independent basis, Debye):
    X=             -0.0001    Y=             -0.0001    Z=             -0.0000  Tot=              0.0001
 Quadrupole moment (field-independent basis, Debye-Ang):
   XX=             -5.2096   YY=            -15.5963   ZZ=            -15.5963
   XY=             -0.0000   XZ=             -0.0000   YZ=              0.0000

 Normal termination of Gaussian 16 at Tue Dec  3 20:12:58 2024.
