 Gaussian 16, Revision A.03,
 Gaussian 16:  ES64L-G16RevA.03 25-Dec-2016

 --------------------------------------------
 #p opt UM062X/6-311+G** nosymm int=superfine
 --------------------------------------------

 -------------------
 Title Card Required
 -------------------
 Symbolic Z-matrix:
 Charge =  0 Multiplicity = 1

 SCF Done:  E(UM062X) =  -79.7602089701     A.U. after    8 cycles
 SCF Done:  E(UM062X) =  -79.7717985703     A.U. after    8 cycles
 SCF Done:  E(UM062X) =  -79.7733594772     A.U. after    8 cycles
 Optimization completed.
    -- Stationary point found.

                          Input orientation:
 ---------------------------------------------------------------------
 Center     Atomic      Atomic             Coordinates (Angstroms)
 Number     Number       Type             X           Y           Z
 ---------------------------------------------------------------------
      1          6           0       -0.900985    0.000000    0.000000
      2          6           0        0.901078    0.000000    0.000000
      3          1           0        1.236412   -0.894987    0.517871
      4          1           0       -1.236331   -0.895989   -0.516122
      5          1           0        1.236425    0.895989    0.516120
      6          1           0        1.236369   -0.001010   -1.034028
      7          1           0       -1.236320    0.894987   -0.517871
      8          1           0       -1.236280    0.001009    1.034028
 ---------------------------------------------------------------------

 Alpha  occ. eigenvalues --  -10.53649 -10.53634  -0.80899  -0.71526  -0.48887
 Alpha  occ. eigenvalues --   -0.48887  -0.42820  -0.42820  -0.37020
 Alpha virt. eigenvalues --    0.02253   0.03629   0.05628   0.05628   0.08618
 Alpha virt. eigenvalues --    0.08618   0.09222   0.13439   0.18038   0.18369
 Alpha virt. eigenvalues --    0.18369   0.21766   0.21766   0.24236   0.27505

  Beta  occ. eigenvalues --  -10.53649 -10.53634  -0.80899  -0.71526  -0.48887
  Beta  occ. eigenvalues --   -0.48887  -0.42820  -0.42820  -0.37020
  Beta virt. eigenvalues --    0.02253   0.03629   0.05628   0.05628   0.08618
  Beta virt. eigenvalues --    0.08618   0.09222   0.13439   0.18038   0.18369
  Beta virt. eigenvalues --    0.18369   0.21766   0.21766   0.24236   0.27505

 Mulliken charges and spin densities:
               1          2
     1  C   -0.488411  -0.000000
     2  C   -0.488411   0.000000
     3  H    0.162804  -0.000000
     4  H    0.162804  -0.000000
     5  H    0.162804  -0.000000
     6  H    0.162803  -0.000000
     7  H    0.162804  -0.000000
     8  H    0.162803   0.000000
 Sum of Mulliken charges =  -0.00000  -0.00000

 Dipole moment (field-independent basis, Debye):
    X=             -0.0000    Y=             -0.0000    Z=             -0.0000  Tot=              0.0000
 Quadrupole moment (field-independent basis, Debye-Ang):
   XX=            -15.6055   YY=            -14.9297   ZZ=            -14.9298
   XY=              0.0000   XZ=              0.0001   YZ=             -0.0000

 Normal termination of Gaussian 16 at Tue Nov 19 11:59:58 2024.
