 Gaussian 16, Revision A.03,
 Gaussian 16:  ES64L-G16RevA.03 25-Dec-2016

 --------------------------------------------
 #p opt UM062X/6-311+G** nosymm int=superfine
 --------------------------------------------

 -------------------
 Title Card Required
 -------------------
 Symbolic Z-matrix:
 Charge =  0 Multiplicity = 1

 SCF Done:  E(UM062X) =  -78.1970360910     A.U. after    9 cycles
 SCF Done:  E(UM062X) =  -78.2142557591     A.U. after    9 cycles
 SCF Done:  E(UM062X) =  -78.2302987261     A.U. after    8 cycles
 SCF Done:  E(UM062X) =  -78.2306859576     A.U. after    8 cycles
 SCF Done:  E(UM062X) =  -78.2306876026     A.U. after    7 cycles
 Optimization completed.
    -- Stationary point found.

                          Input orientation:
 ---------------------------------------------------------------------
 Center     Atomic      Atomic             Coordinates (Angstroms)
 Number     Number       Type             X           Y           Z
 ---------------------------------------------------------------------
      1          6           0       -1.760595    0.000000    0.000000
      2          6           0        1.760595    0.000000    0.000000
      3          1           0       -2.470132   -0.856942   -0.000000
      4          1           0       -2.470096    0.856973   -0.000000
      5          1           0        2.470132    0.856942    0.000000
      6          1           0        2.470096   -0.856973    0.000000
 ---------------------------------------------------------------------

 Alpha  occ. eigenvalues --  -10.59095 -10.59095  -0.74180  -0.74067  -0.45805
 Alpha  occ. eigenvalues --   -0.45706  -0.31159  -0.27966
 Alpha virt. eigenvalues --   -0.07187  -0.06352   0.02556   0.03447   0.06691
 Alpha virt. eigenvalues --    0.08599   0.08853   0.10467   0.12560   0.15440
 Alpha virt. eigenvalues --    0.17607   0.19987   0.21060   0.22928   0.45162

  Beta  occ. eigenvalues --  -10.59095 -10.59095  -0.74180  -0.74067  -0.45805
  Beta  occ. eigenvalues --   -0.45706  -0.31159  -0.27966
  Beta virt. eigenvalues --   -0.07187  -0.06352   0.02556   0.03447   0.06691
  Beta virt. eigenvalues --    0.08599   0.08853   0.10467   0.12560   0.15440
  Beta virt. eigenvalues --    0.17607   0.19987   0.21060   0.22928   0.45162

 Mulliken charges and spin densities:
               1          2
     1  C   -0.236748   0.000000
     2  C   -0.236748   0.000000
     3  H    0.118375  -0.000000
     4  H    0.118374  -0.000000
     5  H    0.118375   0.000000
     6  H    0.118374   0.000000
 Sum of Mulliken charges =  -0.00000   0.00000

 Dipole moment (field-independent basis, Debye):
    X=             -0.0000    Y=              0.0000    Z=              0.0000  Tot=              0.0000
 Quadrupole moment (field-independent basis, Debye-Ang):
   XX=             -5.7811   YY=            -14.7545   ZZ=            -12.9809
   XY=             -0.0001   XZ=              0.0000   YZ=              0.0000

 Normal termination of Gaussian 16 at Tue Dec  3 11:14:14 2024.
