 Gaussian 16, Revision A.03,
 Gaussian 16:  ES64L-G16RevA.03 25-Dec-2016

 --------------------------------------------
 #p opt UM062X/6-311+G** nosymm int=superfine
 --------------------------------------------

 -------------------
 Title Card Required
 -------------------
 Symbolic Z-matrix:
 Charge =  0 Multiplicity = 1

 SCF Done:  E(UM062X) =  -78.1755007550     A.U. after    8 cycles
 SCF Done:  E(UM062X) =  -78.1766504238     A.U. after    9 cycles
 SCF Done:  E(UM062X) =  -78.1773061436     A.U. after    9 cycles
 SCF Done:  E(UM062X) =  -78.1773072104     A.U. after    7 cycles
 Optimization completed.
    -- Stationary point found.

                          Input orientation:
 ---------------------------------------------------------------------
 Center     Atomic      Atomic             Coordinates (Angstroms)
 Number     Number       Type             X           Y           Z
 ---------------------------------------------------------------------
      1          6           0       -1.460595    0.000000    0.000000
      2          6           0        1.460595    0.000000    0.000000
      3          1           0       -1.841761   -1.007835   -0.000000
      4          1           0       -1.841753    1.007838   -0.000000
      5          1           0        1.841761    1.007835    0.000000
      6          1           0        1.841753   -1.007838    0.000000
 ---------------------------------------------------------------------

 Alpha  occ. eigenvalues --  -10.63236 -10.63232  -0.75735  -0.74394  -0.53972
 Alpha  occ. eigenvalues --   -0.53483  -0.29328  -0.22913
 Alpha virt. eigenvalues --   -0.11884  -0.09610   0.03393   0.05113   0.05244
 Alpha virt. eigenvalues --    0.06883   0.09333   0.10455   0.11056   0.13668
 Alpha virt. eigenvalues --    0.16199   0.18311   0.21474   0.26860   0.40678

  Beta  occ. eigenvalues --  -10.63236 -10.63232  -0.75735  -0.74394  -0.53972
  Beta  occ. eigenvalues --   -0.53483  -0.29328  -0.22913
  Beta virt. eigenvalues --   -0.11884  -0.09610   0.03393   0.05113   0.05244
  Beta virt. eigenvalues --    0.06883   0.09333   0.10455   0.11056   0.13668
  Beta virt. eigenvalues --    0.16199   0.18311   0.21474   0.26860   0.40678

 Mulliken charges and spin densities:
               1          2
     1  C   -0.388720  -0.000000
     2  C   -0.388720   0.000000
     3  H    0.194360   0.000000
     4  H    0.194360   0.000000
     5  H    0.194360  -0.000000
     6  H    0.194360  -0.000000
 Sum of Mulliken charges =  -0.00000  -0.00000

 Dipole moment (field-independent basis, Debye):
    X=             -0.0000    Y=             -0.0000    Z=             -0.0000  Tot=              0.0000
 Quadrupole moment (field-independent basis, Debye-Ang):
   XX=             -9.4664   YY=            -11.7865   ZZ=            -19.1559
   XY=              0.0000   XZ=              0.0000   YZ=              0.0000

 Normal termination of Gaussian 16 at Tue Dec  3 11:09:05 2024.
