 Gaussian 16, Revision A.03,
 Gaussian 16:  ES64L-G16RevA.03 25-Dec-2016

 ---------------------------------------
 #p UM062X/6-311+G** force int=superfine
 ---------------------------------------

 -------------------
 Title Card Required
 -------------------
 Symbolic Z-matrix:
 Charge =  0 Multiplicity = 1

                         Standard orientation:
 ---------------------------------------------------------------------
 Center     Atomic      Atomic             Coordinates (Angstroms)
 Number     Number       Type             X           Y           Z
 ---------------------------------------------------------------------
      1          6           0       -0.053566   -0.208938    0.866967
      2          6           0        0.053566    0.208938   -0.866967
      3          1           0        0.359604   -0.681099   -1.411348
      4          1           0       -0.789216   -1.001640    0.979278
      5          1           0        0.789215    1.001641   -0.979279
      6          1           0       -0.927281    0.543743   -1.195626
      7          1           0       -0.359604    0.681100    1.411348
      8          1           0        0.927281   -0.543744    1.195628
 ---------------------------------------------------------------------

 SCF Done:  E(UM062X) =  -79.7754235270     A.U. after    8 cycles

 The electronic state is 1-A.
 Alpha  occ. eigenvalues --  -10.53579 -10.53563  -0.81061  -0.71445  -0.48937
 Alpha  occ. eigenvalues --   -0.48937  -0.42700  -0.42700  -0.37305
 Alpha virt. eigenvalues --    0.02248   0.03672   0.05624   0.05624   0.08627
 Alpha virt. eigenvalues --    0.08627   0.09203   0.13481   0.18381   0.18381
 Alpha virt. eigenvalues --    0.18544   0.21739   0.21740   0.24229   0.27538

  Beta  occ. eigenvalues --  -10.53579 -10.53563  -0.81061  -0.71445  -0.48937
  Beta  occ. eigenvalues --   -0.48937  -0.42700  -0.42700  -0.37305
  Beta virt. eigenvalues --    0.02248   0.03672   0.05624   0.05624   0.08627
  Beta virt. eigenvalues --    0.08627   0.09203   0.13481   0.18381   0.18381
  Beta virt. eigenvalues --    0.18544   0.21739   0.21740   0.24229   0.27538

 Mulliken charges and spin densities:
               1          2
     1  C   -0.487653  -0.000000
     2  C   -0.487653   0.000000
     3  H    0.162550  -0.000000
     4  H    0.162551   0.000000
     5  H    0.162551  -0.000000
     6  H    0.162552  -0.000000
     7  H    0.162550   0.000000
     8  H    0.162552   0.000000
 Sum of Mulliken charges =  -0.00000   0.00000

 Dipole moment (field-independent basis, Debye):
    X=             -0.0000    Y=             -0.0000    Z=             -0.0000  Tot=              0.0000
 Quadrupole moment (field-independent basis, Debye-Ang):
   XX=            -14.9350   YY=            -14.9696   ZZ=            -15.5700
   XY=             -0.0095   XZ=              0.0393   YZ=              0.1536

 Normal termination of Gaussian 16 at Tue Nov 19 12:47:19 2024.
