 Gaussian 16, Revision A.03,
 Gaussian 16:  ES64L-G16RevA.03 25-Dec-2016

 --------------------------------------------
 #p opt UM062X/6-311+G** nosymm int=superfine
 --------------------------------------------

 -------------------
 Title Card Required
 -------------------
 Symbolic Z-matrix:
 Charge =  0 Multiplicity = 1

 SCF Done:  E(UM062X) =  -151.472903290     A.U. after   13 cycles
 SCF Done:  E(UM062X) =  -151.477997477     A.U. after   14 cycles
 SCF Done:  E(UM062X) =  -151.478579296     A.U. after   14 cycles
 SCF Done:  E(UM062X) =  -151.478614978     A.U. after   12 cycles
 SCF Done:  E(UM062X) =  -151.478615642     A.U. after   10 cycles
 SCF Done:  E(UM062X) =  -151.478615821     A.U. after   10 cycles
 SCF Done:  E(UM062X) =  -151.478615870     A.U. after   10 cycles
 Optimization completed.
    -- Stationary point found.

                          Input orientation:
 ---------------------------------------------------------------------
 Center     Atomic      Atomic             Coordinates (Angstroms)
 Number     Number       Type             X           Y           Z
 ---------------------------------------------------------------------
      1          8           0       -0.936938    0.000000    0.000000
      2          8           0        0.936938    0.000000    0.000000
      3          1           0       -0.939533   -0.896530   -0.369187
      4          1           0        0.939468    0.647132    0.722007
 ---------------------------------------------------------------------

 Alpha  occ. eigenvalues --  -19.71594 -19.71588  -1.16992  -1.08238  -0.58357
 Alpha  occ. eigenvalues --   -0.54945  -0.46660  -0.45544  -0.40528
 Alpha virt. eigenvalues --   -0.11543   0.05648   0.10081   0.15005   0.16405
 Alpha virt. eigenvalues --    0.17680   0.20056   0.21783   0.22794   0.25641
 Alpha virt. eigenvalues --    0.33627   0.49328   0.53621   0.94786   0.99266

  Beta  occ. eigenvalues --  -19.71594 -19.71588  -1.16992  -1.08238  -0.58357
  Beta  occ. eigenvalues --   -0.54945  -0.46660  -0.45544  -0.40528
  Beta virt. eigenvalues --   -0.11543   0.05648   0.10081   0.15005   0.16405
  Beta virt. eigenvalues --    0.17680   0.20056   0.21783   0.22794   0.25641
  Beta virt. eigenvalues --    0.33627   0.49328   0.53621   0.94786   0.99266

 Mulliken charges and spin densities:
               1          2
     1  O   -0.272970   0.000000
     2  O   -0.272954  -0.000000
     3  H    0.272962  -0.000000
     4  H    0.272962   0.000000
 Sum of Mulliken charges =  -0.00000   0.00000

 Dipole moment (field-independent basis, Debye):
    X=             -0.0001    Y=             -0.4691    Z=              0.6637  Tot=              0.8127
 Quadrupole moment (field-independent basis, Debye-Ang):
   XX=            -11.7822   YY=            -10.1240   ZZ=            -11.6873
   XY=              3.0753   XZ=              2.1739   YZ=              2.2087

 Normal termination of Gaussian 16 at Mon Apr 21 21:35:19 2025.
