 Gaussian 16, Revision A.03,
 Gaussian 16:  ES64L-G16RevA.03 25-Dec-2016

 --------------------------------------------
 #p opt UM062X/6-311+G** nosymm int=superfine
 --------------------------------------------

 -------------------
 Title Card Required
 -------------------
 Symbolic Z-matrix:
 Charge = -1 Multiplicity = 2

 SCF Done:  E(UM062X) =  -53.1923621619     A.U. after   12 cycles
 SCF Done:  E(UM062X) =  -53.1975763792     A.U. after   11 cycles
 SCF Done:  E(UM062X) =  -53.1987427270     A.U. after   10 cycles
 SCF Done:  E(UM062X) =  -53.1987593108     A.U. after    8 cycles
 Optimization completed.
    -- Stationary point found.

                          Input orientation:
 ---------------------------------------------------------------------
 Center     Atomic      Atomic             Coordinates (Angstroms)
 Number     Number       Type             X           Y           Z
 ---------------------------------------------------------------------
      1          5           0       -2.465672    0.000000    0.000000
      2          5           0        2.465672    0.000000    0.000000
      3          1           0        2.510503   -1.197009   -0.000016
      4          1           0       -2.510076   -0.598513    1.036658
      5          1           0        2.510250    0.598531   -1.036641
      6          1           0        2.510004    0.598500    1.036669
      7          1           0       -2.510511    1.197009   -0.000001
      8          1           0       -2.510169   -0.598518   -1.036652
 ---------------------------------------------------------------------

 Alpha  occ. eigenvalues --   -6.85650  -6.85649  -0.40873  -0.40679  -0.22782
 Alpha  occ. eigenvalues --   -0.22781  -0.22714  -0.22714   0.01542
 Alpha virt. eigenvalues --    0.09416   0.16202   0.17356   0.17356   0.17920
 Alpha virt. eigenvalues --    0.17920   0.18010   0.23637   0.23844   0.32607
 Alpha virt. eigenvalues --    0.32607   0.33171   0.33172   0.33758   0.38321

  Beta  occ. eigenvalues --   -6.85613  -6.85612  -0.39245  -0.39113  -0.22639
  Beta  occ. eigenvalues --   -0.22639  -0.22552  -0.22552
  Beta virt. eigenvalues --    0.03923   0.12544   0.12751   0.13829   0.13829
  Beta virt. eigenvalues --    0.17285   0.17285   0.18942   0.22679   0.24482
  Beta virt. eigenvalues --    0.31210   0.31608   0.31609   0.32180   0.32182

 Mulliken charges and spin densities:
               1          2
     1  B   -0.366829   0.544333
     2  B   -0.366828   0.544332
     3  H   -0.044388  -0.014766
     4  H   -0.044389  -0.014783
     5  H   -0.044396  -0.014784
     6  H   -0.044387  -0.014783
     7  H   -0.044389  -0.014766
     8  H   -0.044393  -0.014784
 Sum of Mulliken charges =  -1.00000   1.00000

 Dipole moment (field-independent basis, Debye):
    X=              0.0000    Y=             -0.0000    Z=              0.0001  Tot=              0.0001
 Quadrupole moment (field-independent basis, Debye-Ang):
   XX=            -52.6510   YY=            -24.4014   ZZ=            -24.4014
   XY=             -0.0000   XZ=              0.0000   YZ=              0.0000

 Normal termination of Gaussian 16 at Mon Apr 21 16:59:22 2025.
