 Gaussian 16, Revision A.03,
 Gaussian 16:  ES64L-G16RevA.03 25-Dec-2016

 ---------------------------------------------------
 #p UM062X/6-311+G** force int=superfine pop=saveNBO
 ---------------------------------------------------

 -------------------
 Title Card Required
 -------------------
 Symbolic Z-matrix:
 Charge =  0 Multiplicity = 1

                         Standard orientation:
 ---------------------------------------------------------------------
 Center     Atomic      Atomic             Coordinates (Angstroms)
 Number     Number       Type             X           Y           Z
 ---------------------------------------------------------------------
      1          6           0        0.000000    0.000000   -1.111703
      2         16           0        0.000000    0.000000    0.416889
 ---------------------------------------------------------------------

 SCF Done:  E(UM062X) =  -436.198955032     A.U. after   11 cycles

 The electronic state is 1-SG.
 Alpha  occ. eigenvalues --  -89.94594 -10.64457  -8.31586  -6.23407  -6.23355
 Alpha  occ. eigenvalues --   -6.23355  -0.93502  -0.59456  -0.41558  -0.41558
 Alpha  occ. eigenvalues --   -0.37683
 Alpha virt. eigenvalues --   -0.04635  -0.04635   0.02796   0.03607   0.04828
 Alpha virt. eigenvalues --    0.04828   0.09340   0.11248   0.11248   0.17231
 Alpha virt. eigenvalues --    0.18004   0.33369   0.33369   0.40254   0.51997

  Beta  occ. eigenvalues --  -89.94594 -10.64457  -8.31586  -6.23407  -6.23355
  Beta  occ. eigenvalues --   -6.23355  -0.93502  -0.59456  -0.41558  -0.41558
  Beta  occ. eigenvalues --   -0.37683
  Beta virt. eigenvalues --   -0.04635  -0.04635   0.02796   0.03607   0.04828
  Beta virt. eigenvalues --    0.04828   0.09340   0.11248   0.11248   0.17231
  Beta virt. eigenvalues --    0.18004   0.33369   0.33369   0.40254   0.51997

 Mulliken charges and spin densities:
               1          2
     1  C   -0.195366  -0.000000
     2  S    0.195366   0.000000
 Sum of Mulliken charges =   0.00000  -0.00000

 Dipole moment (field-independent basis, Debye):
    X=              0.0000    Y=              0.0000    Z=              1.8493  Tot=              1.8493
 Quadrupole moment (field-independent basis, Debye-Ang):
   XX=            -18.3199   YY=            -18.3199   ZZ=            -20.9974
   XY=              0.0000   XZ=              0.0000   YZ=              0.0000

 Summary of Natural Population Analysis:

                                       Natural Population
                Natural  -----------------------------------------------
    Atom  No    Charge         Core      Valence    Rydberg      Total
 -----------------------------------------------------------------------
      C    1   -0.08579      0.99988     2.06343    0.02247     3.08579
      S    2    0.08579      4.99948     2.88829    0.02645     7.91421
 =======================================================================
   * Total *    0.00000      5.99936     4.95172    0.04892    11.00000

 Optimization completed.
    -- Stationary point found.
 Normal termination of Gaussian 16 at Wed Apr 16 04:15:16 2025.
