 Gaussian 16, Revision A.03,
 Gaussian 16:  ES64L-G16RevA.03 25-Dec-2016

 ---------------------------------------------------------
 #p opt UM062X/6-311+G** nosymm int=superfine SCF=NoVarAcc
 ---------------------------------------------------------

 -------------------
 Title Card Required
 -------------------
 Symbolic Z-matrix:
 Charge =  1 Multiplicity = 2

 SCF Done:  E(UM062X) =  -77.9226392046     A.U. after    9 cycles
 SCF Done:  E(UM062X) =  -77.9231397048     A.U. after    9 cycles
 SCF Done:  E(UM062X) =  -77.9233823277     A.U. after    9 cycles
 Optimization completed.
    -- Stationary point found.

                          Input orientation:
 ---------------------------------------------------------------------
 Center     Atomic      Atomic             Coordinates (Angstroms)
 Number     Number       Type             X           Y           Z
 ---------------------------------------------------------------------
      1          6           0       -1.381027    0.000000    0.000000
      2          6           0        1.381027    0.000000    0.000000
      3          1           0       -1.771942   -1.013222   -0.000000
      4          1           0       -1.771928    1.013235   -0.000000
      5          1           0        1.771942    1.013222   -0.000000
      6          1           0        1.771928   -1.013235    0.000000
 ---------------------------------------------------------------------

 Alpha  occ. eigenvalues --  -10.92048 -10.92043  -1.02752  -1.00904  -0.79430
 Alpha  occ. eigenvalues --   -0.78764  -0.57359  -0.51185
 Alpha virt. eigenvalues --   -0.39332  -0.35228  -0.13310  -0.10674  -0.10493
 Alpha virt. eigenvalues --   -0.07708  -0.07517  -0.06489  -0.04564  -0.04520
 Alpha virt. eigenvalues --   -0.03156   0.01461   0.01626   0.09255   0.19680

  Beta  occ. eigenvalues --  -10.91787 -10.91783  -0.99948  -0.98420  -0.79054
  Beta  occ. eigenvalues --   -0.78412  -0.55448
  Beta virt. eigenvalues --   -0.33041  -0.32052  -0.29391  -0.14376  -0.10956
  Beta virt. eigenvalues --   -0.10805  -0.07430  -0.07357  -0.06570  -0.04051
  Beta virt. eigenvalues --   -0.03822  -0.03633   0.00109   0.01757   0.10206

 Mulliken charges and spin densities:
               1          2
     1  C   -0.064775   0.541303
     2  C   -0.064775   0.541306
     3  H    0.282387  -0.020652
     4  H    0.282388  -0.020652
     5  H    0.282387  -0.020652
     6  H    0.282388  -0.020652
 Sum of Mulliken charges =   1.00000   1.00000

 Dipole moment (field-independent basis, Debye):
    X=             -0.0000    Y=              0.0000    Z=             -0.0000  Tot=              0.0000
 Quadrupole moment (field-independent basis, Debye-Ang):
   XX=              3.7505   YY=             -7.8064   ZZ=            -12.9690
   XY=             -0.0000   XZ=              0.0000   YZ=              0.0000

 Normal termination of Gaussian 16 at Tue Dec  3 13:24:12 2024.
