 Gaussian 16, Revision A.03,
 Gaussian 16:  ES64L-G16RevA.03 25-Dec-2016

 ---------------------------------------------------
 #p UM062X/6-311+G** force int=superfine pop=saveNBO
 ---------------------------------------------------

 -------------------
 Title Card Required
 -------------------
 Symbolic Z-matrix:
 Charge =  0 Multiplicity = 1

                         Standard orientation:
 ---------------------------------------------------------------------
 Center     Atomic      Atomic             Coordinates (Angstroms)
 Number     Number       Type             X           Y           Z
 ---------------------------------------------------------------------
      1          8           0        0.000000    0.000000   -1.893424
      2         16           0        0.000000    0.000000    0.946712
 ---------------------------------------------------------------------

 SCF Done:  E(UM062X) =  -472.995093147     A.U. after   20 cycles

 Unable to determine electronic state:  an orbital has unidentified symmetry.
 Alpha  occ. eigenvalues --  -90.03663 -19.75726  -8.39241  -6.31278  -6.31269
 Alpha  occ. eigenvalues --   -6.30357  -1.04289  -0.81311  -0.42783  -0.39015
 Alpha  occ. eigenvalues --   -0.37677  -0.35974
 Alpha virt. eigenvalues --   -0.24819  -0.21355   0.02613   0.04723   0.05200
 Alpha virt. eigenvalues --    0.05633   0.17665   0.19757   0.19977   0.25462
 Alpha virt. eigenvalues --    0.32372   0.33315   0.34482   0.57308   0.74001

  Beta  occ. eigenvalues --  -90.03663 -19.75726  -8.39241  -6.31278  -6.31269
  Beta  occ. eigenvalues --   -6.30357  -1.04289  -0.81311  -0.42783  -0.39015
  Beta  occ. eigenvalues --   -0.37677  -0.35974
  Beta virt. eigenvalues --   -0.24819  -0.21355   0.02613   0.04723   0.05200
  Beta virt. eigenvalues --    0.05633   0.17665   0.19757   0.19976   0.25462
  Beta virt. eigenvalues --    0.32372   0.33315   0.34482   0.57308   0.74001

 Mulliken charges and spin densities:
               1          2
     1  O   -0.206231   0.000001
     2  S    0.206231  -0.000001
 Sum of Mulliken charges =  -0.00000   0.00000

 Dipole moment (field-independent basis, Debye):
    X=              0.0000    Y=              0.0000    Z=              2.7990  Tot=              2.7990
 Quadrupole moment (field-independent basis, Debye-Ang):
   XX=            -20.8130   YY=            -17.3432   ZZ=            -18.5483
   XY=              0.0000   XZ=              0.0000   YZ=              0.0000

 Summary of Natural Population Analysis:

                                       Natural Population
                Natural  -----------------------------------------------
    Atom  No    Charge         Core      Valence    Rydberg      Total
 -----------------------------------------------------------------------
      O    1   -0.12613      1.00000     3.12511    0.00102     4.12613
      S    2    0.12613      4.99999     2.87310    0.00077     7.87387
 =======================================================================
   * Total *   -0.00000      5.99999     5.99821    0.00179    12.00000

 Normal termination of Gaussian 16 at Mon Apr 21 20:01:03 2025.
