 Gaussian 16, Revision A.03,
 Gaussian 16:  ES64L-G16RevA.03 25-Dec-2016

 ---------------------------------------------------
 #p UM062X/6-311+G** force int=superfine pop=saveNBO
 ---------------------------------------------------

 -------------------
 Title Card Required
 -------------------
 Symbolic Z-matrix:
 Charge =  0 Multiplicity = 1

                         Standard orientation:
 ---------------------------------------------------------------------
 Center     Atomic      Atomic             Coordinates (Angstroms)
 Number     Number       Type             X           Y           Z
 ---------------------------------------------------------------------
      1         16           0        0.000000    0.000000    1.625200
      2         16           0        0.000000    0.000000   -1.625200
 ---------------------------------------------------------------------

 SCF Done:  E(UM062X) =  -796.095735114     A.U. after    9 cycles

 Unable to determine electronic state:  partially filled degenerate orbitals.
 Alpha  occ. eigenvalues --  -89.99287 -89.99287  -8.34981  -8.34981  -6.27016
 Alpha  occ. eigenvalues --   -6.27015  -6.27001  -6.27000  -6.26162  -6.26162
 Alpha  occ. eigenvalues --   -0.79113  -0.76886  -0.35631  -0.35477  -0.33966
 Alpha  occ. eigenvalues --   -0.32489
 Alpha virt. eigenvalues --   -0.22628  -0.19300   0.03088   0.03718   0.04917
 Alpha virt. eigenvalues --    0.05418   0.07212   0.07522   0.07673   0.13265
 Alpha virt. eigenvalues --    0.31741   0.32258   0.32651   0.36385   0.36760

  Beta  occ. eigenvalues --  -89.99287 -89.99287  -8.34981  -8.34981  -6.27016
  Beta  occ. eigenvalues --   -6.27015  -6.27001  -6.27000  -6.26162  -6.26162
  Beta  occ. eigenvalues --   -0.79113  -0.76886  -0.35631  -0.35477  -0.33966
  Beta  occ. eigenvalues --   -0.32489
  Beta virt. eigenvalues --   -0.22628  -0.19300   0.03088   0.03718   0.04917
  Beta virt. eigenvalues --    0.05418   0.07212   0.07522   0.07673   0.13265
  Beta virt. eigenvalues --    0.31741   0.32258   0.32651   0.36385   0.36760

 Mulliken charges and spin densities:
               1          2
     1  S    0.000000   0.000000
     2  S    0.000000   0.000000
 Sum of Mulliken charges =   0.00000   0.00000

 Dipole moment (field-independent basis, Debye):
    X=             -0.0000    Y=              0.0000    Z=              0.0000  Tot=              0.0000
 Quadrupole moment (field-independent basis, Debye-Ang):
   XX=            -25.3998   YY=            -30.3163   ZZ=            -22.5898
   XY=              0.0000   XZ=             -0.0000   YZ=              0.0000

 Summary of Natural Population Analysis:

                                       Natural Population
                Natural  -----------------------------------------------
    Atom  No    Charge         Core      Valence    Rydberg      Total
 -----------------------------------------------------------------------
      S    1   -0.00000      4.99999     2.99904    0.00096     8.00000
      S    2   -0.00000      4.99999     2.99904    0.00096     8.00000
 =======================================================================
   * Total *   -0.00000      9.99999     5.99809    0.00192    16.00000

 Normal termination of Gaussian 16 at Mon Apr 21 20:09:10 2025.
