 Gaussian 16, Revision A.03,
 Gaussian 16:  ES64L-G16RevA.03 25-Dec-2016

 --------------------------------------------
 #p opt UM062X/6-311+G** nosymm int=superfine
 --------------------------------------------

 -------------------
 Title Card Required
 -------------------
 Symbolic Z-matrix:
 Charge =  1 Multiplicity = 2

 SCF Done:  E(UM062X) =  -92.6014956638     A.U. after   20 cycles
 SCF Done:  E(UM062X) =  -92.6019591993     A.U. after   15 cycles
 SCF Done:  E(UM062X) =  -92.6019603446     A.U. after   11 cycles
 Optimization completed.
    -- Stationary point found.

                          Input orientation:
 ---------------------------------------------------------------------
 Center     Atomic      Atomic             Coordinates (Angstroms)
 Number     Number       Type             X           Y           Z
 ---------------------------------------------------------------------
      1          6           0       -1.101540    0.000000    0.000000
      2          7           0        1.101540    0.000000    0.000000
      3          1           0       -2.224377    0.000000   -0.000000
 ---------------------------------------------------------------------

 Alpha  occ. eigenvalues --  -15.20524 -11.08832  -1.15838  -1.07488  -0.75489
 Alpha  occ. eigenvalues --   -0.69833  -0.61066
 Alpha virt. eigenvalues --   -0.44439  -0.43088  -0.39625  -0.16323  -0.11419
 Alpha virt. eigenvalues --   -0.10265  -0.09791  -0.05551  -0.01961  -0.01398
 Alpha virt. eigenvalues --    0.00364   0.07976   0.23282   0.29428   0.29431

  Beta  occ. eigenvalues --  -15.19301 -11.08803  -1.10108  -1.05633  -0.74984
  Beta  occ. eigenvalues --   -0.60296
  Beta virt. eigenvalues --   -0.43266  -0.42797  -0.36379  -0.33669  -0.16529
  Beta virt. eigenvalues --   -0.11792  -0.10115  -0.10059  -0.05870  -0.01876
  Beta virt. eigenvalues --   -0.01711   0.00435   0.06385   0.23410   0.29349

 Mulliken charges and spin densities:
               1          2
     1  C    0.292568   0.119499
     2  N    0.380576   0.893950
     3  H    0.326856  -0.013450
 Sum of Mulliken charges =   1.00000   1.00000

 Dipole moment (field-independent basis, Debye):
    X=             -4.4841    Y=              0.0000    Z=             -0.0000  Tot=              4.4841
 Quadrupole moment (field-independent basis, Debye-Ang):
   XX=              3.3383   YY=             -9.4398   ZZ=            -11.4247
   XY=              0.0000   XZ=              0.0000   YZ=              0.0168

 Normal termination of Gaussian 16 at Mon Apr 21 18:34:56 2025.
