 Gaussian 16, Revision A.03,
 Gaussian 16:  ES64L-G16RevA.03 25-Dec-2016

 --------------------------------------------
 #p opt UM062X/6-311+G** nosymm int=superfine
 --------------------------------------------

 -------------------
 Title Card Required
 -------------------
 Symbolic Z-matrix:
 Charge =  0 Multiplicity = 1

 SCF Done:  E(UM062X) =  -81.8015992574     A.U. after   15 cycles
 SCF Done:  E(UM062X) =  -81.8072031640     A.U. after   10 cycles
 SCF Done:  E(UM062X) =  -81.8102039596     A.U. after   12 cycles
 SCF Done:  E(UM062X) =  -81.8067286880     A.U. after   13 cycles
 SCF Done:  E(UM062X) =  -81.8107534193     A.U. after   12 cycles
 SCF Done:  E(UM062X) =  -81.8142808051     A.U. after   13 cycles
 SCF Done:  E(UM062X) =  -81.8094239529     A.U. after   13 cycles
 SCF Done:  E(UM062X) =  -81.8249429599     A.U. after   12 cycles
 SCF Done:  E(UM062X) =  -81.8272056735     A.U. after   12 cycles
 SCF Done:  E(UM062X) =  -81.8284716492     A.U. after   12 cycles
 SCF Done:  E(UM062X) =  -81.8293513071     A.U. after   11 cycles
 SCF Done:  E(UM062X) =  -81.8293803342     A.U. after   10 cycles
 SCF Done:  E(UM062X) =  -81.8293823615     A.U. after    9 cycles
 Optimization completed.
    -- Stationary point found.

                          Input orientation:
 ---------------------------------------------------------------------
 Center     Atomic      Atomic             Coordinates (Angstroms)
 Number     Number       Type             X           Y           Z
 ---------------------------------------------------------------------
      1          5           0       -1.270399    0.000000    0.000000
      2          7           0        1.270399    0.000000    0.000000
      3          1           0       -1.687929   -1.096898   -0.030396
      4          1           0        1.378709    0.809286    0.615923
      5          1           0       -1.687928    1.096862   -0.031670
      6          1           0        1.378711   -0.808651    0.616755
 ---------------------------------------------------------------------

 Alpha  occ. eigenvalues --  -14.72406  -7.15746  -0.88328  -0.60790  -0.49743
 Alpha  occ. eigenvalues --   -0.48106  -0.34634  -0.28464
 Alpha virt. eigenvalues --   -0.06683  -0.03118   0.01316   0.03224   0.04617
 Alpha virt. eigenvalues --    0.05561   0.11065   0.13549   0.13807   0.17082
 Alpha virt. eigenvalues --    0.20544   0.20887   0.21313   0.30140   0.33285

  Beta  occ. eigenvalues --  -14.72406  -7.15746  -0.88328  -0.60790  -0.49743
  Beta  occ. eigenvalues --   -0.48106  -0.34634  -0.28464
  Beta virt. eigenvalues --   -0.06683  -0.03118   0.01316   0.03224   0.04617
  Beta virt. eigenvalues --    0.05561   0.11065   0.13549   0.13807   0.17082
  Beta virt. eigenvalues --    0.20544   0.20887   0.21313   0.30140   0.33285

 Mulliken charges and spin densities:
               1          2
     1  B    0.192769   0.000000
     2  N   -0.739041  -0.000000
     3  H    0.046650  -0.000000
     4  H    0.226487   0.000000
     5  H    0.046649  -0.000000
     6  H    0.226487   0.000000
 Sum of Mulliken charges =  -0.00000  -0.00000

 Dipole moment (field-independent basis, Debye):
    X=             -3.1982    Y=              0.0009    Z=              1.6888  Tot=              3.6167
 Quadrupole moment (field-independent basis, Debye-Ang):
   XX=            -14.8122   YY=            -13.3760   ZZ=            -14.4342
   XY=              0.0014   XZ=              2.7500   YZ=             -0.0005

 Normal termination of Gaussian 16 at Mon Apr 21 17:48:15 2025.
