 Gaussian 16, Revision A.03,
 Gaussian 16:  ES64L-G16RevA.03 25-Dec-2016

 ---------------------------------------------------
 #p UM062X/6-311+G** force int=superfine pop=saveNBO
 ---------------------------------------------------

 -------------------
 Title Card Required
 -------------------
 Symbolic Z-matrix:
 Charge =  0 Multiplicity = 1

                         Standard orientation:
 ---------------------------------------------------------------------
 Center     Atomic      Atomic             Coordinates (Angstroms)
 Number     Number       Type             X           Y           Z
 ---------------------------------------------------------------------
      1          6           0        0.000000    0.000000   -2.098379
      2          8           0        0.000000    0.000000    1.573785
 ---------------------------------------------------------------------

 SCF Done:  E(UM062X) =  -112.623409001     A.U. after   16 cycles

 The electronic state is 1-SG.
 Alpha  occ. eigenvalues --  -19.68164 -10.86776  -0.97400  -0.74457  -0.32183
 Alpha  occ. eigenvalues --   -0.31215  -0.31215
 Alpha virt. eigenvalues --   -0.23264  -0.23264  -0.22143   0.01711   0.05394
 Alpha virt. eigenvalues --    0.05394   0.07075   0.19582   0.22105   0.22105
 Alpha virt. eigenvalues --    0.25724   0.49018   0.49018   0.50383   0.59169

  Beta  occ. eigenvalues --  -19.68164 -10.86776  -0.97400  -0.74457  -0.32183
  Beta  occ. eigenvalues --   -0.31215  -0.31215
  Beta virt. eigenvalues --   -0.23264  -0.23264  -0.22143   0.01711   0.05394
  Beta virt. eigenvalues --    0.05394   0.07075   0.19582   0.22105   0.22105
  Beta virt. eigenvalues --    0.25724   0.49018   0.49018   0.50383   0.59169

 Mulliken charges and spin densities:
               1          2
     1  C    0.357710  -0.000001
     2  O   -0.357710   0.000001
 Sum of Mulliken charges =  -0.00000  -0.00000

 Dipole moment (field-independent basis, Debye):
    X=              0.0000    Y=              0.0000    Z=             -6.2825  Tot=              6.2825
 Quadrupole moment (field-independent basis, Debye-Ang):
   XX=            -12.1347   YY=            -12.1347   ZZ=             -7.5856
   XY=              0.0000   XZ=              0.0000   YZ=              0.0000

 Summary of Natural Population Analysis:

                                       Natural Population
                Natural  -----------------------------------------------
    Atom  No    Charge         Core      Valence    Rydberg      Total
 -----------------------------------------------------------------------
      C    1    0.19969      1.00000     1.80011    0.00020     2.80031
      O    2   -0.19969      1.00000     3.19959    0.00011     4.19969
 =======================================================================
   * Total *   -0.00000      2.00000     4.99970    0.00030     7.00000

 Normal termination of Gaussian 16 at Mon Apr 21 19:32:05 2025.
