 Gaussian 16, Revision A.03,
 Gaussian 16:  ES64L-G16RevA.03 25-Dec-2016

 --------------------------------------------
 #p opt UM062X/6-311+G** nosymm int=superfine
 --------------------------------------------

 -------------------
 Title Card Required
 -------------------
 Symbolic Z-matrix:
 Charge =  0 Multiplicity = 1

 SCF Done:  E(UM062X) =  -581.138316483     A.U. after    9 cycles
 SCF Done:  E(UM062X) =  -581.158577957     A.U. after    8 cycles
 SCF Done:  E(UM062X) =  -581.171450416     A.U. after    9 cycles
 SCF Done:  E(UM062X) =  -581.171470475     A.U. after    8 cycles
 Optimization completed.
    -- Stationary point found.

                          Input orientation:
 ---------------------------------------------------------------------
 Center     Atomic      Atomic             Coordinates (Angstroms)
 Number     Number       Type             X           Y           Z
 ---------------------------------------------------------------------
      1         14           0       -1.987518    0.000000    0.000000
      2         14           0        1.987518    0.000000    0.000000
      3          1           0       -3.056723   -1.081234    0.000295
      4          1           0        3.056723    1.081234   -0.000287
      5          1           0       -3.056729    1.081229    0.000536
      6          1           0        3.056729   -1.081228    0.001119
 ---------------------------------------------------------------------

 Alpha  occ. eigenvalues --  -67.01020 -67.01020  -5.55760  -5.55758  -3.86993
 Alpha  occ. eigenvalues --   -3.86993  -3.86456  -3.86455  -3.86324  -3.86324
 Alpha  occ. eigenvalues --   -0.57141  -0.56883  -0.37576  -0.37478  -0.30240
 Alpha  occ. eigenvalues --   -0.25905
 Alpha virt. eigenvalues --   -0.08501  -0.07125   0.02099   0.02149   0.03200
 Alpha virt. eigenvalues --    0.04562   0.05911   0.06177   0.06363   0.06414
 Alpha virt. eigenvalues --    0.09439   0.09461   0.11804   0.14227   0.28599

  Beta  occ. eigenvalues --  -67.01020 -67.01020  -5.55760  -5.55758  -3.86993
  Beta  occ. eigenvalues --   -3.86993  -3.86456  -3.86455  -3.86324  -3.86324
  Beta  occ. eigenvalues --   -0.57141  -0.56883  -0.37576  -0.37478  -0.30240
  Beta  occ. eigenvalues --   -0.25905
  Beta virt. eigenvalues --   -0.08501  -0.07125   0.02099   0.02149   0.03200
  Beta virt. eigenvalues --    0.04562   0.05911   0.06177   0.06363   0.06414
  Beta virt. eigenvalues --    0.09439   0.09461   0.11804   0.14227   0.28599

 Mulliken charges and spin densities:
               1          2
     1  Si   0.318970  -0.000000
     2  Si   0.318970  -0.000000
     3  H   -0.159485   0.000000
     4  H   -0.159485   0.000000
     5  H   -0.159485   0.000000
     6  H   -0.159485   0.000000
 Sum of Mulliken charges =  -0.00000  -0.00000

 Dipole moment (field-independent basis, Debye):
    X=              0.0000    Y=              0.0000    Z=              0.0001  Tot=              0.0001
 Quadrupole moment (field-independent basis, Debye-Ang):
   XX=            -37.0575   YY=            -32.8298   ZZ=            -24.4065
   XY=             -0.0000   XZ=              0.0000   YZ=              0.0023

 Normal termination of Gaussian 16 at Mon Apr 21 20:34:09 2025.
