 Gaussian 16, Revision A.03,
 Gaussian 16:  ES64L-G16RevA.03 25-Dec-2016

 ---------------------------------------------------
 #p UM062X/6-311+G** force int=superfine pop=saveNBO
 ---------------------------------------------------

 -------------------
 Title Card Required
 -------------------
 Symbolic Z-matrix:
 Charge =  0 Multiplicity = 1

                         Standard orientation:
 ---------------------------------------------------------------------
 Center     Atomic      Atomic             Coordinates (Angstroms)
 Number     Number       Type             X           Y           Z
 ---------------------------------------------------------------------
      1         16           0        0.000000    0.000000    1.700200
      2         16           0        0.000000    0.000000   -1.700200
 ---------------------------------------------------------------------

 SCF Done:  E(UM062X) =  -796.079117110     A.U. after    9 cycles

 Unable to determine electronic state:  partially filled degenerate orbitals.
 Alpha  occ. eigenvalues --  -89.99221 -89.99221  -8.34937  -8.34937  -6.26972
 Alpha  occ. eigenvalues --   -6.26971  -6.26952  -6.26952  -6.26117  -6.26117
 Alpha  occ. eigenvalues --   -0.78824  -0.77095  -0.35315  -0.34842  -0.34140
 Alpha  occ. eigenvalues --   -0.32144
 Alpha virt. eigenvalues --   -0.22948  -0.20180   0.03070   0.03734   0.04863
 Alpha virt. eigenvalues --    0.05358   0.07173   0.07509   0.07633   0.13075
 Alpha virt. eigenvalues --    0.31784   0.32681   0.32932   0.35218   0.36359

  Beta  occ. eigenvalues --  -89.99221 -89.99221  -8.34937  -8.34937  -6.26972
  Beta  occ. eigenvalues --   -6.26971  -6.26952  -6.26952  -6.26117  -6.26117
  Beta  occ. eigenvalues --   -0.78824  -0.77095  -0.35315  -0.34842  -0.34140
  Beta  occ. eigenvalues --   -0.32144
  Beta virt. eigenvalues --   -0.22948  -0.20180   0.03070   0.03734   0.04863
  Beta virt. eigenvalues --    0.05358   0.07173   0.07509   0.07633   0.13075
  Beta virt. eigenvalues --    0.31784   0.32681   0.32932   0.35218   0.36359

 Mulliken charges and spin densities:
               1          2
     1  S   -0.000000   0.000000
     2  S   -0.000000   0.000000
 Sum of Mulliken charges =  -0.00000   0.00000

 Dipole moment (field-independent basis, Debye):
    X=              0.0000    Y=              0.0000    Z=             -0.0000  Tot=              0.0000
 Quadrupole moment (field-independent basis, Debye-Ang):
   XX=            -25.4144   YY=            -30.3500   ZZ=            -22.5141
   XY=              0.0000   XZ=             -0.0000   YZ=              0.0000

 Summary of Natural Population Analysis:

                                       Natural Population
                Natural  -----------------------------------------------
    Atom  No    Charge         Core      Valence    Rydberg      Total
 -----------------------------------------------------------------------
      S    1   -0.00000      5.00000     2.99911    0.00089     8.00000
      S    2    0.00000      5.00000     2.99911    0.00089     8.00000
 =======================================================================
   * Total *    0.00000      9.99999     5.99823    0.00178    16.00000

 Normal termination of Gaussian 16 at Mon Apr 21 20:09:10 2025.
