 Gaussian 16, Revision A.03,
 Gaussian 16:  ES64L-G16RevA.03 25-Dec-2016

 ---------------------------------------------------
 #p UM062X/6-311+G** force int=superfine pop=saveNBO
 ---------------------------------------------------

 -------------------
 Title Card Required
 -------------------
 Symbolic Z-matrix:
 Charge =  0 Multiplicity = 1

                         Standard orientation:
 ---------------------------------------------------------------------
 Center     Atomic      Atomic             Coordinates (Angstroms)
 Number     Number       Type             X           Y           Z
 ---------------------------------------------------------------------
      1          6           0        0.000000    0.000000   -1.693521
      2         16           0        0.000000    0.000000    0.635071
 ---------------------------------------------------------------------

 SCF Done:  E(UM062X) =  -435.987726606     A.U. after   13 cycles

 The electronic state is 1-SG.
 Alpha  occ. eigenvalues --  -89.95428 -10.79336  -8.31114  -6.23129  -6.22780
 Alpha  occ. eigenvalues --   -6.22780  -0.78090  -0.66821  -0.37142  -0.32944
 Alpha  occ. eigenvalues --   -0.32944
 Alpha virt. eigenvalues --   -0.14799  -0.14799  -0.07082   0.03701   0.05466
 Alpha virt. eigenvalues --    0.05976   0.05976   0.08664   0.09326   0.09326
 Alpha virt. eigenvalues --    0.15686   0.34080   0.35720   0.35720   0.53358

  Beta  occ. eigenvalues --  -89.95428 -10.79336  -8.31114  -6.23129  -6.22780
  Beta  occ. eigenvalues --   -6.22780  -0.78090  -0.66821  -0.37142  -0.32944
  Beta  occ. eigenvalues --   -0.32944
  Beta virt. eigenvalues --   -0.14799  -0.14799  -0.07082   0.03701   0.05466
  Beta virt. eigenvalues --    0.05976   0.05976   0.08664   0.09326   0.09326
  Beta virt. eigenvalues --    0.15686   0.34080   0.35720   0.35720   0.53358

 Mulliken charges and spin densities:
               1          2
     1  C    0.132578  -0.000000
     2  S   -0.132578   0.000000
 Sum of Mulliken charges =   0.00000  -0.00000

 Dipole moment (field-independent basis, Debye):
    X=              0.0000    Y=              0.0000    Z=             -1.2562  Tot=              1.2562
 Quadrupole moment (field-independent basis, Debye-Ang):
   XX=            -20.3618   YY=            -20.3618   ZZ=            -17.3328
   XY=              0.0000   XZ=              0.0000   YZ=              0.0000

 Summary of Natural Population Analysis:

                                       Natural Population
                Natural  -----------------------------------------------
    Atom  No    Charge         Core      Valence    Rydberg      Total
 -----------------------------------------------------------------------
      C    1    0.11226      0.99999     1.88499    0.00275     2.88774
      S    2   -0.11226      4.99997     3.10936    0.00293     8.11226
 =======================================================================
   * Total *    0.00000      5.99996     4.99435    0.00568    11.00000

 Normal termination of Gaussian 16 at Mon Apr 21 19:43:29 2025.
