 Gaussian 16, Revision A.03,
 Gaussian 16:  ES64L-G16RevA.03 25-Dec-2016

 --------------------------------------------
 #p opt UM062X/6-311+G** nosymm int=superfine
 --------------------------------------------

 -------------------
 Title Card Required
 -------------------
 Symbolic Z-matrix:
 Charge =  0 Multiplicity = 1

 SCF Done:  E(UM062X) =  -78.5488429375     A.U. after    8 cycles
 SCF Done:  E(UM062X) =  -78.5516356965     A.U. after    7 cycles
 SCF Done:  E(UM062X) =  -78.5518097700     A.U. after    7 cycles
 Optimization completed.
    -- Stationary point found.

                          Input orientation:
 ---------------------------------------------------------------------
 Center     Atomic      Atomic             Coordinates (Angstroms)
 Number     Number       Type             X           Y           Z
 ---------------------------------------------------------------------
      1          6           0       -0.616471    0.000000    0.000000
      2          6           0        0.616471    0.000000    0.000000
      3          1           0       -1.201792   -0.915827   -0.000000
      4          1           0       -1.201916    0.915684   -0.000000
      5          1           0        1.201792    0.915827    0.000000
      6          1           0        1.201916   -0.915684    0.000000
 ---------------------------------------------------------------------

 Alpha  occ. eigenvalues --  -10.52349 -10.52137  -0.88434  -0.65352  -0.55080
 Alpha  occ. eigenvalues --   -0.50019  -0.40055  -0.35419
 Alpha virt. eigenvalues --    0.03400   0.04159   0.04231   0.04967   0.07450
 Alpha virt. eigenvalues --    0.08366   0.09746   0.14491   0.16088   0.17557
 Alpha virt. eigenvalues --    0.19599   0.23693   0.32133   0.38211   0.44242

  Beta  occ. eigenvalues --  -10.52349 -10.52137  -0.88434  -0.65352  -0.55080
  Beta  occ. eigenvalues --   -0.50019  -0.40055  -0.35419
  Beta virt. eigenvalues --    0.03400   0.04159   0.04231   0.04967   0.07450
  Beta virt. eigenvalues --    0.08366   0.09746   0.14491   0.16088   0.17557
  Beta virt. eigenvalues --    0.19599   0.23693   0.32133   0.38211   0.44242

 Mulliken charges and spin densities:
               1          2
     1  C   -0.284795  -0.000000
     2  C   -0.284795   0.000000
     3  H    0.142389   0.000000
     4  H    0.142406   0.000000
     5  H    0.142389  -0.000000
     6  H    0.142406  -0.000000
 Sum of Mulliken charges =  -0.00000  -0.00000

 Dipole moment (field-independent basis, Debye):
    X=             -0.0000    Y=              0.0000    Z=             -0.0000  Tot=              0.0000
 Quadrupole moment (field-independent basis, Debye-Ang):
   XX=            -12.3548   YY=            -12.3225   ZZ=            -15.4793
   XY=             -0.0003   XZ=              0.0000   YZ=             -0.0000

 Normal termination of Gaussian 16 at Tue Nov 19 10:34:09 2024.
