 Gaussian 16, Revision A.03,
 Gaussian 16:  ES64L-G16RevA.03 25-Dec-2016

 --------------------------------------------
 #p opt UM062X/6-311+G** nosymm int=superfine
 --------------------------------------------

 -------------------
 Title Card Required
 -------------------
 Symbolic Z-matrix:
 Charge =  0 Multiplicity = 1

 SCF Done:  E(UM062X) =  -437.160433483     A.U. after   16 cycles
 SCF Done:  E(UM062X) =  -437.162787604     A.U. after    9 cycles
 SCF Done:  E(UM062X) =  -437.163595854     A.U. after   15 cycles
 SCF Done:  E(UM062X) =  -437.163596737     A.U. after   15 cycles
 Optimization completed.
    -- Stationary point found.

                          Input orientation:
 ---------------------------------------------------------------------
 Center     Atomic      Atomic             Coordinates (Angstroms)
 Number     Number       Type             X           Y           Z
 ---------------------------------------------------------------------
      1          6           0       -1.977140    0.000000    0.000000
      2         16           0        1.977140    0.000000    0.000000
      3          1           0       -2.658948   -0.870580   -0.000197
      4          1           0       -2.659904    0.869830   -0.000323
 ---------------------------------------------------------------------

 Alpha  occ. eigenvalues --  -89.94002 -10.63101  -8.30039  -6.22820  -6.21250
 Alpha  occ. eigenvalues --   -6.21249  -0.77504  -0.74149  -0.49811  -0.33377
 Alpha  occ. eigenvalues --   -0.31502  -0.31492
 Alpha virt. eigenvalues --   -0.16467  -0.09973   0.01357   0.04748   0.05422
 Alpha virt. eigenvalues --    0.06518   0.08051   0.08861   0.08991   0.13980
 Alpha virt. eigenvalues --    0.17238   0.18392   0.35140   0.36668   0.36794

  Beta  occ. eigenvalues --  -89.94002 -10.63101  -8.30039  -6.22820  -6.21250
  Beta  occ. eigenvalues --   -6.21249  -0.77504  -0.74149  -0.49811  -0.33377
  Beta  occ. eigenvalues --   -0.31502  -0.31492
  Beta virt. eigenvalues --   -0.16467  -0.09973   0.01357   0.04748   0.05422
  Beta virt. eigenvalues --    0.06518   0.08051   0.08861   0.08991   0.13980
  Beta virt. eigenvalues --    0.17238   0.18392   0.35140   0.36668   0.36794

 Mulliken charges and spin densities:
               1          2
     1  C   -0.278610  -0.000000
     2  S   -0.011447   0.000000
     3  H    0.145024   0.000000
     4  H    0.145034  -0.000000
 Sum of Mulliken charges =  -0.00000   0.00000

 Dipole moment (field-independent basis, Debye):
    X=             -2.8025    Y=             -0.0011    Z=             -0.0008  Tot=              2.8025
 Quadrupole moment (field-independent basis, Debye-Ang):
   XX=            -10.4736   YY=            -22.3610   ZZ=            -21.7663
   XY=              0.0003   XZ=             -0.0001   YZ=              0.0000

 Normal termination of Gaussian 16 at Mon Apr 21 19:45:01 2025.
