 Gaussian 16, Revision A.03,
 Gaussian 16:  ES64L-G16RevA.03 25-Dec-2016

 --------------------------------------------
 #p opt UM062X/6-311+G** nosymm int=superfine
 --------------------------------------------

 -------------------
 Title Card Required
 -------------------
 Symbolic Z-matrix:
 Charge =  0 Multiplicity = 3

 SCF Done:  E(UM062X) =  -50.5352071785     A.U. after   13 cycles
 SCF Done:  E(UM062X) =  -50.5352626565     A.U. after   12 cycles
 Optimization completed.
    -- Stationary point found.

                          Input orientation:
 ---------------------------------------------------------------------
 Center     Atomic      Atomic             Coordinates (Angstroms)
 Number     Number       Type             X           Y           Z
 ---------------------------------------------------------------------
      1          5           0       -1.278410    0.000000    0.000000
      2          5           0        1.278410    0.000000    0.000000
      3          1           0       -2.458626   -0.000081   -0.000000
      4          1           0        2.458626    0.000081    0.000000
 ---------------------------------------------------------------------

 Alpha  occ. eigenvalues --   -7.16072  -7.16061  -0.58209  -0.56339  -0.37139
 Alpha  occ. eigenvalues --   -0.22052  -0.22052
 Alpha virt. eigenvalues --   -0.08170  -0.07383  -0.07383   0.02544   0.02600
 Alpha virt. eigenvalues --    0.06626   0.06626   0.07674   0.07674   0.07882
 Alpha virt. eigenvalues --    0.13143   0.20772   0.23578   0.37273   0.38195

  Beta  occ. eigenvalues --   -7.15791  -7.15787  -0.55076  -0.54306  -0.34590
  Beta virt. eigenvalues --   -0.06300  -0.06300  -0.02965  -0.01715  -0.01715
  Beta virt. eigenvalues --    0.00611   0.02823   0.05519   0.08039   0.08039
  Beta virt. eigenvalues --    0.10329   0.10736   0.10736   0.21600   0.24956

 Mulliken charges and spin densities:
               1          2
     1  B   -0.123835   1.040763
     2  B   -0.123835   1.040763
     3  H    0.123835  -0.040763
     4  H    0.123835  -0.040763
 Sum of Mulliken charges =  -0.00000   2.00000

 Dipole moment (field-independent basis, Debye):
    X=              0.0000    Y=             -0.0000    Z=             -0.0000  Tot=              0.0000
 Quadrupole moment (field-independent basis, Debye-Ang):
   XX=             -9.7792   YY=            -16.7624   ZZ=            -16.7624
   XY=              0.0010   XZ=              0.0000   YZ=              0.0000

 1\1\GINC-NODE03\FOpt\UM062X\6-311+G(d,p)\B2H2(3)\SZHAO\21-Apr-2025\0\\
 #p opt UM062X/6-311+G** nosymm int=superfine\\Title Card Required\\0,3
 \B,-1.27841047,0.,0.\B,1.27841047,0.,0.\H,-2.4586263302,-0.000080717,-
 0.0000000005\H,2.45862634,0.000080716,0.0000000005\\Version=ES64L-G16R
 evA.03\HF=-50.5352627\S2=2.010443\S2-1=0.\S2A=2.000033\RMSD=3.538e-09\
 RMSF=1.632e-05\Dipole=0.,0.,0.\Quadrupole=3.4612315,-1.7306154,-1.7306
 161,0.0007544,0.,0.\PG=C*V [C*(H1B1B1H1)]\\@

 Normal termination of Gaussian 16 at Mon Apr 21 17:23:21 2025.
