 Gaussian 16, Revision A.03,
 Gaussian 16:  ES64L-G16RevA.03 25-Dec-2016

 --------------------------------------------
 #p opt UM062X/6-311+G** nosymm int=superfine
 --------------------------------------------

 -------------------
 Title Card Required
 -------------------
 Symbolic Z-matrix:
 Charge =  1 Multiplicity = 2

 SCF Done:  E(UM062X) =  -579.683098485     A.U. after   15 cycles
 SCF Done:  E(UM062X) =  -579.685566402     A.U. after   14 cycles
 SCF Done:  E(UM062X) =  -579.689920847     A.U. after   15 cycles
 SCF Done:  E(UM062X) =  -579.690523505     A.U. after   13 cycles
 SCF Done:  E(UM062X) =  -579.690700209     A.U. after   13 cycles
 SCF Done:  E(UM062X) =  -579.690719918     A.U. after   12 cycles
 SCF Done:  E(UM062X) =  -579.690749153     A.U. after   12 cycles
 SCF Done:  E(UM062X) =  -579.690766374     A.U. after   12 cycles
 SCF Done:  E(UM062X) =  -579.690777068     A.U. after   12 cycles
 SCF Done:  E(UM062X) =  -579.690777119     A.U. after    9 cycles
 Optimization completed.
    -- Stationary point found.

                          Input orientation:
 ---------------------------------------------------------------------
 Center     Atomic      Atomic             Coordinates (Angstroms)
 Number     Number       Type             X           Y           Z
 ---------------------------------------------------------------------
      1         14           0       -1.927975    0.000000    0.000000
      2         14           0        1.927975    0.000000    0.000000
      3          1           0       -2.039839   -1.503170   -0.000000
      4          1           0        2.039822    1.503172   -0.000000
 ---------------------------------------------------------------------

 Alpha  occ. eigenvalues --  -67.26881 -67.26881  -5.81048  -5.81047  -4.12148
 Alpha  occ. eigenvalues --   -4.12147  -4.12070  -4.12069  -4.11415  -4.11415
 Alpha  occ. eigenvalues --   -0.76355  -0.75255  -0.52809  -0.52559  -0.42261
 Alpha virt. eigenvalues --   -0.28390  -0.28017  -0.26820  -0.11244  -0.09861
 Alpha virt. eigenvalues --   -0.08770  -0.08508  -0.07945  -0.06968  -0.05658
 Alpha virt. eigenvalues --   -0.05646  -0.05239  -0.02827   0.12947   0.14378

  Beta  occ. eigenvalues --  -67.26626 -67.26626  -5.80972  -5.80970  -4.12006
  Beta  occ. eigenvalues --   -4.12006  -4.11477  -4.11477  -4.11293  -4.11293
  Beta  occ. eigenvalues --   -0.74388  -0.73608  -0.52227  -0.51663
  Beta virt. eigenvalues --   -0.28409  -0.28054  -0.26346  -0.22819  -0.13299
  Beta virt. eigenvalues --   -0.10406  -0.08974  -0.08760  -0.08343  -0.06766
  Beta virt. eigenvalues --   -0.05586  -0.05392  -0.05326  -0.02763   0.11889

 Mulliken charges and spin densities:
               1          2
     1  Si   0.578406   0.510698
     2  Si   0.578408   0.510697
     3  H   -0.078407  -0.010698
     4  H   -0.078407  -0.010698
 Sum of Mulliken charges =   1.00000   1.00000

 Dipole moment (field-independent basis, Debye):
    X=             -0.0000    Y=              0.0000    Z=             -0.0000  Tot=              0.0000
 Quadrupole moment (field-independent basis, Debye-Ang):
   XX=             -1.5026   YY=            -27.5618   ZZ=            -19.8423
   XY=              2.0780   XZ=              0.0000   YZ=             -0.0000

 Normal termination of Gaussian 16 at Mon Apr 21 20:41:28 2025.
