 Gaussian 16, Revision A.03,
 Gaussian 16:  ES64L-G16RevA.03 25-Dec-2016

 --------------------------------------------
 #p opt UM062X/6-311+G** nosymm int=superfine
 --------------------------------------------

 -------------------
 Title Card Required
 -------------------
 Symbolic Z-matrix:
 Charge = -1 Multiplicity = 2

 SCF Done:  E(UM062X) =  -50.6305483292     A.U. after   14 cycles
 SCF Done:  E(UM062X) =  -50.6305506851     A.U. after    8 cycles
 Optimization completed.
    -- Stationary point found.

                          Input orientation:
 ---------------------------------------------------------------------
 Center     Atomic      Atomic             Coordinates (Angstroms)
 Number     Number       Type             X           Y           Z
 ---------------------------------------------------------------------
      1          5           0       -1.116404    0.000000    0.000000
      2          5           0        1.116404    0.000000    0.000000
      3          1           0       -2.298579   -0.000903    0.000000
      4          1           0        2.298579    0.000903   -0.000000
 ---------------------------------------------------------------------

 Alpha  occ. eigenvalues --   -6.91832  -6.91819  -0.36864  -0.34569  -0.17108
 Alpha  occ. eigenvalues --   -0.01718  -0.00489
 Alpha virt. eigenvalues --    0.13779   0.14637   0.15126   0.15300   0.19396
 Alpha virt. eigenvalues --    0.20253   0.21347   0.21531   0.22670   0.23238
 Alpha virt. eigenvalues --    0.26271   0.37708   0.41204   0.55804   0.58650

  Beta  occ. eigenvalues --   -6.91785  -6.91776  -0.35184  -0.33647  -0.15827
  Beta  occ. eigenvalues --    0.01175
  Beta virt. eigenvalues --    0.10488   0.13841   0.14109   0.14905   0.15839
  Beta virt. eigenvalues --    0.19132   0.19927   0.20619   0.20630   0.24100
  Beta virt. eigenvalues --    0.24781   0.25118   0.37903   0.41341   0.55274

 Mulliken charges and spin densities:
               1          2
     1  B   -0.518623   0.526341
     2  B   -0.518623   0.526341
     3  H    0.018623  -0.026341
     4  H    0.018623  -0.026341
 Sum of Mulliken charges =  -1.00000   1.00000

 Dipole moment (field-independent basis, Debye):
    X=              0.0000    Y=              0.0000    Z=             -0.0000  Tot=              0.0000
 Quadrupole moment (field-independent basis, Debye-Ang):
   XX=            -23.7416   YY=            -30.7995   ZZ=            -23.5738
   XY=              0.0078   XZ=             -0.0000   YZ=              0.0000

 Normal termination of Gaussian 16 at Mon Apr 21 17:30:44 2025.
