 Gaussian 16, Revision A.03,
 Gaussian 16:  ES64L-G16RevA.03 25-Dec-2016

 --------------------------------------------
 #p opt UM062X/6-311+G** nosymm int=superfine
 --------------------------------------------

 -------------------
 Title Card Required
 -------------------
 Symbolic Z-matrix:
 Charge = -1 Multiplicity = 2

 SCF Done:  E(UM062X) =  -53.2195595778     A.U. after   11 cycles
 SCF Done:  E(UM062X) =  -53.2214175080     A.U. after   10 cycles
 SCF Done:  E(UM062X) =  -53.2218014150     A.U. after   10 cycles
 SCF Done:  E(UM062X) =  -53.2218022736     A.U. after    8 cycles
 Optimization completed.
    -- Stationary point found.

                          Input orientation:
 ---------------------------------------------------------------------
 Center     Atomic      Atomic             Coordinates (Angstroms)
 Number     Number       Type             X           Y           Z
 ---------------------------------------------------------------------
      1          5           0       -1.540672    0.000000    0.000000
      2          5           0        1.540672    0.000000    0.000000
      3          1           0        1.653372   -1.194830   -0.000011
      4          1           0       -1.653046   -0.597437    1.034775
      5          1           0        1.653186    0.597454   -1.034752
      6          1           0        1.653005    0.597423    1.034787
      7          1           0       -1.653379    1.194830    0.000002
      8          1           0       -1.653138   -0.597441   -1.034764
 ---------------------------------------------------------------------

 Alpha  occ. eigenvalues --   -6.82696  -6.82694  -0.39186  -0.37188  -0.20617
 Alpha  occ. eigenvalues --   -0.20617  -0.19494  -0.19494  -0.00242
 Alpha virt. eigenvalues --    0.14861   0.17218   0.17614   0.17614   0.18924
 Alpha virt. eigenvalues --    0.18924   0.22202   0.22373   0.22819   0.32962
 Alpha virt. eigenvalues --    0.32962   0.36310   0.36312   0.38870   0.40158

  Beta  occ. eigenvalues --   -6.82649  -6.82648  -0.36986  -0.35674  -0.20285
  Beta  occ. eigenvalues --   -0.20285  -0.19328  -0.19327
  Beta virt. eigenvalues --    0.13549   0.14624   0.16718   0.16718   0.16803
  Beta virt. eigenvalues --    0.18473   0.18473   0.23599   0.24125   0.28139
  Beta virt. eigenvalues --    0.32479   0.32479   0.36244   0.36245   0.39129

 Mulliken charges and spin densities:
               1          2
     1  B   -0.295181   0.600469
     2  B   -0.295181   0.600469
     3  H   -0.068295  -0.033505
     4  H   -0.068260  -0.033481
     5  H   -0.068267  -0.033482
     6  H   -0.068257  -0.033481
     7  H   -0.068295  -0.033505
     8  H   -0.068264  -0.033482
 Sum of Mulliken charges =  -1.00000   1.00000

 Dipole moment (field-independent basis, Debye):
    X=              0.0000    Y=             -0.0000    Z=              0.0000  Tot=              0.0000
 Quadrupole moment (field-independent basis, Debye-Ang):
   XX=            -36.4996   YY=            -24.1181   ZZ=            -24.1179
   XY=              0.0001   XZ=              0.0000   YZ=              0.0000

 Normal termination of Gaussian 16 at Mon Apr 21 16:48:45 2025.
