 Gaussian 16, Revision A.03,
 Gaussian 16:  ES64L-G16RevA.03 25-Dec-2016

 --------------------------------------------
 #p opt UM062X/6-311+G** nosymm int=superfine
 --------------------------------------------

 -------------------
 Title Card Required
 -------------------
 Symbolic Z-matrix:
 Charge =  0 Multiplicity = 1

 SCF Done:  E(UM062X) =  -80.4439722783     A.U. after   21 cycles
 SCF Done:  E(UM062X) =  -80.4439728393     A.U. after   12 cycles
 SCF Done:  E(UM062X) =  -80.4439729978     A.U. after   12 cycles
 SCF Done:  E(UM062X) =  -80.4439732930     A.U. after   12 cycles
 SCF Done:  E(UM062X) =  -80.4439734177     A.U. after    9 cycles
 SCF Done:  E(UM062X) =  -80.4439734588     A.U. after   13 cycles
 Optimization completed.
    -- Stationary point found.

                          Input orientation:
 ---------------------------------------------------------------------
 Center     Atomic      Atomic             Coordinates (Angstroms)
 Number     Number       Type             X           Y           Z
 ---------------------------------------------------------------------
      1          5           0       -1.392125   -0.000093    0.000000
      2          7           0        1.392042    0.000051    0.000000
      3          1           0       -2.559954   -0.300780    0.143274
      4          1           0        1.305064    0.931662   -0.444106
 ---------------------------------------------------------------------

 Alpha  occ. eigenvalues --  -14.78126  -7.18061  -0.84861  -0.59058  -0.41737
 Alpha  occ. eigenvalues --   -0.32352  -0.28986
 Alpha virt. eigenvalues --   -0.08530  -0.07267  -0.06125   0.01024   0.04158
 Alpha virt. eigenvalues --    0.05224   0.05304   0.12049   0.15734   0.17345
 Alpha virt. eigenvalues --    0.18435   0.21110   0.25704   0.35475   0.39302

  Beta  occ. eigenvalues --  -14.78126  -7.18061  -0.84861  -0.59058  -0.41737
  Beta  occ. eigenvalues --   -0.32352  -0.28986
  Beta virt. eigenvalues --   -0.08530  -0.07267  -0.06125   0.01024   0.04158
  Beta virt. eigenvalues --    0.05224   0.05304   0.12049   0.15734   0.17345
  Beta virt. eigenvalues --    0.18435   0.21110   0.25704   0.35475   0.39302

 Mulliken charges and spin densities:
               1          2
     1  B    0.067658   0.000000
     2  N   -0.283569  -0.000000
     3  H    0.036334   0.000000
     4  H    0.179577  -0.000000
 Sum of Mulliken charges =   0.00000  -0.00000

 Dipole moment (field-independent basis, Debye):
    X=             -3.8111    Y=              0.9803    Z=             -0.4675  Tot=              3.9628
 Quadrupole moment (field-independent basis, Debye-Ang):
   XX=             -9.9704   YY=            -13.0303   ZZ=            -14.6842
   XY=              2.2335   XZ=             -1.0646   YZ=             -1.0202

 Normal termination of Gaussian 16 at Mon Apr 21 21:05:22 2025.
