 Gaussian 16, Revision A.03,
 Gaussian 16:  ES64L-G16RevA.03 25-Dec-2016

 --------------------------------------------
 #p opt UM062X/6-311+G** nosymm int=superfine
 --------------------------------------------

 -------------------
 Title Card Required
 -------------------
 Symbolic Z-matrix:
 Charge =  0 Multiplicity = 1

 SCF Done:  E(UM062X) =  -797.379680329     A.U. after   15 cycles
 SCF Done:  E(UM062X) =  -797.379754960     A.U. after   13 cycles
 SCF Done:  E(UM062X) =  -797.379895208     A.U. after   14 cycles
 SCF Done:  E(UM062X) =  -797.379994509     A.U. after   16 cycles
 SCF Done:  E(UM062X) =  -797.380219670     A.U. after   17 cycles
 SCF Done:  E(UM062X) =  -797.380315188     A.U. after   21 cycles
 SCF Done:  E(UM062X) =  -797.380324222     A.U. after   18 cycles
 SCF Done:  E(UM062X) =  -797.380325420     A.U. after   18 cycles
 SCF Done:  E(UM062X) =  -797.380354521     A.U. after   17 cycles
 SCF Done:  E(UM062X) =  -797.380178196     A.U. after   20 cycles
 SCF Done:  E(UM062X) =  -797.380364674     A.U. after   18 cycles
 SCF Done:  E(UM062X) =  -797.380359424     A.U. after   14 cycles
 SCF Done:  E(UM062X) =  -797.380370374     A.U. after   13 cycles
 SCF Done:  E(UM062X) =  -797.380371340     A.U. after   14 cycles
 SCF Done:  E(UM062X) =  -797.380371442     A.U. after   12 cycles
 SCF Done:  E(UM062X) =  -797.380371473     A.U. after   12 cycles
 SCF Done:  E(UM062X) =  -797.380371591     A.U. after   12 cycles
 SCF Done:  E(UM062X) =  -797.380371680     A.U. after   12 cycles
 Optimization completed.
    -- Stationary point found.

                          Input orientation:
 ---------------------------------------------------------------------
 Center     Atomic      Atomic             Coordinates (Angstroms)
 Number     Number       Type             X           Y           Z
 ---------------------------------------------------------------------
      1         16           0       -2.393191    0.000000    0.000000
      2         16           0        2.393191    0.000000    0.000000
      3          1           0       -2.239556   -0.449367   -1.259657
      4          1           0        2.247614    1.274610    0.408044
 ---------------------------------------------------------------------

 Alpha  occ. eigenvalues --  -89.94308 -89.94306  -8.30573  -8.30571  -6.22714
 Alpha  occ. eigenvalues --   -6.22712  -6.22472  -6.22470  -6.21902  -6.21900
 Alpha  occ. eigenvalues --   -0.81343  -0.81155  -0.47339  -0.47321  -0.33375
 Alpha  occ. eigenvalues --   -0.33292  -0.29888
 Alpha virt. eigenvalues --   -0.22649   0.01825   0.02952   0.04385   0.04839
 Alpha virt. eigenvalues --    0.06484   0.06556   0.07190   0.07396   0.08297
 Alpha virt. eigenvalues --    0.12840   0.31496   0.31659   0.32577   0.35089

  Beta  occ. eigenvalues --  -89.94308 -89.94306  -8.30573  -8.30571  -6.22714
  Beta  occ. eigenvalues --   -6.22712  -6.22472  -6.22470  -6.21902  -6.21900
  Beta  occ. eigenvalues --   -0.81343  -0.81155  -0.47339  -0.47321  -0.33375
  Beta  occ. eigenvalues --   -0.33292  -0.29888
  Beta virt. eigenvalues --   -0.22649   0.01825   0.02952   0.04385   0.04839
  Beta virt. eigenvalues --    0.06484   0.06556   0.07190   0.07396   0.08297
  Beta virt. eigenvalues --    0.12840   0.31496   0.31659   0.32577   0.35089

 Mulliken charges and spin densities:
               1          2
     1  S   -0.080541   0.000000
     2  S   -0.080868   0.000000
     3  H    0.080719   0.000000
     4  H    0.080690   0.000000
 Sum of Mulliken charges =   0.00000   0.00000

 Dipole moment (field-independent basis, Debye):
    X=              0.0042    Y=              0.6838    Z=             -0.7066  Tot=              0.9833
 Quadrupole moment (field-independent basis, Debye-Ang):
   XX=            -26.0339   YY=            -28.0214   ZZ=            -28.1827
   XY=              3.2953   XZ=              3.1807   YZ=              2.4425

 Normal termination of Gaussian 16 at Mon Apr 21 21:22:13 2025.
