 Gaussian 16, Revision A.03,
 Gaussian 16:  ES64L-G16RevA.03 25-Dec-2016

 --------------------------------------------
 #p opt UM062X/6-311+G** nosymm int=superfine
 --------------------------------------------

 -------------------
 Title Card Required
 -------------------
 Symbolic Z-matrix:
 Charge =  0 Multiplicity = 1

 SCF Done:  E(UM062X) =  -438.671832844     A.U. after   11 cycles
 SCF Done:  E(UM062X) =  -438.672148383     A.U. after    9 cycles
 SCF Done:  E(UM062X) =  -438.672164175     A.U. after    8 cycles
 SCF Done:  E(UM062X) =  -438.672164512     A.U. after    8 cycles
 Optimization completed.
    -- Stationary point found.

                          Input orientation:
 ---------------------------------------------------------------------
 Center     Atomic      Atomic             Coordinates (Angstroms)
 Number     Number       Type             X           Y           Z
 ---------------------------------------------------------------------
      1          6           0       -0.960220    0.000000    0.000000
      2         16           0        0.960220    0.000000    0.000000
      3          1           0        1.085999   -1.335337   -0.001925
      4          1           0       -1.246756    1.048306    0.002277
      5          1           0       -1.321903   -0.488007   -0.900377
      6          1           0       -1.321871   -0.491860    0.898291
 ---------------------------------------------------------------------

 Alpha  occ. eigenvalues --  -89.89199 -10.57371  -8.25691  -6.17824  -6.17622
 Alpha  occ. eigenvalues --   -6.17173  -0.85928  -0.73767  -0.51281  -0.50021
 Alpha  occ. eigenvalues --   -0.44668  -0.38878  -0.29675
 Alpha virt. eigenvalues --    0.01022   0.03049   0.04729   0.05339   0.06937
 Alpha virt. eigenvalues --    0.08059   0.08789   0.08812   0.12437   0.13961
 Alpha virt. eigenvalues --    0.17918   0.18068   0.25869   0.33039   0.34672

  Beta  occ. eigenvalues --  -89.89199 -10.57371  -8.25691  -6.17824  -6.17622
  Beta  occ. eigenvalues --   -6.17173  -0.85928  -0.73767  -0.51281  -0.50021
  Beta  occ. eigenvalues --   -0.44668  -0.38878  -0.29675
  Beta virt. eigenvalues --    0.01022   0.03049   0.04729   0.05339   0.06937
  Beta virt. eigenvalues --    0.08059   0.08789   0.08812   0.12437   0.13961
  Beta virt. eigenvalues --    0.17918   0.18068   0.25869   0.33039   0.34672

 Mulliken charges and spin densities:
               1          2
     1  C   -0.608678   0.000000
     2  S   -0.035790  -0.000000
     3  H    0.064920   0.000000
     4  H    0.192039  -0.000000
     5  H    0.193766  -0.000000
     6  H    0.193743  -0.000000
 Sum of Mulliken charges =  -0.00000   0.00000

 Dipole moment (field-independent basis, Debye):
    X=             -1.5517    Y=             -0.9266    Z=             -0.0013  Tot=              1.8073
 Quadrupole moment (field-independent basis, Debye-Ang):
   XX=            -21.2765   YY=            -19.2324   ZZ=            -22.9644
   XY=             -1.5630   XZ=             -0.0023   YZ=              0.0054

 Normal termination of Gaussian 16 at Mon Apr 21 19:29:15 2025.
