 Gaussian 16, Revision A.03,
 Gaussian 16:  ES64L-G16RevA.03 25-Dec-2016

 --------------------------------------------
 #p opt UM062X/6-311+G** nosymm int=superfine
 --------------------------------------------

 -------------------
 Title Card Required
 -------------------
 Symbolic Z-matrix:
 Charge =  0 Multiplicity = 1

 SCF Done:  E(UM062X) =  -685.035321539     A.U. after   10 cycles
 SCF Done:  E(UM062X) =  -685.036565598     A.U. after   10 cycles
 SCF Done:  E(UM062X) =  -685.036776165     A.U. after   10 cycles
 SCF Done:  E(UM062X) =  -685.036782279     A.U. after    9 cycles
 SCF Done:  E(UM062X) =  -685.036783894     A.U. after    8 cycles
 SCF Done:  E(UM062X) =  -685.036784981     A.U. after    8 cycles
 SCF Done:  E(UM062X) =  -685.036785096     A.U. after    7 cycles
 Optimization completed.
    -- Stationary point found.

                          Input orientation:
 ---------------------------------------------------------------------
 Center     Atomic      Atomic             Coordinates (Angstroms)
 Number     Number       Type             X           Y           Z
 ---------------------------------------------------------------------
      1         15           0       -1.317217    0.000000    0.000000
      2         15           0        1.317217    0.000000    0.000000
      3          1           0        1.355148   -1.415042    0.048221
      4          1           0       -1.355135    1.409395   -0.135556
      5          1           0        1.413159    0.023307   -1.413566
      6          1           0       -1.413388   -0.206217   -1.398607
 ---------------------------------------------------------------------

 Alpha  occ. eigenvalues --  -78.03712 -78.03712  -6.86137  -6.86136  -4.97680
 Alpha  occ. eigenvalues --   -4.97676  -4.97623  -4.97623  -4.97423  -4.97422
 Alpha  occ. eigenvalues --   -0.73706  -0.68261  -0.45157  -0.45108  -0.37945
 Alpha  occ. eigenvalues --   -0.34518  -0.30308
 Alpha virt. eigenvalues --   -0.04254   0.01078   0.03531   0.03766   0.03930
 Alpha virt. eigenvalues --    0.04252   0.05109   0.06262   0.06422   0.07866
 Alpha virt. eigenvalues --    0.09790   0.15894   0.19190   0.28584   0.29071

  Beta  occ. eigenvalues --  -78.03712 -78.03712  -6.86137  -6.86136  -4.97680
  Beta  occ. eigenvalues --   -4.97676  -4.97623  -4.97623  -4.97423  -4.97422
  Beta  occ. eigenvalues --   -0.73706  -0.68261  -0.45157  -0.45108  -0.37945
  Beta  occ. eigenvalues --   -0.34518  -0.30308
  Beta virt. eigenvalues --   -0.04254   0.01078   0.03531   0.03766   0.03930
  Beta virt. eigenvalues --    0.04252   0.05109   0.06262   0.06422   0.07866
  Beta virt. eigenvalues --    0.09790   0.15894   0.19190   0.28584   0.29071

 Mulliken charges and spin densities:
               1          2
     1  P   -0.048685  -0.000000
     2  P   -0.048645   0.000000
     3  H    0.026592  -0.000000
     4  H    0.026588   0.000000
     5  H    0.022073  -0.000000
     6  H    0.022077  -0.000000
 Sum of Mulliken charges =  -0.00000  -0.00000

 Dipole moment (field-independent basis, Debye):
    X=              0.0001    Y=             -0.0779    Z=             -1.1963  Tot=              1.1988
 Quadrupole moment (field-independent basis, Debye-Ang):
   XX=            -30.7543   YY=            -29.1935   ZZ=            -29.6336
   XY=             -2.3054   XZ=              0.1504   YZ=             -0.0288

 Normal termination of Gaussian 16 at Mon Apr 21 20:45:48 2025.
