 Gaussian 16, Revision A.03,
 Gaussian 16:  ES64L-G16RevA.03 25-Dec-2016

 ---------------------------------------------------------
 #p opt UM062X/6-311+G** nosymm int=superfine SCF=NoVarAcc
 ---------------------------------------------------------

 -------------------
 Title Card Required
 -------------------
 Symbolic Z-matrix:
 Charge =  0 Multiplicity = 1

 SCF Done:  E(UM062X) =  -76.8147934575     A.U. after   18 cycles
 SCF Done:  E(UM062X) =  -76.8148016142     A.U. after    9 cycles
 Optimization completed.
    -- Stationary point found.

                          Input orientation:
 ---------------------------------------------------------------------
 Center     Atomic      Atomic             Coordinates (Angstroms)
 Number     Number       Type             X           Y           Z
 ---------------------------------------------------------------------
      1          6           0       -6.432625    0.000000    0.000000
      2          6           0        6.432625    0.000000    0.000000
      3          1           0       -7.552851   -0.000007    0.000007
      4          1           0        7.552851    0.000005   -0.000005
 ---------------------------------------------------------------------

 Alpha  occ. eigenvalues --  -10.66738 -10.66738  -0.72521  -0.72518  -0.38703
 Alpha  occ. eigenvalues --   -0.38702  -0.19267
 Alpha virt. eigenvalues --   -0.17063  -0.09724  -0.09724   0.03297   0.03300
 Alpha virt. eigenvalues --    0.08101   0.08101   0.08213   0.08224   0.08926
 Alpha virt. eigenvalues --    0.08927   0.17342   0.17343   0.45400   0.45405

  Beta  occ. eigenvalues --  -10.66738 -10.66738  -0.72521  -0.72518  -0.38703
  Beta  occ. eigenvalues --   -0.38702  -0.19267
  Beta virt. eigenvalues --   -0.17063  -0.09724  -0.09724   0.03297   0.03300
  Beta virt. eigenvalues --    0.08101   0.08101   0.08213   0.08224   0.08926
  Beta virt. eigenvalues --    0.08927   0.17342   0.17343   0.45400   0.45405

 Mulliken charges and spin densities:
               1          2
     1  C   -0.129364   0.000000
     2  C   -0.129364  -0.000000
     3  H    0.129364   0.000000
     4  H    0.129364  -0.000000
 Sum of Mulliken charges =  -0.00000  -0.00000

 Dipole moment (field-independent basis, Debye):
    X=              0.0000    Y=             -0.0000    Z=              0.0000  Tot=              0.0000
 Quadrupole moment (field-independent basis, Debye-Ang):
   XX=             27.7991   YY=            -14.5887   ZZ=            -14.5905
   XY=              0.0001   XZ=             -0.0001   YZ=             -2.7034

 Normal termination of Gaussian 16 at Tue Dec  3 20:21:45 2024.
