 Gaussian 16, Revision A.03,
 Gaussian 16:  ES64L-G16RevA.03 25-Dec-2016

 --------------------------------------------
 #p opt UM062X/6-311+G** nosymm int=superfine
 --------------------------------------------

 -------------------
 Title Card Required
 -------------------
 Symbolic Z-matrix:
 Charge =  0 Multiplicity = 1

 SCF Done:  E(UM062X) =  -581.164967782     A.U. after   10 cycles
 SCF Done:  E(UM062X) =  -581.165566602     A.U. after    8 cycles
 SCF Done:  E(UM062X) =  -581.165765095     A.U. after    9 cycles
 SCF Done:  E(UM062X) =  -581.165762213     A.U. after   10 cycles
 SCF Done:  E(UM062X) =  -581.165765473     A.U. after    9 cycles
 SCF Done:  E(UM062X) =  -581.165766715     A.U. after    9 cycles
 SCF Done:  E(UM062X) =  -581.171106199     A.U. after   14 cycles
 SCF Done:  E(UM062X) =  -581.184709577     A.U. after   12 cycles
 SCF Done:  E(UM062X) =  -581.210077617     A.U. after   15 cycles
 SCF Done:  E(UM062X) =  -581.213271839     A.U. after   11 cycles
 SCF Done:  E(UM062X) =  -581.213467127     A.U. after   10 cycles
 SCF Done:  E(UM062X) =  -581.213468126     A.U. after    9 cycles
 SCF Done:  E(UM062X) =  -581.213469202     A.U. after    8 cycles
 SCF Done:  E(UM062X) =  -581.213472123     A.U. after    9 cycles
 SCF Done:  E(UM062X) =  -581.213473361     A.U. after    8 cycles
 SCF Done:  E(UM062X) =  -581.213474234     A.U. after    9 cycles
 Optimization completed.
    -- Stationary point found.

                          Input orientation:
 ---------------------------------------------------------------------
 Center     Atomic      Atomic             Coordinates (Angstroms)
 Number     Number       Type             X           Y           Z
 ---------------------------------------------------------------------
      1         14           0       -1.487518    0.000000    0.000000
      2         14           0        1.487518    0.000000    0.000000
      3          1           0       -2.022729   -1.140776   -0.815098
      4          1           0        2.022933    1.141280    0.814244
      5          1           0       -2.022609    1.141062   -0.814796
      6          1           0        2.023026   -1.140646    0.815054
 ---------------------------------------------------------------------

 Alpha  occ. eigenvalues --  -67.02487 -67.02485  -5.57118  -5.57116  -3.88387
 Alpha  occ. eigenvalues --   -3.88384  -3.87926  -3.87923  -3.87830  -3.87828
 Alpha  occ. eigenvalues --   -0.59662  -0.57051  -0.40462  -0.39570  -0.32684
 Alpha  occ. eigenvalues --   -0.26034
 Alpha virt. eigenvalues --   -0.10239  -0.02211   0.02249   0.02838   0.04234
 Alpha virt. eigenvalues --    0.05030   0.05404   0.05463   0.05585   0.06463
 Alpha virt. eigenvalues --    0.08679   0.08849   0.12423   0.15455   0.28003

  Beta  occ. eigenvalues --  -67.02487 -67.02485  -5.57118  -5.57116  -3.88387
  Beta  occ. eigenvalues --   -3.88384  -3.87926  -3.87923  -3.87830  -3.87828
  Beta  occ. eigenvalues --   -0.59662  -0.57051  -0.40462  -0.39570  -0.32684
  Beta  occ. eigenvalues --   -0.26034
  Beta virt. eigenvalues --   -0.10239  -0.02211   0.02249   0.02838   0.04234
  Beta virt. eigenvalues --    0.05030   0.05404   0.05463   0.05585   0.06463
  Beta virt. eigenvalues --    0.08679   0.08849   0.12423   0.15455   0.28003

 Mulliken charges and spin densities:
               1          2
     1  Si   0.224653  -0.000002
     2  Si   0.224737   0.000002
     3  H   -0.112344  -0.000000
     4  H   -0.112350   0.000000
     5  H   -0.112358  -0.000000
     6  H   -0.112337   0.000000
 Sum of Mulliken charges =  -0.00000   0.00000

 Dipole moment (field-independent basis, Debye):
    X=              0.0010    Y=             -0.0001    Z=              0.0001  Tot=              0.0010
 Quadrupole moment (field-independent basis, Debye-Ang):
   XX=            -25.6165   YY=            -31.4151   ZZ=            -33.1971
   XY=             -0.0003   XZ=             -2.3481   YZ=             -0.0002

 Normal termination of Gaussian 16 at Mon Apr 21 20:30:00 2025.
