 Gaussian 16, Revision A.03,
 Gaussian 16:  ES64L-G16RevA.03 25-Dec-2016

 --------------------------------------------
 #p opt UM062X/6-311+G** nosymm int=superfine
 --------------------------------------------

 -------------------
 Title Card Required
 -------------------
 Symbolic Z-matrix:
 Charge =  0 Multiplicity = 1

 SCF Done:  E(UM062X) =  -683.634412204     A.U. after   11 cycles
 SCF Done:  E(UM062X) =  -683.635156441     A.U. after   10 cycles
 SCF Done:  E(UM062X) =  -683.635644173     A.U. after   10 cycles
 SCF Done:  E(UM062X) =  -683.635645260     A.U. after   11 cycles
 Optimization completed.
    -- Stationary point found.

                          Input orientation:
 ---------------------------------------------------------------------
 Center     Atomic      Atomic             Coordinates (Angstroms)
 Number     Number       Type             X           Y           Z
 ---------------------------------------------------------------------
      1         15           0       -1.834490    0.000000    0.000000
      2         15           0        1.834490    0.000000    0.000000
      3          1           0       -1.734346   -1.419734   -0.000000
      4          1           0        1.734346    1.419734   -0.000000
 ---------------------------------------------------------------------

 Alpha  occ. eigenvalues --  -78.08531 -78.08531  -6.90513  -6.90512  -5.01923
 Alpha  occ. eigenvalues --   -5.01922  -5.01916  -5.01916  -5.01724  -5.01724
 Alpha  occ. eigenvalues --   -0.68964  -0.67683  -0.40619  -0.40273  -0.27296
 Alpha  occ. eigenvalues --   -0.24808
 Alpha virt. eigenvalues --   -0.16148  -0.13384   0.01982   0.03051   0.03723
 Alpha virt. eigenvalues --    0.04621   0.05401   0.05844   0.06521   0.07990
 Alpha virt. eigenvalues --    0.08671   0.11925   0.27792   0.30144   0.30418

  Beta  occ. eigenvalues --  -78.08531 -78.08531  -6.90513  -6.90512  -5.01923
  Beta  occ. eigenvalues --   -5.01922  -5.01916  -5.01916  -5.01724  -5.01724
  Beta  occ. eigenvalues --   -0.68964  -0.67683  -0.40619  -0.40273  -0.27296
  Beta  occ. eigenvalues --   -0.24808
  Beta virt. eigenvalues --   -0.16148  -0.13384   0.01982   0.03051   0.03723
  Beta virt. eigenvalues --    0.04621   0.05401   0.05844   0.06521   0.07990
  Beta virt. eigenvalues --    0.08671   0.11925   0.27792   0.30144   0.30418

 Mulliken charges and spin densities:
               1          2
     1  P    0.006460  -0.000000
     2  P    0.006459   0.000000
     3  H   -0.006460   0.000000
     4  H   -0.006460  -0.000000
 Sum of Mulliken charges =  -0.00000   0.00000

 Dipole moment (field-independent basis, Debye):
    X=             -0.0000    Y=             -0.0000    Z=             -0.0000  Tot=              0.0000
 Quadrupole moment (field-independent basis, Debye-Ang):
   XX=            -26.8234   YY=            -28.4260   ZZ=            -30.8526
   XY=              3.0197   XZ=             -0.0000   YZ=             -0.0000

 Normal termination of Gaussian 16 at Mon Apr 21 21:12:37 2025.
