 Gaussian 16, Revision A.03,
 Gaussian 16:  ES64L-G16RevA.03 25-Dec-2016

 --------------------------------------------
 #p opt UM062X/6-311+G** nosymm int=superfine
 --------------------------------------------

 -------------------
 Title Card Required
 -------------------
 Symbolic Z-matrix:
 Charge =  0 Multiplicity = 1

 SCF Done:  E(UM062X) =  -379.737638222     A.U. after   12 cycles
 SCF Done:  E(UM062X) =  -379.738055404     A.U. after   10 cycles
 Optimization completed.
    -- Stationary point found.

                          Input orientation:
 ---------------------------------------------------------------------
 Center     Atomic      Atomic             Coordinates (Angstroms)
 Number     Number       Type             X           Y           Z
 ---------------------------------------------------------------------
      1          6           0       -1.165377    0.000000    0.000000
      2         15           0        1.165377    0.000000    0.000000
      3          1           0       -2.264209    0.000000    0.000000
 ---------------------------------------------------------------------

 Alpha  occ. eigenvalues --  -78.10584 -10.68340  -6.92036  -5.03562  -5.03231
 Alpha  occ. eigenvalues --   -5.03231  -0.74635  -0.63262  -0.41952  -0.27805
 Alpha  occ. eigenvalues --   -0.27805
 Alpha virt. eigenvalues --   -0.10883  -0.10883  -0.06006   0.01616   0.04313
 Alpha virt. eigenvalues --    0.05440   0.05440   0.07222   0.09987   0.09987
 Alpha virt. eigenvalues --    0.15744   0.20891   0.29947   0.32769   0.32769

  Beta  occ. eigenvalues --  -78.10584 -10.68340  -6.92036  -5.03562  -5.03231
  Beta  occ. eigenvalues --   -5.03231  -0.74635  -0.63262  -0.41952  -0.27805
  Beta  occ. eigenvalues --   -0.27805
  Beta virt. eigenvalues --   -0.10883  -0.10883  -0.06006   0.01616   0.04313
  Beta virt. eigenvalues --    0.05440   0.05440   0.07222   0.09987   0.09987
  Beta virt. eigenvalues --    0.15744   0.20891   0.29947   0.32769   0.32769

 Mulliken charges and spin densities:
               1          2
     1  C   -0.344068   0.000000
     2  P    0.121641   0.000000
     3  H    0.222427  -0.000000
 Sum of Mulliken charges =  -0.00000   0.00000

 Dipole moment (field-independent basis, Debye):
    X=             -0.5965    Y=              0.0000    Z=              0.0000  Tot=              0.5965
 Quadrupole moment (field-independent basis, Debye-Ang):
   XX=            -12.7618   YY=            -22.8606   ZZ=            -22.8606
   XY=             -0.0000   XZ=              0.0000   YZ=              0.0000

 Normal termination of Gaussian 16 at Mon Apr 21 19:24:02 2025.
