 Gaussian 16, Revision A.03,
 Gaussian 16:  ES64L-G16RevA.03 25-Dec-2016

 ---------------------------------------
 #p UM062X/6-311+G** force int=superfine
 ---------------------------------------

 -------------------
 Title Card Required
 -------------------
 Symbolic Z-matrix:
 Charge =  0 Multiplicity = 1

                         Standard orientation:
 ---------------------------------------------------------------------
 Center     Atomic      Atomic             Coordinates (Angstroms)
 Number     Number       Type             X           Y           Z
 ---------------------------------------------------------------------
      1          6           0       -0.000000    0.689387    0.000000
      2          6           0       -0.000000   -0.689387    0.000000
      3          1           0        0.928037    1.247877   -0.000000
      4          1           0       -0.927997    1.247926    0.000000
      5          1           0       -0.928037   -1.247877   -0.000000
      6          1           0        0.927997   -1.247926    0.000000
 ---------------------------------------------------------------------

 SCF Done:  E(UM062X) =  -78.5606367179     A.U. after    8 cycles

 The electronic state is 1-AG.
 Alpha  occ. eigenvalues --  -10.54682 -10.54595  -0.84999  -0.66789  -0.54036
 Alpha  occ. eigenvalues --   -0.47872  -0.42694  -0.32670
 Alpha virt. eigenvalues --    0.01900   0.03397   0.04030   0.05174   0.07850
 Alpha virt. eigenvalues --    0.08114   0.09720   0.13080   0.16017   0.17261
 Alpha virt. eigenvalues --    0.20191   0.22831   0.31019   0.34625   0.43535

  Beta  occ. eigenvalues --  -10.54682 -10.54595  -0.84999  -0.66789  -0.54036
  Beta  occ. eigenvalues --   -0.47872  -0.42694  -0.32670
  Beta virt. eigenvalues --    0.01900   0.03397   0.04030   0.05174   0.07850
  Beta virt. eigenvalues --    0.08114   0.09720   0.13080   0.16017   0.17261
  Beta virt. eigenvalues --    0.20191   0.22831   0.31019   0.34625   0.43535

 Mulliken charges and spin densities:
               1          2
     1  C   -0.302226  -0.000000
     2  C   -0.302226  -0.000000
     3  H    0.151110   0.000000
     4  H    0.151115  -0.000000
     5  H    0.151110   0.000000
     6  H    0.151115  -0.000000
 Sum of Mulliken charges =  -0.00000   0.00000

 Dipole moment (field-independent basis, Debye):
    X=              0.0000    Y=             -0.0000    Z=              0.0000  Tot=              0.0000
 Quadrupole moment (field-independent basis, Debye-Ang):
   XX=            -12.3001   YY=            -12.2072   ZZ=            -16.1214
   XY=             -0.0001   XZ=              0.0000   YZ=             -0.0000

 Normal termination of Gaussian 16 at Tue Nov 19 11:44:37 2024.
