 Gaussian 16, Revision A.03,
 Gaussian 16:  ES64L-G16RevA.03 25-Dec-2016

 --------------------------------------------
 #p opt UM062X/6-311+G** nosymm int=superfine
 --------------------------------------------

 -------------------
 Title Card Required
 -------------------
 Symbolic Z-matrix:
 Charge =  0 Multiplicity = 1

 SCF Done:  E(UM062X) =  -81.6974160513     A.U. after   23 cycles
 SCF Done:  E(UM062X) =  -81.7155387321     A.U. after   16 cycles
 SCF Done:  E(UM062X) =  -81.7229115917     A.U. after   16 cycles
 SCF Done:  E(UM062X) =  -81.7248633067     A.U. after   16 cycles
 SCF Done:  E(UM062X) =  -81.7287251327     A.U. after   15 cycles
 SCF Done:  E(UM062X) =  -81.7304181798     A.U. after   13 cycles
 SCF Done:  E(UM062X) =  -81.7306048897     A.U. after   14 cycles
 SCF Done:  E(UM062X) =  -81.7307839581     A.U. after   14 cycles
 SCF Done:  E(UM062X) =  -81.7308823642     A.U. after   14 cycles
 SCF Done:  E(UM062X) =  -81.7309105275     A.U. after   12 cycles
 SCF Done:  E(UM062X) =  -81.7309167379     A.U. after   11 cycles
 SCF Done:  E(UM062X) =  -81.7309170492     A.U. after   10 cycles
 Optimization completed.
    -- Stationary point found.

                          Input orientation:
 ---------------------------------------------------------------------
 Center     Atomic      Atomic             Coordinates (Angstroms)
 Number     Number       Type             X           Y           Z
 ---------------------------------------------------------------------
      1          5           0       -1.895399    0.000000    0.000000
      2          7           0        1.895399    0.000000    0.000000
      3          1           0       -2.221976   -1.124989   -0.025775
      4          1           0        1.877529    0.802431    0.638028
      5          1           0       -2.221978    1.124973   -0.026419
      6          1           0        1.877529   -0.802063    0.638490
 ---------------------------------------------------------------------

 Alpha  occ. eigenvalues --  -14.71642  -7.18530  -0.87343  -0.63231  -0.51931
 Alpha  occ. eigenvalues --   -0.47998  -0.33268  -0.23159
 Alpha virt. eigenvalues --   -0.11382  -0.09068   0.00610   0.02631   0.04163
 Alpha virt. eigenvalues --    0.04993   0.09213   0.11463   0.13564   0.17404
 Alpha virt. eigenvalues --    0.19978   0.20383   0.21701   0.27189   0.32320

  Beta  occ. eigenvalues --  -14.71642  -7.18530  -0.87343  -0.63231  -0.51931
  Beta  occ. eigenvalues --   -0.47998  -0.33268  -0.23159
  Beta virt. eigenvalues --   -0.11382  -0.09068   0.00610   0.02631   0.04163
  Beta virt. eigenvalues --    0.04993   0.09213   0.11463   0.13564   0.17404
  Beta virt. eigenvalues --    0.19978   0.20383   0.21701   0.27189   0.32320

 Mulliken charges and spin densities:
               1          2
     1  B    0.148055   0.000001
     2  N   -0.691323  -0.000001
     3  H    0.069208   0.000000
     4  H    0.202426   0.000000
     5  H    0.069208   0.000000
     6  H    0.202426   0.000000
 Sum of Mulliken charges =  -0.00000   0.00000

 Dipole moment (field-independent basis, Debye):
    X=             -5.5089    Y=              0.0005    Z=              1.8811  Tot=              5.8212
 Quadrupole moment (field-independent basis, Debye-Ang):
   XX=            -13.8850   YY=            -13.4584   ZZ=            -14.6118
   XY=              0.0011   XZ=              3.8154   YZ=             -0.0003

 Normal termination of Gaussian 16 at Mon Apr 21 17:54:11 2025.
