 Gaussian 16, Revision A.03,
 Gaussian 16:  ES64L-G16RevA.03 25-Dec-2016

 --------------------------------------------
 #p opt UM062X/6-311+G** nosymm int=superfine
 --------------------------------------------

 -------------------
 Title Card Required
 -------------------
 Symbolic Z-matrix:
 Charge =  1 Multiplicity = 2

 SCF Done:  E(UM062X) =  -582.134721437     A.U. after   11 cycles
 SCF Done:  E(UM062X) =  -582.135502555     A.U. after    9 cycles
 SCF Done:  E(UM062X) =  -582.135719887     A.U. after    9 cycles
 SCF Done:  E(UM062X) =  -582.135720345     A.U. after    7 cycles
 Optimization completed.
    -- Stationary point found.

                          Input orientation:
 ---------------------------------------------------------------------
 Center     Atomic      Atomic             Coordinates (Angstroms)
 Number     Number       Type             X           Y           Z
 ---------------------------------------------------------------------
      1         14           0       -2.376292    0.000000    0.000000
      2         14           0        2.376292    0.000000    0.000000
      3          1           0        2.487170   -1.460215   -0.000010
      4          1           0       -2.486356   -0.729986    1.264724
      5          1           0        2.486876    0.730148   -1.264584
      6          1           0        2.486155    0.730072    1.264692
      7          1           0       -2.487196    1.460213   -0.000133
      8          1           0       -2.486649   -0.730238   -1.264552
 ---------------------------------------------------------------------

 Alpha  occ. eigenvalues --  -67.22326 -67.22326  -5.77168  -5.77167  -4.08853
 Alpha  occ. eigenvalues --   -4.08853  -4.08040  -4.08040  -4.08040  -4.08040
 Alpha  occ. eigenvalues --   -0.80860  -0.80539  -0.61256  -0.61255  -0.61187
 Alpha  occ. eigenvalues --   -0.61186  -0.39978
 Alpha virt. eigenvalues --   -0.30034  -0.11952  -0.11686  -0.09949  -0.09415
 Alpha virt. eigenvalues --   -0.09414  -0.08221  -0.08221  -0.07637  -0.07225
 Alpha virt. eigenvalues --   -0.07224  -0.06096  -0.06092  -0.04787   0.00563

  Beta  occ. eigenvalues --  -67.22055 -67.22055  -5.77087  -5.77085  -4.08219
  Beta  occ. eigenvalues --   -4.08219  -4.07947  -4.07947  -4.07947  -4.07946
  Beta  occ. eigenvalues --   -0.79134  -0.78953  -0.61151  -0.61150  -0.61073
  Beta  occ. eigenvalues --   -0.61072
  Beta virt. eigenvalues --   -0.32366  -0.23291  -0.15670  -0.12499  -0.12496
  Beta virt. eigenvalues --   -0.10791  -0.10642  -0.08738  -0.08737  -0.07362
  Beta virt. eigenvalues --   -0.06789  -0.06789  -0.05707  -0.05707  -0.05654

 Mulliken charges and spin densities:
               1          2
     1  Si   0.504697   0.553828
     2  Si   0.504698   0.553828
     3  H   -0.001560  -0.017942
     4  H   -0.001571  -0.017942
     5  H   -0.001564  -0.017945
     6  H   -0.001573  -0.017941
     7  H   -0.001559  -0.017942
     8  H   -0.001567  -0.017944
 Sum of Mulliken charges =   1.00000   1.00000

 Dipole moment (field-independent basis, Debye):
    X=              0.0000    Y=             -0.0000    Z=              0.0001  Tot=              0.0001
 Quadrupole moment (field-independent basis, Debye-Ang):
   XX=              6.6479   YY=            -26.2409   ZZ=            -26.2407
   XY=              0.0008   XZ=              0.0001   YZ=             -0.0000

 Normal termination of Gaussian 16 at Mon Apr 21 20:16:25 2025.
