 Gaussian 16, Revision A.03,
 Gaussian 16:  ES64L-G16RevA.03 25-Dec-2016

 ---------------------------------------------------
 #p UM062X/6-311+G** force int=superfine pop=saveNBO
 ---------------------------------------------------

 -------------------
 Title Card Required
 -------------------
 Symbolic Z-matrix:
 Charge =  0 Multiplicity = 1

                         Standard orientation:
 ---------------------------------------------------------------------
 Center     Atomic      Atomic             Coordinates (Angstroms)
 Number     Number       Type             X           Y           Z
 ---------------------------------------------------------------------
      1          8           0        0.000000    0.000000   -1.060091
      2         16           0        0.000000    0.000000    0.530045
 ---------------------------------------------------------------------

 SCF Done:  E(UM062X) =  -473.285579279     A.U. after   11 cycles

 Unable to determine electronic state:  an orbital has unidentified symmetry.
 Alpha  occ. eigenvalues --  -90.00682 -19.71382  -8.36589  -6.28762  -6.28596
 Alpha  occ. eigenvalues --   -6.27753  -1.16380  -0.76479  -0.51023  -0.49323
 Alpha  occ. eigenvalues --   -0.47267  -0.30540
 Alpha virt. eigenvalues --   -0.15106   0.00484   0.02219   0.04502   0.05281
 Alpha virt. eigenvalues --    0.09657   0.19294   0.21073   0.21566   0.27338
 Alpha virt. eigenvalues --    0.32771   0.33718   0.36505   0.67337   0.74969

  Beta  occ. eigenvalues --  -90.00682 -19.71382  -8.36589  -6.28762  -6.28596
  Beta  occ. eigenvalues --   -6.27753  -1.16380  -0.76479  -0.51023  -0.49323
  Beta  occ. eigenvalues --   -0.47267  -0.30540
  Beta virt. eigenvalues --   -0.15106   0.00484   0.02219   0.04502   0.05281
  Beta virt. eigenvalues --    0.09657   0.19294   0.21073   0.21566   0.27338
  Beta virt. eigenvalues --    0.32771   0.33718   0.36505   0.67337   0.74969

 Mulliken charges and spin densities:
               1          2
     1  O   -0.236645  -0.000000
     2  S    0.236645   0.000000
 Sum of Mulliken charges =  -0.00000   0.00000

 Dipole moment (field-independent basis, Debye):
    X=              0.0000    Y=              0.0000    Z=              2.0468  Tot=              2.0468
 Quadrupole moment (field-independent basis, Debye-Ang):
   XX=            -20.0366   YY=            -15.9960   ZZ=            -18.9141
   XY=              0.0000   XZ=              0.0000   YZ=              0.0000

 Summary of Natural Population Analysis:

                                       Natural Population
                Natural  -----------------------------------------------
    Atom  No    Charge         Core      Valence    Rydberg      Total
 -----------------------------------------------------------------------
      O    1   -0.28339      0.99997     3.27800    0.00542     4.28339
      S    2    0.28339      4.99982     2.68201    0.03479     7.71661
 =======================================================================
   * Total *   -0.00000      5.99979     5.96001    0.04021    12.00000

 Normal termination of Gaussian 16 at Mon Apr 21 19:54:52 2025.
