 Gaussian 16, Revision A.03,
 Gaussian 16:  ES64L-G16RevA.03 25-Dec-2016

 --------------------------------------------
 #p opt UM062X/6-311+G** nosymm int=superfine
 --------------------------------------------

 -------------------
 Title Card Required
 -------------------
 Symbolic Z-matrix:
 Charge =  1 Multiplicity = 2

 SCF Done:  E(UM062X) =  -78.0079233729     A.U. after    9 cycles
 SCF Done:  E(UM062X) =  -78.0431926436     A.U. after    9 cycles
 SCF Done:  E(UM062X) =  -78.0703983456     A.U. after    9 cycles
 SCF Done:  E(UM062X) =  -78.0731420164     A.U. after    9 cycles
 SCF Done:  E(UM062X) =  -78.0732571239     A.U. after    8 cycles
 Optimization completed.
    -- Stationary point found.

                          Input orientation:
 ---------------------------------------------------------------------
 Center     Atomic      Atomic             Coordinates (Angstroms)
 Number     Number       Type             X           Y           Z
 ---------------------------------------------------------------------
      1          6           0       -0.989649    0.000000    0.000000
      2          6           0        0.989649    0.000000    0.000000
      3          1           0       -1.456544   -0.978630    0.000000
      4          1           0       -1.456599    0.978527    0.000000
      5          1           0        1.456544    0.978630   -0.000000
      6          1           0        1.456599   -0.978526   -0.000000
 ---------------------------------------------------------------------

 Alpha  occ. eigenvalues --  -10.92108 -10.92092  -1.07359  -0.99949  -0.80916
 Alpha  occ. eigenvalues --   -0.77294  -0.68175  -0.56918
 Alpha virt. eigenvalues --   -0.36118  -0.22867  -0.14184  -0.11075  -0.09941
 Alpha virt. eigenvalues --   -0.08472  -0.07438  -0.07227  -0.04750  -0.04212
 Alpha virt. eigenvalues --   -0.02538  -0.00700   0.02205   0.09432   0.18029

  Beta  occ. eigenvalues --  -10.91875 -10.91864  -1.04225  -0.97740  -0.80350
  Beta  occ. eigenvalues --   -0.76942  -0.66681
  Beta virt. eigenvalues --   -0.35843  -0.27518  -0.20450  -0.15557  -0.11423
  Beta virt. eigenvalues --   -0.09917  -0.08003  -0.07685  -0.07369  -0.04258
  Beta virt. eigenvalues --   -0.03942  -0.02090  -0.00109   0.01435   0.10124

 Mulliken charges and spin densities:
               1          2
     1  C   -0.066568   0.541018
     2  C   -0.066568   0.541018
     3  H    0.283287  -0.020510
     4  H    0.283281  -0.020508
     5  H    0.283287  -0.020510
     6  H    0.283281  -0.020508
 Sum of Mulliken charges =   1.00000   1.00000

 Dipole moment (field-independent basis, Debye):
    X=             -0.0000    Y=              0.0000    Z=              0.0000  Tot=              0.0000
 Quadrupole moment (field-independent basis, Debye-Ang):
   XX=             -2.3717   YY=             -8.1715   ZZ=            -12.4482
   XY=              0.0001   XZ=             -0.0000   YZ=             -0.0000

 Normal termination of Gaussian 16 at Tue Nov 19 11:19:25 2024.
