 Gaussian 16, Revision A.03,
 Gaussian 16:  ES64L-G16RevA.03 25-Dec-2016

 --------------------------------------------
 #p opt UM062X/6-311+G** nosymm int=superfine
 --------------------------------------------

 -------------------
 Title Card Required
 -------------------
 Symbolic Z-matrix:
 Charge =  0 Multiplicity = 1

 SCF Done:  E(UM062X) =  -685.056703893     A.U. after   10 cycles
 SCF Done:  E(UM062X) =  -685.056748161     A.U. after    8 cycles
 SCF Done:  E(UM062X) =  -685.056751397     A.U. after    7 cycles
 Optimization completed.
    -- Stationary point found.

                          Input orientation:
 ---------------------------------------------------------------------
 Center     Atomic      Atomic             Coordinates (Angstroms)
 Number     Number       Type             X           Y           Z
 ---------------------------------------------------------------------
      1         15           0       -1.142217    0.000000    0.000000
      2         15           0        1.142217    0.000000    0.000000
      3          1           0        1.245435   -1.410737   -0.000240
      4          1           0       -1.245345    1.399501   -0.177713
      5          1           0        1.359500    0.109308   -1.394419
      6          1           0       -1.359526   -0.283793   -1.369597
 ---------------------------------------------------------------------

 Alpha  occ. eigenvalues --  -78.02790 -78.02790  -6.85430  -6.85425  -4.96996
 Alpha  occ. eigenvalues --   -4.96977  -4.96951  -4.96950  -4.96731  -4.96727
 Alpha  occ. eigenvalues --   -0.76504  -0.66969  -0.46212  -0.45911  -0.40350
 Alpha  occ. eigenvalues --   -0.33189  -0.31026
 Alpha virt. eigenvalues --   -0.00187   0.00791   0.03499   0.03827   0.03952
 Alpha virt. eigenvalues --    0.04913   0.05033   0.06542   0.06580   0.08229
 Alpha virt. eigenvalues --    0.10535   0.14959   0.19210   0.27720   0.29449

  Beta  occ. eigenvalues --  -78.02790 -78.02790  -6.85430  -6.85425  -4.96996
  Beta  occ. eigenvalues --   -4.96977  -4.96951  -4.96950  -4.96731  -4.96727
  Beta  occ. eigenvalues --   -0.76504  -0.66969  -0.46212  -0.45911  -0.40350
  Beta  occ. eigenvalues --   -0.33189  -0.31026
  Beta virt. eigenvalues --   -0.00187   0.00791   0.03499   0.03827   0.03952
  Beta virt. eigenvalues --    0.04913   0.05033   0.06542   0.06580   0.08229
  Beta virt. eigenvalues --    0.10535   0.14959   0.19210   0.27720   0.29449

 Mulliken charges and spin densities:
               1          2
     1  P   -0.051419   0.000000
     2  P   -0.051417  -0.000000
     3  H    0.025501   0.000000
     4  H    0.025495  -0.000000
     5  H    0.025917   0.000000
     6  H    0.025922  -0.000000
 Sum of Mulliken charges =  -0.00000   0.00000

 Dipole moment (field-independent basis, Debye):
    X=              0.0000    Y=             -0.0849    Z=             -1.3441  Tot=              1.3468
 Quadrupole moment (field-independent basis, Debye-Ang):
   XX=            -31.1916   YY=            -28.6930   ZZ=            -29.6299
   XY=             -2.1304   XZ=              0.1346   YZ=             -0.0595

 Normal termination of Gaussian 16 at Mon Apr 21 20:44:18 2025.
