 Gaussian 16, Revision A.03,
 Gaussian 16:  ES64L-G16RevA.03 25-Dec-2016

 --------------------------------------------
 #p opt UM062X/6-311+G** nosymm int=superfine
 --------------------------------------------

 -------------------
 Title Card Required
 -------------------
 Symbolic Z-matrix:
 Charge =  1 Multiplicity = 2

 SCF Done:  E(UM062X) =  -77.8070184698     A.U. after   11 cycles
 SCF Done:  E(UM062X) =  -77.8578862877     A.U. after   10 cycles
 SCF Done:  E(UM062X) =  -77.8981509546     A.U. after   10 cycles
 SCF Done:  E(UM062X) =  -77.9090960889     A.U. after    9 cycles
 SCF Done:  E(UM062X) =  -77.9128838484     A.U. after    9 cycles
 SCF Done:  E(UM062X) =  -77.9129169722     A.U. after    8 cycles
 SCF Done:  E(UM062X) =  -77.9129186581     A.U. after    7 cycles
 Optimization completed.
    -- Stationary point found.

                          Input orientation:
 ---------------------------------------------------------------------
 Center     Atomic      Atomic             Coordinates (Angstroms)
 Number     Number       Type             X           Y           Z
 ---------------------------------------------------------------------
      1          6           0       -0.494824    0.000000    0.000000
      2          6           0        0.494824    0.000000    0.000000
      3          1           0       -1.274193   -0.823027   -0.000000
      4          1           0       -1.266936    0.831992   -0.000000
      5          1           0        1.274193    0.823027    0.000000
      6          1           0        1.266936   -0.831992    0.000000
 ---------------------------------------------------------------------

 Alpha  occ. eigenvalues --  -10.81334 -10.79883  -1.24465  -0.96880  -0.87601
 Alpha  occ. eigenvalues --   -0.87160  -0.71782  -0.65248
 Alpha virt. eigenvalues --   -0.17120  -0.16134  -0.15199  -0.13769  -0.10667
 Alpha virt. eigenvalues --   -0.08854  -0.07469  -0.06668  -0.02591  -0.02255
 Alpha virt. eigenvalues --   -0.00079   0.02663   0.13710   0.17840   0.19224

  Beta  occ. eigenvalues --  -10.81356 -10.79885  -1.23486  -0.92099  -0.84567
  Beta  occ. eigenvalues --   -0.82234  -0.71507
  Beta virt. eigenvalues --   -0.44471  -0.15931  -0.15877  -0.15072  -0.13502
  Beta virt. eigenvalues --   -0.10467  -0.08740  -0.05076  -0.04634  -0.02343
  Beta virt. eigenvalues --   -0.01406   0.00373   0.03453   0.13722   0.17645

 Mulliken charges and spin densities:
               1          2
     1  C   -0.152164   0.106576
     2  C   -0.152164   0.106576
     3  H    0.325977   0.194924
     4  H    0.326187   0.198499
     5  H    0.325977   0.194924
     6  H    0.326187   0.198499
 Sum of Mulliken charges =   1.00000   1.00000

 Dipole moment (field-independent basis, Debye):
    X=              0.0000    Y=             -0.0000    Z=             -0.0000  Tot=              0.0000
 Quadrupole moment (field-independent basis, Debye-Ang):
   XX=             -2.5055   YY=             -7.4612   ZZ=            -12.4040
   XY=             -0.0220   XZ=              0.0000   YZ=             -0.0000

 Normal termination of Gaussian 16 at Tue Nov 19 10:45:06 2024.
