 Gaussian 16, Revision A.03,
 Gaussian 16:  ES64L-G16RevA.03 25-Dec-2016

 --------------------------------------------
 #p opt UM062X/6-311+G** nosymm int=superfine
 --------------------------------------------

 -------------------
 Title Card Required
 -------------------
 Symbolic Z-matrix:
 Charge =  1 Multiplicity = 2

 SCF Done:  E(UM062X) =  -580.863917614     A.U. after   14 cycles
 SCF Done:  E(UM062X) =  -580.871235468     A.U. after    9 cycles
 SCF Done:  E(UM062X) =  -580.873296201     A.U. after   12 cycles
 SCF Done:  E(UM062X) =  -580.873298908     A.U. after    6 cycles
 Optimization completed.
    -- Stationary point found.

                          Input orientation:
 ---------------------------------------------------------------------
 Center     Atomic      Atomic             Coordinates (Angstroms)
 Number     Number       Type             X           Y           Z
 ---------------------------------------------------------------------
      1         14           0       -2.316295    0.000000    0.000000
      2         14           0        2.316295    0.000000    0.000000
      3          1           0       -3.214006   -1.190539    0.000048
      4          1           0        3.214006    1.190538    0.001078
      5          1           0       -3.214021    1.190527   -0.000043
      6          1           0        3.214021   -1.190527   -0.001073
 ---------------------------------------------------------------------

 Alpha  occ. eigenvalues --  -67.24008 -67.24008  -5.78497  -5.78497  -4.09768
 Alpha  occ. eigenvalues --   -4.09768  -4.09447  -4.09447  -4.09104  -4.09104
 Alpha  occ. eigenvalues --   -0.78020  -0.77926  -0.59821  -0.59797  -0.49242
 Alpha  occ. eigenvalues --   -0.47425
 Alpha virt. eigenvalues --   -0.26883  -0.26365  -0.12344  -0.11997  -0.09239
 Alpha virt. eigenvalues --   -0.08332  -0.07848  -0.07052  -0.06709  -0.05930
 Alpha virt. eigenvalues --   -0.05727  -0.05695  -0.05430  -0.03448   0.12868

  Beta  occ. eigenvalues --  -67.23670 -67.23670  -5.78241  -5.78241  -4.09664
  Beta  occ. eigenvalues --   -4.09664  -4.08993  -4.08993  -4.08668  -4.08667
  Beta  occ. eigenvalues --   -0.76203  -0.75962  -0.58645  -0.58610  -0.42733
  Beta virt. eigenvalues --   -0.33039  -0.25699  -0.25040  -0.11391  -0.11202
  Beta virt. eigenvalues --   -0.09287  -0.07299  -0.06704  -0.06689  -0.06313
  Beta virt. eigenvalues --   -0.05897  -0.05468  -0.05255  -0.04919  -0.03009

 Mulliken charges and spin densities:
               1          2
     1  Si   0.561606   0.388543
     2  Si   0.561606   0.388543
     3  H   -0.030803   0.055728
     4  H   -0.030803   0.055728
     5  H   -0.030803   0.055728
     6  H   -0.030803   0.055728
 Sum of Mulliken charges =   1.00000   1.00000

 Dipole moment (field-independent basis, Debye):
    X=              0.0000    Y=              0.0000    Z=              0.0000  Tot=              0.0000
 Quadrupole moment (field-independent basis, Debye-Ang):
   XX=              5.6203   YY=            -25.8914   ZZ=            -20.8809
   XY=             -0.0000   XZ=              0.0000   YZ=             -0.0022

 Normal termination of Gaussian 16 at Mon Apr 21 20:28:00 2025.
