 Gaussian 16, Revision A.03,
 Gaussian 16:  ES64L-G16RevA.03 25-Dec-2016

 ---------------------------------------
 #p UM062X/6-311+G** force int=superfine
 ---------------------------------------

 -------------------
 Title Card Required
 -------------------
 Symbolic Z-matrix:
 Charge =  1 Multiplicity = 2

                         Standard orientation:
 ---------------------------------------------------------------------
 Center     Atomic      Atomic             Coordinates (Angstroms)
 Number     Number       Type             X           Y           Z
 ---------------------------------------------------------------------
      1          7           0        0.000000    0.000000    0.605391
      2          7           0        0.000000    0.000000   -0.605391
 ---------------------------------------------------------------------

 SCF Done:  E(UM062X) =  -108.903298820     A.U. after   10 cycles

 The electronic state is 2-SGG.
 Alpha  occ. eigenvalues --  -15.37156 -15.37027  -1.61792  -1.12572  -0.96955
 Alpha  occ. eigenvalues --   -0.91769  -0.91769
 Alpha virt. eigenvalues --   -0.42581  -0.42581  -0.15077  -0.11199  -0.10627
 Alpha virt. eigenvalues --   -0.10627  -0.05417  -0.02544  -0.02544   0.05102
 Alpha virt. eigenvalues --    0.09229   0.42439   0.45140   0.45140   0.51206

  Beta  occ. eigenvalues --  -15.36344 -15.36262  -1.58706  -1.01911  -0.89497
  Beta  occ. eigenvalues --   -0.89497
  Beta virt. eigenvalues --   -0.66877  -0.40019  -0.40019  -0.14700  -0.11914
  Beta virt. eigenvalues --   -0.10444  -0.10444  -0.05759  -0.02495  -0.02495
  Beta virt. eigenvalues --    0.06631   0.11938   0.43143   0.45500   0.45500

 Mulliken charges and spin densities:
               1          2
     1  N    0.500000   0.500000
     2  N    0.500000   0.500000
 Sum of Mulliken charges =   1.00000   1.00000

 Dipole moment (field-independent basis, Debye):
    X=              0.0000    Y=              0.0000    Z=             -0.0000  Tot=              0.0000
 Quadrupole moment (field-independent basis, Debye-Ang):
   XX=             -8.6607   YY=             -8.6607   ZZ=             -5.5882
   XY=              0.0000   XZ=             -0.0000   YZ=              0.0000

 Optimization completed.
    -- Stationary point found.
 Normal termination of Gaussian 16 at Wed Feb 26 13:43:41 2025.
