 Gaussian 16, Revision A.03,
 Gaussian 16:  ES64L-G16RevA.03 25-Dec-2016

 --------------------------------------------
 #p opt UM062X/6-311+G** nosymm int=superfine
 --------------------------------------------

 -------------------
 Title Card Required
 -------------------
 Symbolic Z-matrix:
 Charge =  0 Multiplicity = 1

 SCF Done:  E(UM062X) =  -581.127296764     A.U. after   10 cycles
 SCF Done:  E(UM062X) =  -581.148415427     A.U. after    9 cycles
 SCF Done:  E(UM062X) =  -581.162774476     A.U. after   10 cycles
 SCF Done:  E(UM062X) =  -581.162793681     A.U. after    9 cycles
 SCF Done:  E(UM062X) =  -581.162796940     A.U. after    8 cycles
 SCF Done:  E(UM062X) =  -581.163979594     A.U. after   10 cycles
 SCF Done:  E(UM062X) =  -581.169093063     A.U. after   11 cycles
 SCF Done:  E(UM062X) =  -581.166216059     A.U. after   12 cycles
 SCF Done:  E(UM062X) =  -581.172063987     A.U. after   10 cycles
 SCF Done:  E(UM062X) =  -581.175105608     A.U. after   12 cycles
 SCF Done:  E(UM062X) =  -581.191567127     A.U. after   11 cycles
 SCF Done:  E(UM062X) =  -581.192038770     A.U. after   10 cycles
 SCF Done:  E(UM062X) =  -581.192269862     A.U. after   10 cycles
 SCF Done:  E(UM062X) =  -581.192314826     A.U. after   10 cycles
 SCF Done:  E(UM062X) =  -581.192319938     A.U. after    9 cycles
 SCF Done:  E(UM062X) =  -581.192320683     A.U. after    8 cycles
 SCF Done:  E(UM062X) =  -581.192320818     A.U. after    8 cycles
 SCF Done:  E(UM062X) =  -581.192320849     A.U. after    7 cycles
 SCF Done:  E(UM062X) =  -581.192320857     A.U. after    6 cycles
 SCF Done:  E(UM062X) =  -581.192320866     A.U. after    7 cycles
 Optimization completed.
    -- Stationary point found.

                          Input orientation:
 ---------------------------------------------------------------------
 Center     Atomic      Atomic             Coordinates (Angstroms)
 Number     Number       Type             X           Y           Z
 ---------------------------------------------------------------------
      1         14           0       -1.737518    0.000000    0.000000
      2         14           0        1.737518    0.000000    0.000000
      3          1           0       -1.533004   -1.095304    1.031748
      4          1           0        2.750444    1.113527   -0.041501
      5          1           0       -1.532407    1.096092    1.030803
      6          1           0        2.751613   -1.112567   -0.038596
 ---------------------------------------------------------------------

 Alpha  occ. eigenvalues --  -67.04460 -66.99875  -5.59127  -5.54543  -3.90433
 Alpha  occ. eigenvalues --   -3.89858  -3.89729  -3.85771  -3.85277  -3.85146
 Alpha  occ. eigenvalues --   -0.60027  -0.55805  -0.41046  -0.36760  -0.31029
 Alpha  occ. eigenvalues --   -0.26800
 Alpha virt. eigenvalues --   -0.09898  -0.05154   0.01617   0.02743   0.03752
 Alpha virt. eigenvalues --    0.04437   0.05117   0.05867   0.06139   0.06417
 Alpha virt. eigenvalues --    0.08586   0.09333   0.11227   0.17520   0.27267

  Beta  occ. eigenvalues --  -67.04460 -66.99875  -5.59127  -5.54543  -3.90433
  Beta  occ. eigenvalues --   -3.89858  -3.89729  -3.85771  -3.85277  -3.85146
  Beta  occ. eigenvalues --   -0.60027  -0.55805  -0.41046  -0.36760  -0.31029
  Beta  occ. eigenvalues --   -0.26800
  Beta virt. eigenvalues --   -0.09898  -0.05154   0.01617   0.02743   0.03752
  Beta virt. eigenvalues --    0.04437   0.05117   0.05867   0.06139   0.06417
  Beta virt. eigenvalues --    0.08586   0.09333   0.11227   0.17520   0.27267

 Mulliken charges and spin densities:
               1          2
     1  Si   0.250512   0.000000
     2  Si   0.306007  -0.000000
     3  H   -0.156371   0.000000
     4  H   -0.121881  -0.000000
     5  H   -0.156409   0.000000
     6  H   -0.121858   0.000000
 Sum of Mulliken charges =   0.00000   0.00000

 Dipole moment (field-independent basis, Debye):
    X=              1.9436    Y=              0.0001    Z=              0.2139  Tot=              1.9554
 Quadrupole moment (field-independent basis, Debye-Ang):
   XX=            -28.8912   YY=            -32.2899   ZZ=            -30.5969
   XY=             -0.0019   XZ=             -1.4821   YZ=              0.0043

 Normal termination of Gaussian 16 at Mon Apr 21 20:36:13 2025.
