 Gaussian 16, Revision A.03,
 Gaussian 16:  ES64L-G16RevA.03 25-Dec-2016

 ---------------------------------------
 #p UM062X/6-311+G** force int=superfine
 ---------------------------------------

 -------------------
 Title Card Required
 -------------------
 Symbolic Z-matrix:
 Charge =  0 Multiplicity = 1

                         Standard orientation:
 ---------------------------------------------------------------------
 Center     Atomic      Atomic             Coordinates (Angstroms)
 Number     Number       Type             X           Y           Z
 ---------------------------------------------------------------------
      1          6           0        0.939033    0.000355    0.018293
      2          6           0       -0.939033   -0.000356   -0.018293
      3          1           0       -1.275181   -0.520629    0.874201
      4          1           0        1.240147    0.518860    0.924224
      5          1           0       -1.240148   -0.518860   -0.924224
      6          1           0       -1.258300    1.038041   -0.023492
      7          1           0        1.275180    0.520629   -0.874201
      8          1           0        1.258301   -1.038040    0.023492
 ---------------------------------------------------------------------

 SCF Done:  E(UM062X) =  -79.7625100790     A.U. after    8 cycles

 The electronic state is 1-A.
 Alpha  occ. eigenvalues --  -10.53995 -10.53982  -0.80155  -0.71894  -0.48674
 Alpha  occ. eigenvalues --   -0.48674  -0.43383  -0.43383  -0.35628
 Alpha virt. eigenvalues --    0.02278   0.03375   0.05638   0.05638   0.08574
 Alpha virt. eigenvalues --    0.08574   0.09313   0.13134   0.15782   0.18297
 Alpha virt. eigenvalues --    0.18297   0.21879   0.21879   0.24256   0.27324

  Beta  occ. eigenvalues --  -10.53995 -10.53982  -0.80155  -0.71894  -0.48674
  Beta  occ. eigenvalues --   -0.48674  -0.43383  -0.43383  -0.35628
  Beta virt. eigenvalues --    0.02278   0.03375   0.05638   0.05638   0.08574
  Beta virt. eigenvalues --    0.08574   0.09313   0.13134   0.15782   0.18297
  Beta virt. eigenvalues --    0.18297   0.21879   0.21879   0.24256   0.27324

 Mulliken charges and spin densities:
               1          2
     1  C   -0.492017   0.000000
     2  C   -0.492017  -0.000000
     3  H    0.164006   0.000000
     4  H    0.164006  -0.000000
     5  H    0.164006   0.000000
     6  H    0.164005   0.000000
     7  H    0.164006  -0.000000
     8  H    0.164005  -0.000000
 Sum of Mulliken charges =  -0.00000  -0.00000

 Dipole moment (field-independent basis, Debye):
    X=              0.0000    Y=              0.0000    Z=             -0.0000  Tot=              0.0000
 Quadrupole moment (field-independent basis, Debye-Ang):
   XX=            -15.6030   YY=            -14.9130   ZZ=            -14.9133
   XY=             -0.0003   XZ=             -0.0134   YZ=             -0.0000

 Normal termination of Gaussian 16 at Tue Nov 19 12:48:42 2024.
