 Gaussian 16, Revision A.03,
 Gaussian 16:  ES64L-G16RevA.03 25-Dec-2016

 --------------------------------------------
 #p opt UM062X/6-311+G** nosymm int=superfine
 --------------------------------------------

 -------------------
 Title Card Required
 -------------------
 Symbolic Z-matrix:
 Charge =  0 Multiplicity = 1

 SCF Done:  E(UM062X) =  -684.919420621     A.U. after   11 cycles

 Alpha  occ. eigenvalues --  -78.05040 -78.05038  -6.87437  -6.87436  -4.98986
 Alpha  occ. eigenvalues --   -4.98984  -4.98861  -4.98859  -4.98678  -4.98677
 Alpha  occ. eigenvalues --   -0.71211  -0.70879  -0.45125  -0.44995  -0.36278
 Alpha  occ. eigenvalues --   -0.36143  -0.24416
 Alpha virt. eigenvalues --   -0.15083   0.01596   0.02858   0.03207   0.04021
 Alpha virt. eigenvalues --    0.04839   0.05922   0.06083   0.06135   0.06170
 Alpha virt. eigenvalues --    0.07941   0.13395   0.18437   0.28738   0.29428

  Beta  occ. eigenvalues --  -78.05040 -78.05038  -6.87437  -6.87436  -4.98986
  Beta  occ. eigenvalues --   -4.98984  -4.98861  -4.98859  -4.98678  -4.98677
  Beta  occ. eigenvalues --   -0.71211  -0.70879  -0.45125  -0.44995  -0.36278
  Beta  occ. eigenvalues --   -0.36143  -0.24416
  Beta virt. eigenvalues --   -0.15083   0.01596   0.02858   0.03207   0.04021
  Beta virt. eigenvalues --    0.04839   0.05922   0.06083   0.06135   0.06170
  Beta virt. eigenvalues --    0.07941   0.13395   0.18437   0.28738   0.29428

 Mulliken charges and spin densities:
               1          2
     1  P   -0.000817  -0.000000
     2  P   -0.000771   0.000000
     3  H    0.000952  -0.000000
     4  H    0.000936  -0.000000
     5  H   -0.000157  -0.000000
     6  H   -0.000144  -0.000000
 Sum of Mulliken charges =  -0.00000  -0.00000

 Dipole moment (field-independent basis, Debye):
    X=             -0.0002    Y=             -0.0049    Z=             -0.1627  Tot=              0.1628
 Quadrupole moment (field-independent basis, Debye-Ang):
   XX=            -28.7109   YY=            -31.2406   ZZ=            -28.5585
   XY=             -4.4292   XZ=              0.1337   YZ=              0.0813

 Optimization completed.
    -- Stationary point found.

                          Input orientation:
 ---------------------------------------------------------------------
 Center     Atomic      Atomic             Coordinates (Angstroms)
 Number     Number       Type             X           Y           Z
 ---------------------------------------------------------------------
      1         15           0       -2.217217    0.000000    0.000000
      2         15           0        2.217217    0.000000    0.000000
      3          1           0        2.111705   -1.041740    0.957408
      4          1           0       -2.113254    1.097993    0.892512
      5          1           0        2.118441   -0.917449   -1.077989
      6          1           0       -2.117799    0.850258   -1.131332
 ---------------------------------------------------------------------

 Normal termination of Gaussian 16 at Mon Apr 21 22:56:23 2025.
