 Gaussian 16, Revision A.03,
 Gaussian 16:  ES64L-G16RevA.03 25-Dec-2016

 ---------------------------------------
 #p UM062X/6-311+G** force int=superfine
 ---------------------------------------

 -------------------
 Title Card Required
 -------------------
 Symbolic Z-matrix:
 Charge =  0 Multiplicity = 1

                         Standard orientation:
 ---------------------------------------------------------------------
 Center     Atomic      Atomic             Coordinates (Angstroms)
 Number     Number       Type             X           Y           Z
 ---------------------------------------------------------------------
      1          6           0        0.603233    0.000004   -0.000003
      2          6           0       -0.603233   -0.000004    0.000002
      3          1           0       -1.075214   -0.967977    0.233669
      4          1           0        1.075227   -0.281621    0.955122
      5          1           0       -1.075227    0.281623   -0.955120
      6          1           0       -1.075228    0.686356    0.721446
      7          1           0        1.075214    0.967978   -0.233667
      8          1           0        1.075229   -0.686357   -0.721445
 ---------------------------------------------------------------------

 SCF Done:  E(UM062X) =  -79.7044353217     A.U. after    8 cycles

 The electronic state is 1-A.
 Alpha  occ. eigenvalues --  -10.50184 -10.49936  -0.92836  -0.68135  -0.53802
 Alpha  occ. eigenvalues --   -0.53802  -0.50029  -0.36033  -0.36032
 Alpha virt. eigenvalues --    0.02085   0.04199   0.04924   0.04924   0.08664
 Alpha virt. eigenvalues --    0.08947   0.08948   0.14230   0.19382   0.19382
 Alpha virt. eigenvalues --    0.19685   0.19686   0.24041   0.27929   0.37967

  Beta  occ. eigenvalues --  -10.50184 -10.49936  -0.92836  -0.68135  -0.53802
  Beta  occ. eigenvalues --   -0.53802  -0.50029  -0.36033  -0.36032
  Beta virt. eigenvalues --    0.02085   0.04199   0.04924   0.04924   0.08664
  Beta virt. eigenvalues --    0.08947   0.08948   0.14230   0.19382   0.19382
  Beta virt. eigenvalues --    0.19685   0.19686   0.24041   0.27929   0.37967

 Mulliken charges and spin densities:
               1          2
     1  C   -0.434244   0.000000
     2  C   -0.434243  -0.000000
     3  H    0.144748   0.000000
     4  H    0.144748  -0.000000
     5  H    0.144748   0.000000
     6  H    0.144748   0.000000
     7  H    0.144748  -0.000000
     8  H    0.144748  -0.000000
 Sum of Mulliken charges =  -0.00000   0.00000

 Dipole moment (field-independent basis, Debye):
    X=             -0.0000    Y=              0.0000    Z=              0.0000  Tot=              0.0000
 Quadrupole moment (field-independent basis, Debye-Ang):
   XX=            -15.6409   YY=            -14.9506   ZZ=            -14.9507
   XY=             -0.0000   XZ=              0.0000   YZ=             -0.0000

 Normal termination of Gaussian 16 at Tue Nov 19 12:38:46 2024.
