 Gaussian 16, Revision A.03,
 Gaussian 16:  ES64L-G16RevA.03 25-Dec-2016

 --------------------------------------------
 #p opt UM062X/6-311+G** nosymm int=superfine
 --------------------------------------------

 -------------------
 Title Card Required
 -------------------
 Symbolic Z-matrix:
 Charge =  0 Multiplicity = 1

 SCF Done:  E(UM062X) =  -582.457056449     A.U. after    9 cycles
 SCF Done:  E(UM062X) =  -582.458139281     A.U. after    8 cycles
 SCF Done:  E(UM062X) =  -582.458308098     A.U. after    8 cycles
 Optimization completed.
    -- Stationary point found.

                          Input orientation:
 ---------------------------------------------------------------------
 Center     Atomic      Atomic             Coordinates (Angstroms)
 Number     Number       Type             X           Y           Z
 ---------------------------------------------------------------------
      1         14           0       -1.644819    0.000000    0.000000
      2         14           0        1.644819    0.000000    0.000000
      3          1           0        2.092459   -1.407292   -0.000056
      4          1           0       -2.092505   -0.703499    1.218831
      5          1           0        2.092597    0.703670   -1.218698
      6          1           0        2.092511    0.703551    1.218799
      7          1           0       -2.092461    1.407291   -0.000116
      8          1           0       -2.092600   -0.703723   -1.218666
 ---------------------------------------------------------------------

 Alpha  occ. eigenvalues --  -67.01058 -67.01058  -5.55891  -5.55891  -3.87090
 Alpha  occ. eigenvalues --   -3.87088  -3.86941  -3.86941  -3.86941  -3.86941
 Alpha  occ. eigenvalues --   -0.61257  -0.59724  -0.41610  -0.41610  -0.41057
 Alpha  occ. eigenvalues --   -0.41057  -0.26817
 Alpha virt. eigenvalues --   -0.04632   0.02145   0.02939   0.02939   0.03945
 Alpha virt. eigenvalues --    0.04884   0.05479   0.05479   0.06821   0.06821
 Alpha virt. eigenvalues --    0.07773   0.09143   0.09144   0.14676   0.17149

  Beta  occ. eigenvalues --  -67.01058 -67.01058  -5.55891  -5.55891  -3.87090
  Beta  occ. eigenvalues --   -3.87088  -3.86941  -3.86941  -3.86941  -3.86941
  Beta  occ. eigenvalues --   -0.61257  -0.59724  -0.41610  -0.41610  -0.41057
  Beta  occ. eigenvalues --   -0.41057  -0.26817
  Beta virt. eigenvalues --   -0.04632   0.02145   0.02939   0.02939   0.03945
  Beta virt. eigenvalues --    0.04884   0.05479   0.05479   0.06821   0.06821
  Beta virt. eigenvalues --    0.07773   0.09143   0.09144   0.14676   0.17149

 Mulliken charges and spin densities:
               1          2
     1  Si   0.288761   0.000000
     2  Si   0.288761  -0.000000
     3  H   -0.096255   0.000000
     4  H   -0.096253   0.000000
     5  H   -0.096253   0.000000
     6  H   -0.096253   0.000000
     7  H   -0.096255  -0.000000
     8  H   -0.096253  -0.000000
 Sum of Mulliken charges =  -0.00000   0.00000

 Dipole moment (field-independent basis, Debye):
    X=              0.0000    Y=              0.0000    Z=             -0.0000  Tot=              0.0000
 Quadrupole moment (field-independent basis, Debye-Ang):
   XX=            -30.3950   YY=            -31.7908   ZZ=            -31.7907
   XY=              0.0003   XZ=              0.0000   YZ=              0.0000

 Normal termination of Gaussian 16 at Mon Apr 21 20:18:55 2025.
