 Gaussian 16, Revision A.03,
 Gaussian 16:  ES64L-G16RevA.03 25-Dec-2016

 --------------------------------------------
 #p opt UM062X/6-311+G** nosymm int=superfine
 --------------------------------------------

 -------------------
 Title Card Required
 -------------------
 Symbolic Z-matrix:
 Charge = -1 Multiplicity = 2

 SCF Done:  E(UM062X) =  -50.5609253713     A.U. after   20 cycles
 SCF Done:  E(UM062X) =  -50.5645633961     A.U. after   15 cycles
 SCF Done:  E(UM062X) =  -50.5647716597     A.U. after   15 cycles
 Optimization completed.
    -- Stationary point found.

                          Input orientation:
 ---------------------------------------------------------------------
 Center     Atomic      Atomic             Coordinates (Angstroms)
 Number     Number       Type             X           Y           Z
 ---------------------------------------------------------------------
      1          5           0       -2.191404    0.000000    0.000000
      2          5           0        2.191404    0.000000    0.000000
      3          1           0       -3.451298   -0.000955    0.000000
      4          1           0        3.451298    0.000955   -0.000000
 ---------------------------------------------------------------------

 Alpha  occ. eigenvalues --   -6.91746  -6.91746  -0.35415  -0.35323  -0.09763
 Alpha  occ. eigenvalues --   -0.07943   0.02637
 Alpha virt. eigenvalues --    0.09383   0.12148   0.13012   0.15301   0.15974
 Alpha virt. eigenvalues --    0.21194   0.21504   0.21646   0.22381   0.22922
 Alpha virt. eigenvalues --    0.25246   0.31718   0.36613   0.49836   0.55303

  Beta  occ. eigenvalues --   -6.91652  -6.91652  -0.34332  -0.34300  -0.08668
  Beta  occ. eigenvalues --   -0.06898
  Beta virt. eigenvalues --    0.10582   0.11328   0.11922   0.12262   0.13367
  Beta virt. eigenvalues --    0.13557   0.19185   0.20011   0.20217   0.21072
  Beta virt. eigenvalues --    0.21484   0.21609   0.31512   0.36671   0.49418

 Mulliken charges and spin densities:
               1          2
     1  B   -0.411069   0.513066
     2  B   -0.411069   0.513066
     3  H   -0.088931  -0.013066
     4  H   -0.088931  -0.013066
 Sum of Mulliken charges =  -1.00000   1.00000

 Dipole moment (field-independent basis, Debye):
    X=              0.0000    Y=             -0.0000    Z=             -0.0000  Tot=              0.0000
 Quadrupole moment (field-independent basis, Debye-Ang):
   XX=            -41.2298   YY=            -18.9618   ZZ=            -26.1511
   XY=             -0.0008   XZ=              0.0000   YZ=             -0.0000

 Normal termination of Gaussian 16 at Mon Apr 21 17:34:33 2025.
