 Gaussian 16, Revision A.03,
 Gaussian 16:  ES64L-G16RevA.03 25-Dec-2016

 --------------------------------------------
 #p opt UM062X/6-311+G** nosymm int=superfine
 --------------------------------------------

 -------------------
 Title Card Required
 -------------------
 Symbolic Z-matrix:
 Charge =  0 Multiplicity = 1

 SCF Done:  E(UM062X) =  -684.937652505     A.U. after   11 cycles
 SCF Done:  E(UM062X) =  -684.938902455     A.U. after   11 cycles
 SCF Done:  E(UM062X) =  -684.939909073     A.U. after   11 cycles
 SCF Done:  E(UM062X) =  -684.940210979     A.U. after   10 cycles
 SCF Done:  E(UM062X) =  -684.940292223     A.U. after   13 cycles
 SCF Done:  E(UM062X) =  -684.940322881     A.U. after   10 cycles
 SCF Done:  E(UM062X) =  -684.940346233     A.U. after   12 cycles
 SCF Done:  E(UM062X) =  -684.940378713     A.U. after   10 cycles
 SCF Done:  E(UM062X) =  -684.940404454     A.U. after   12 cycles
 SCF Done:  E(UM062X) =  -684.940422622     A.U. after   10 cycles
 SCF Done:  E(UM062X) =  -684.940495962     A.U. after   15 cycles
 SCF Done:  E(UM062X) =  -684.940538967     A.U. after   12 cycles
 SCF Done:  E(UM062X) =  -684.940548518     A.U. after   10 cycles
 SCF Done:  E(UM062X) =  -684.940540072     A.U. after   12 cycles
 SCF Done:  E(UM062X) =  -684.940554137     A.U. after   10 cycles
 SCF Done:  E(UM062X) =  -684.940554604     A.U. after   10 cycles
 SCF Done:  E(UM062X) =  -684.940551470     A.U. after   10 cycles
 SCF Done:  E(UM062X) =  -684.940554898     A.U. after   11 cycles
 SCF Done:  E(UM062X) =  -684.940555107     A.U. after    8 cycles
 SCF Done:  E(UM062X) =  -684.940555129     A.U. after   10 cycles
 Optimization completed.
    -- Stationary point found.

                          Input orientation:
 ---------------------------------------------------------------------
 Center     Atomic      Atomic             Coordinates (Angstroms)
 Number     Number       Type             X           Y           Z
 ---------------------------------------------------------------------
      1         15           0       -1.967217    0.000000    0.000000
      2         15           0        1.967217    0.000000    0.000000
      3          1           0        1.889855   -0.867160    1.120299
      4          1           0       -1.891065    0.919986    1.077481
      5          1           0        1.887536   -1.087790   -0.907187
      6          1           0       -1.891568    1.043137   -0.958488
 ---------------------------------------------------------------------

 Alpha  occ. eigenvalues --  -78.05053 -78.05052  -6.87418  -6.87416  -4.98970
 Alpha  occ. eigenvalues --   -4.98969  -4.98843  -4.98843  -4.98660  -4.98659
 Alpha  occ. eigenvalues --   -0.71277  -0.70620  -0.45097  -0.44797  -0.36262
 Alpha  occ. eigenvalues --   -0.35972  -0.25652
 Alpha virt. eigenvalues --   -0.13628   0.01657   0.02908   0.03241   0.04055
 Alpha virt. eigenvalues --    0.04837   0.05923   0.06081   0.06085   0.06379
 Alpha virt. eigenvalues --    0.08163   0.14678   0.18644   0.28305   0.28835

  Beta  occ. eigenvalues --  -78.05053 -78.05052  -6.87418  -6.87416  -4.98970
  Beta  occ. eigenvalues --   -4.98969  -4.98843  -4.98843  -4.98660  -4.98659
  Beta  occ. eigenvalues --   -0.71277  -0.70620  -0.45097  -0.44797  -0.36262
  Beta  occ. eigenvalues --   -0.35972  -0.25652
  Beta virt. eigenvalues --   -0.13628   0.01657   0.02908   0.03241   0.04055
  Beta virt. eigenvalues --    0.04837   0.05923   0.06081   0.06085   0.06379
  Beta virt. eigenvalues --    0.08163   0.14678   0.18644   0.28305   0.28835

 Mulliken charges and spin densities:
               1          2
     1  P   -0.016915   0.000000
     2  P   -0.016561  -0.000000
     3  H    0.007724   0.000000
     4  H    0.007734  -0.000000
     5  H    0.009030   0.000000
     6  H    0.008987  -0.000000
 Sum of Mulliken charges =  -0.00000  -0.00000

 Dipole moment (field-independent basis, Debye):
    X=             -0.0008    Y=              0.0029    Z=              0.1473  Tot=              0.1473
 Quadrupole moment (field-independent basis, Debye-Ang):
   XX=            -28.6264   YY=            -31.2288   ZZ=            -28.5330
   XY=             -4.1032   XZ=              0.1005   YZ=              0.0649

 Normal termination of Gaussian 16 at Mon Apr 21 20:55:12 2025.
