 Gaussian 16, Revision A.03,
 Gaussian 16:  ES64L-G16RevA.03 25-Dec-2016

 --------------------------------------------
 #p opt UM062X/6-311+G** nosymm int=superfine
 --------------------------------------------

 -------------------
 Title Card Required
 -------------------
 Symbolic Z-matrix:
 Charge =  0 Multiplicity = 1

 SCF Done:  E(UM062X) =  -93.0932397971     A.U. after   10 cycles
 SCF Done:  E(UM062X) =  -93.0937170334     A.U. after   10 cycles
 Optimization completed.
    -- Stationary point found.

                          Input orientation:
 ---------------------------------------------------------------------
 Center     Atomic      Atomic             Coordinates (Angstroms)
 Number     Number       Type             X           Y           Z
 ---------------------------------------------------------------------
      1          6           0       -0.897395    0.000000    0.000000
      2          7           0        0.897395    0.000000    0.000000
      3          1           0       -1.992104   -0.000000    0.000000
 ---------------------------------------------------------------------

 Alpha  occ. eigenvalues --  -14.89317 -10.71998  -0.86642  -0.74666  -0.46154
 Alpha  occ. eigenvalues --   -0.34033  -0.34033
 Alpha virt. eigenvalues --   -0.10382  -0.10382  -0.02825   0.01971   0.07066
 Alpha virt. eigenvalues --    0.07227   0.07227   0.13758   0.17063   0.17063
 Alpha virt. eigenvalues --    0.22088   0.27249   0.49178   0.55242   0.55242

  Beta  occ. eigenvalues --  -14.89317 -10.71998  -0.86642  -0.74666  -0.46154
  Beta  occ. eigenvalues --   -0.34033  -0.34033
  Beta virt. eigenvalues --   -0.10382  -0.10382  -0.02825   0.01971   0.07066
  Beta virt. eigenvalues --    0.07227   0.07227   0.13758   0.17063   0.17063
  Beta virt. eigenvalues --    0.22088   0.27249   0.49178   0.55242   0.55242

 Mulliken charges and spin densities:
               1          2
     1  C   -0.172926  -0.000000
     2  N   -0.067379   0.000000
     3  H    0.240304   0.000000
 Sum of Mulliken charges =  -0.00000   0.00000

 Dipole moment (field-independent basis, Debye):
    X=             -3.1630    Y=              0.0000    Z=             -0.0000  Tot=              3.1630
 Quadrupole moment (field-independent basis, Debye-Ang):
   XX=             -7.6741   YY=            -13.7516   ZZ=            -13.7516
   XY=             -0.0000   XZ=              0.0000   YZ=             -0.0000

 Normal termination of Gaussian 16 at Mon Apr 21 18:37:47 2025.
