 Gaussian 16, Revision A.03,
 Gaussian 16:  ES64L-G16RevA.03 25-Dec-2016

 ---------------------------------------
 #p UM062X/6-311+G** force int=superfine
 ---------------------------------------

 -------------------
 Title Card Required
 -------------------
 Symbolic Z-matrix:
 Charge =  1 Multiplicity = 2

                         Standard orientation:
 ---------------------------------------------------------------------
 Center     Atomic      Atomic             Coordinates (Angstroms)
 Number     Number       Type             X           Y           Z
 ---------------------------------------------------------------------
      1          6           0       -0.000000    0.452411    0.000000
      2          6           0       -0.000000   -0.452411    0.000000
      3          1           0       -0.801605    1.255173    0.000000
      4          1           0        0.808714    1.249859    0.000000
      5          1           0        0.801605   -1.255173    0.000000
      6          1           0       -0.808714   -1.249859    0.000000
 ---------------------------------------------------------------------

 SCF Done:  E(UM062X) =  -77.7048893207     A.U. after    9 cycles

 The electronic state is 2-AG.
 Alpha  occ. eigenvalues --  -10.81367 -10.78336  -1.25373  -0.96414  -0.88778
 Alpha  occ. eigenvalues --   -0.88411  -0.74994  -0.63075
 Alpha virt. eigenvalues --   -0.18241  -0.15329  -0.14227  -0.13789  -0.11040
 Alpha virt. eigenvalues --   -0.08989  -0.07560  -0.06500  -0.02234  -0.01227
 Alpha virt. eigenvalues --    0.00024   0.02948   0.15011   0.18252   0.18818

  Beta  occ. eigenvalues --  -10.81415 -10.78358  -1.24567  -0.91655  -0.85414
  Beta  occ. eigenvalues --   -0.84448  -0.74799
  Beta virt. eigenvalues --   -0.42364  -0.16684  -0.15165  -0.14117  -0.13464
  Beta virt. eigenvalues --   -0.10795  -0.08862  -0.04873  -0.04009  -0.01969
  Beta virt. eigenvalues --   -0.00201   0.00587   0.03789   0.14675   0.17994

 Mulliken charges and spin densities:
               1          2
     1  C   -0.145676   0.094862
     2  C   -0.145676   0.094862
     3  H    0.322730   0.201169
     4  H    0.322946   0.203969
     5  H    0.322730   0.201169
     6  H    0.322946   0.203969
 Sum of Mulliken charges =   1.00000   1.00000

 Dipole moment (field-independent basis, Debye):
    X=             -0.0000    Y=             -0.0000    Z=              0.0000  Tot=              0.0000
 Quadrupole moment (field-independent basis, Debye-Ang):
   XX=             -7.5136   YY=             -2.6156   ZZ=            -12.0074
   XY=              0.0178   XZ=              0.0000   YZ=              0.0000

 Normal termination of Gaussian 16 at Tue Nov 19 11:52:05 2024.
