 Gaussian 16, Revision A.03,
 Gaussian 16:  ES64L-G16RevA.03 25-Dec-2016

 ---------------------------------------------------
 #p UM062X/6-311+G** force int=superfine pop=saveNBO
 ---------------------------------------------------

 -------------------
 Title Card Required
 -------------------
 Symbolic Z-matrix:
 Charge =  0 Multiplicity = 1

                         Standard orientation:
 ---------------------------------------------------------------------
 Center     Atomic      Atomic             Coordinates (Angstroms)
 Number     Number       Type             X           Y           Z
 ---------------------------------------------------------------------
      1         15           0        0.000000    0.000000    1.213495
      2         15           0        0.000000    0.000000   -1.213495
 ---------------------------------------------------------------------

 SCF Done:  E(UM062X) =  -682.554302461     A.U. after    9 cycles

 The electronic state is 1-SGG.
 Alpha  occ. eigenvalues --  -78.09863 -78.09863  -6.91527  -6.91522  -5.02909
 Alpha  occ. eigenvalues --   -5.02909  -5.02908  -5.02908  -5.02758  -5.02747
 Alpha  occ. eigenvalues --   -0.69587  -0.58094  -0.33574  -0.29391  -0.29391
 Alpha virt. eigenvalues --   -0.11913  -0.11913  -0.02116   0.02519   0.04440
 Alpha virt. eigenvalues --    0.04440   0.04544   0.05930   0.06816   0.06816
 Alpha virt. eigenvalues --    0.12413   0.29089   0.30497   0.31173   0.31173

  Beta  occ. eigenvalues --  -78.09863 -78.09863  -6.91527  -6.91522  -5.02909
  Beta  occ. eigenvalues --   -5.02909  -5.02908  -5.02908  -5.02758  -5.02747
  Beta  occ. eigenvalues --   -0.69587  -0.58094  -0.33574  -0.29391  -0.29391
  Beta virt. eigenvalues --   -0.11913  -0.11913  -0.02116   0.02519   0.04440
  Beta virt. eigenvalues --    0.04440   0.04544   0.05930   0.06816   0.06816
  Beta virt. eigenvalues --    0.12413   0.29089   0.30497   0.31173   0.31173

 Mulliken charges and spin densities:
               1          2
     1  P   -0.000000   0.000000
     2  P   -0.000000   0.000000
 Sum of Mulliken charges =  -0.00000   0.00000

 Dipole moment (field-independent basis, Debye):
    X=             -0.0000    Y=             -0.0000    Z=              0.0000  Tot=              0.0000
 Quadrupole moment (field-independent basis, Debye-Ang):
   XX=            -28.1686   YY=            -28.1686   ZZ=            -25.6834
   XY=              0.0000   XZ=             -0.0000   YZ=              0.0000

 Summary of Natural Population Analysis:

                                       Natural Population
                Natural  -----------------------------------------------
    Atom  No    Charge         Core      Valence    Rydberg      Total
 -----------------------------------------------------------------------
      P    1    0.00000      4.99992     2.49297    0.00711     7.50000
      P    2   -0.00000      4.99992     2.49297    0.00711     7.50000
 =======================================================================
   * Total *    0.00000      9.99983     4.98594    0.01422    15.00000

 Normal termination of Gaussian 16 at Mon Apr 21 21:20:28 2025.
