 Gaussian 16, Revision A.03,
 Gaussian 16:  ES64L-G16RevA.03 25-Dec-2016

 --------------------------------------------
 #p opt UM062X/6-311+G** nosymm int=superfine
 --------------------------------------------

 -------------------
 Title Card Required
 -------------------
 Symbolic Z-matrix:
 Charge =  0 Multiplicity = 1

 SCF Done:  E(UM062X) =  -80.5827722637     A.U. after   17 cycles
 SCF Done:  E(UM062X) =  -80.5970696119     A.U. after   13 cycles
 SCF Done:  E(UM062X) =  -80.6054609767     A.U. after   14 cycles
 SCF Done:  E(UM062X) =  -80.6058387887     A.U. after   11 cycles
 SCF Done:  E(UM062X) =  -80.6058582931     A.U. after    8 cycles
 SCF Done:  E(UM062X) =  -80.6028452842     A.U. after   14 cycles
 SCF Done:  E(UM062X) =  -80.6061510643     A.U. after   14 cycles
 SCF Done:  E(UM062X) =  -80.6064833247     A.U. after   12 cycles
 SCF Done:  E(UM062X) =  -80.6068411852     A.U. after   11 cycles
 SCF Done:  E(UM062X) =  -80.6069719597     A.U. after   13 cycles
 SCF Done:  E(UM062X) =  -80.6071085410     A.U. after   11 cycles
 SCF Done:  E(UM062X) =  -80.6071397541     A.U. after   13 cycles
 SCF Done:  E(UM062X) =  -80.6071918719     A.U. after   11 cycles
 SCF Done:  E(UM062X) =  -80.6072038263     A.U. after   11 cycles
 SCF Done:  E(UM062X) =  -80.6072044089     A.U. after   10 cycles
 Optimization completed.
    -- Stationary point found.

                          Input orientation:
 ---------------------------------------------------------------------
 Center     Atomic      Atomic             Coordinates (Angstroms)
 Number     Number       Type             X           Y           Z
 ---------------------------------------------------------------------
      1          5           0       -0.917066    0.000000   -0.000000
      2          7           0        0.917066   -0.000000    0.000000
      3          1           0       -2.080486   -0.188414   -0.040455
      4          1           0        1.048980    1.001696    0.216507
 ---------------------------------------------------------------------

 Alpha  occ. eigenvalues --  -14.76943  -7.18749  -0.86272  -0.59972  -0.44733
 Alpha  occ. eigenvalues --   -0.36282  -0.29130
 Alpha virt. eigenvalues --   -0.06523  -0.04781   0.00356   0.01014   0.04373
 Alpha virt. eigenvalues --    0.04934   0.07869   0.13781   0.16058   0.18655
 Alpha virt. eigenvalues --    0.20363   0.23769   0.26143   0.37717   0.38895

  Beta  occ. eigenvalues --  -14.76943  -7.18749  -0.86272  -0.59972  -0.44733
  Beta  occ. eigenvalues --   -0.36282  -0.29130
  Beta virt. eigenvalues --   -0.06523  -0.04781   0.00356   0.01014   0.04373
  Beta virt. eigenvalues --    0.04934   0.07869   0.13781   0.16058   0.18655
  Beta virt. eigenvalues --    0.20363   0.23769   0.26143   0.37717   0.38895

 Mulliken charges and spin densities:
               1          2
     1  B    0.197388   0.000000
     2  N   -0.466786  -0.000000
     3  H    0.071655   0.000000
     4  H    0.197743   0.000000
 Sum of Mulliken charges =  -0.00000   0.00000

 Dipole moment (field-independent basis, Debye):
    X=             -3.6534    Y=              1.2284    Z=              0.2657  Tot=              3.8635
 Quadrupole moment (field-independent basis, Debye-Ang):
   XX=            -11.6096   YY=            -11.9289   ZZ=            -15.0768
   XY=              1.9009   XZ=              0.4108   YZ=              0.7138

 Normal termination of Gaussian 16 at Mon Apr 21 21:06:13 2025.
