 Gaussian 16, Revision A.03,
 Gaussian 16:  ES64L-G16RevA.03 25-Dec-2016

 --------------------------------------------
 #p opt UM062X/6-311+G** nosymm int=superfine
 --------------------------------------------

 -------------------
 Title Card Required
 -------------------
 Symbolic Z-matrix:
 Charge =  0 Multiplicity = 1

 SCF Done:  E(UM062X) =  -379.580520189     A.U. after   15 cycles
 SCF Done:  E(UM062X) =  -379.581883579     A.U. after   10 cycles
 SCF Done:  E(UM062X) =  -379.581889148     A.U. after    8 cycles
 Optimization completed.
    -- Stationary point found.

                          Input orientation:
 ---------------------------------------------------------------------
 Center     Atomic      Atomic             Coordinates (Angstroms)
 Number     Number       Type             X           Y           Z
 ---------------------------------------------------------------------
      1          6           0       -1.715377    0.000000    0.000000
      2         15           0        1.715377    0.000000    0.000000
      3          1           0       -2.836987   -0.000000    0.000000
 ---------------------------------------------------------------------

 Alpha  occ. eigenvalues --  -78.07859 -10.71619  -6.89709  -5.01596  -5.00688
 Alpha  occ. eigenvalues --   -5.00688  -0.76381  -0.60891  -0.42189  -0.24283
 Alpha  occ. eigenvalues --   -0.24283
 Alpha virt. eigenvalues --   -0.14997  -0.14997  -0.11696   0.01175   0.04054
 Alpha virt. eigenvalues --    0.05979   0.05979   0.07640   0.08682   0.08682
 Alpha virt. eigenvalues --    0.13557   0.17069   0.33032   0.33032   0.34087

  Beta  occ. eigenvalues --  -78.07859 -10.71619  -6.89709  -5.01596  -5.00688
  Beta  occ. eigenvalues --   -5.00688  -0.76381  -0.60891  -0.42189  -0.24283
  Beta  occ. eigenvalues --   -0.24283
  Beta virt. eigenvalues --   -0.14997  -0.14997  -0.11696   0.01175   0.04054
  Beta virt. eigenvalues --    0.05979   0.05979   0.07640   0.08682   0.08682
  Beta virt. eigenvalues --    0.13557   0.17069   0.33032   0.33032   0.34087

 Mulliken charges and spin densities:
               1          2
     1  C   -0.141108   0.000000
     2  P   -0.031530  -0.000000
     3  H    0.172638  -0.000000
 Sum of Mulliken charges =  -0.00000  -0.00000

 Dipole moment (field-independent basis, Debye):
    X=             -2.6567    Y=             -0.0000    Z=              0.0000  Tot=              2.6567
 Quadrupole moment (field-independent basis, Debye-Ang):
   XX=            -10.4312   YY=            -24.1197   ZZ=            -24.1197
   XY=              0.0000   XZ=             -0.0000   YZ=             -0.0000

 Normal termination of Gaussian 16 at Mon Apr 21 19:29:46 2025.
