 Gaussian 16, Revision A.03,
 Gaussian 16:  ES64L-G16RevA.03 25-Dec-2016

 --------------------------------------------
 #p opt UM062X/6-311+G** nosymm int=superfine
 --------------------------------------------

 -------------------
 Title Card Required
 -------------------
 Symbolic Z-matrix:
 Charge =  1 Multiplicity = 2

 SCF Done:  E(UM062X) =  -579.670293105     A.U. after   14 cycles
 SCF Done:  E(UM062X) =  -579.670798541     A.U. after   12 cycles
 SCF Done:  E(UM062X) =  -579.670997990     A.U. after   12 cycles
 SCF Done:  E(UM062X) =  -579.671620907     A.U. after   12 cycles
 SCF Done:  E(UM062X) =  -579.672479549     A.U. after   16 cycles
 SCF Done:  E(UM062X) =  -579.672565745     A.U. after   12 cycles
 SCF Done:  E(UM062X) =  -579.672590445     A.U. after   10 cycles
 SCF Done:  E(UM062X) =  -579.672591564     A.U. after   10 cycles
 SCF Done:  E(UM062X) =  -579.672592017     A.U. after    9 cycles
 SCF Done:  E(UM062X) =  -579.672593946     A.U. after   10 cycles
 SCF Done:  E(UM062X) =  -579.672595730     A.U. after   10 cycles
 SCF Done:  E(UM062X) =  -579.672596528     A.U. after   10 cycles
 SCF Done:  E(UM062X) =  -579.672596665     A.U. after    9 cycles
 Optimization completed.
    -- Stationary point found.

                          Input orientation:
 ---------------------------------------------------------------------
 Center     Atomic      Atomic             Coordinates (Angstroms)
 Number     Number       Type             X           Y           Z
 ---------------------------------------------------------------------
      1         14           0       -2.527975    0.000000    0.000000
      2         14           0        2.527975    0.000000    0.000000
      3          1           0       -2.691168   -1.499753   -0.000000
      4          1           0        2.690528    1.499814   -0.000000
 ---------------------------------------------------------------------

 Alpha  occ. eigenvalues --  -67.25681 -67.25681  -5.79862  -5.79861  -4.10966
 Alpha  occ. eigenvalues --   -4.10966  -4.10875  -4.10875  -4.10229  -4.10229
 Alpha  occ. eigenvalues --   -0.74676  -0.74427  -0.51475  -0.51325  -0.38048
 Alpha virt. eigenvalues --   -0.30025  -0.26552  -0.26209  -0.10331  -0.08942
 Alpha virt. eigenvalues --   -0.08156  -0.07334  -0.07293  -0.06230  -0.05417
 Alpha virt. eigenvalues --   -0.05352  -0.04769  -0.02213   0.13431   0.14925

  Beta  occ. eigenvalues --  -67.25421 -67.25420  -5.79788  -5.79787  -4.10812
  Beta  occ. eigenvalues --   -4.10812  -4.10260  -4.10260  -4.10132  -4.10132
  Beta  occ. eigenvalues --   -0.72869  -0.72774  -0.50831  -0.50679
  Beta virt. eigenvalues --   -0.27254  -0.26336  -0.25808  -0.23979  -0.14709
  Beta virt. eigenvalues --   -0.10778  -0.09041  -0.08027  -0.07556  -0.06219
  Beta virt. eigenvalues --   -0.05716  -0.05155  -0.04895  -0.02253   0.09567

 Mulliken charges and spin densities:
               1          2
     1  Si   0.585813   0.508044
     2  Si   0.585836   0.508023
     3  H   -0.085820  -0.008034
     4  H   -0.085828  -0.008034
 Sum of Mulliken charges =   1.00000   1.00000

 Dipole moment (field-independent basis, Debye):
    X=             -0.0001    Y=              0.0001    Z=             -0.0000  Tot=              0.0001
 Quadrupole moment (field-independent basis, Debye-Ang):
   XX=             11.6074   YY=            -27.8175   ZZ=            -20.0158
   XY=              2.4326   XZ=             -0.0000   YZ=              0.0000

 Normal termination of Gaussian 16 at Mon Apr 21 20:45:58 2025.
