 Gaussian 16, Revision A.03,
 Gaussian 16:  ES64L-G16RevA.03 25-Dec-2016

 ---------------------------------------
 #p UM062X/6-311+G** force int=superfine
 ---------------------------------------

 -------------------
 Title Card Required
 -------------------
 Symbolic Z-matrix:
 Charge =  0 Multiplicity = 1

                         Standard orientation:
 ---------------------------------------------------------------------
 Center     Atomic      Atomic             Coordinates (Angstroms)
 Number     Number       Type             X           Y           Z
 ---------------------------------------------------------------------
      1          7           0        0.000000    0.000000    1.545048
      2          7           0        0.000000    0.000000   -1.545048
 ---------------------------------------------------------------------

 SCF Done:  E(UM062X) =  -108.763480066     A.U. after    9 cycles

 The electronic state is 1-SGG.
 Alpha  occ. eigenvalues --  -14.96788 -14.96784  -0.87716  -0.86378  -0.34877
 Alpha  occ. eigenvalues --   -0.33236  -0.33236
 Alpha virt. eigenvalues --   -0.23494  -0.23494  -0.21461   0.07157   0.09315
 Alpha virt. eigenvalues --    0.11196   0.11196   0.15033   0.15033   0.15839
 Alpha virt. eigenvalues --    0.22421   0.71199   0.76573   0.76573   0.79440

  Beta  occ. eigenvalues --  -14.96788 -14.96784  -0.87716  -0.86378  -0.34877
  Beta  occ. eigenvalues --   -0.33236  -0.33236
  Beta virt. eigenvalues --   -0.23494  -0.23494  -0.21461   0.07157   0.09315
  Beta virt. eigenvalues --    0.11196   0.11196   0.15033   0.15033   0.15839
  Beta virt. eigenvalues --    0.22421   0.71199   0.76573   0.76573   0.79440

 Mulliken charges and spin densities:
               1          2
     1  N   -0.000000  -0.000000
     2  N   -0.000000  -0.000000
 Sum of Mulliken charges =  -0.00000  -0.00000

 Dipole moment (field-independent basis, Debye):
    X=             -0.0000    Y=              0.0000    Z=              0.0000  Tot=              0.0000
 Quadrupole moment (field-independent basis, Debye-Ang):
   XX=            -12.4468   YY=            -12.4468   ZZ=            -10.6293
   XY=              0.0000   XZ=             -0.0000   YZ=              0.0000

 Optimization completed.
    -- Stationary point found.
 Normal termination of Gaussian 16 at Wed Feb 26 13:55:49 2025.
