 Gaussian 16, Revision A.03,
 Gaussian 16:  ES64L-G16RevA.03 25-Dec-2016

 ----------------------------------------------------------------------
 #p opt UM062X/6-311+G** nosymm int=superfine SCF=(MaxCycle=200,NoVarAc
 c,noincfock) guess=read
 ----------------------------------------------------------------------

 -------------------
 Title Card Required
 -------------------
 Symbolic Z-matrix:
 Charge = -1 Multiplicity = 2

 SCF Done:  E(UM062X) =  -51.8728546066     A.U. after   40 cycles
 SCF Done:  E(UM062X) =  -51.8778591702     A.U. after   21 cycles
 SCF Done:  E(UM062X) =  -51.8789438984     A.U. after   19 cycles
 SCF Done:  E(UM062X) =  -51.8816082487     A.U. after   17 cycles
 SCF Done:  E(UM062X) =  -51.8824427579     A.U. after   16 cycles
 SCF Done:  E(UM062X) =  -51.8828654417     A.U. after   16 cycles
 SCF Done:  E(UM062X) =  -51.8828927289     A.U. after   14 cycles
 SCF Done:  E(UM062X) =  -51.8829198555     A.U. after   14 cycles
 SCF Done:  E(UM062X) =  -51.8829290927     A.U. after   14 cycles
 SCF Done:  E(UM062X) =  -51.8829343322     A.U. after   14 cycles
 Optimization completed.
    -- Stationary point found.

                          Input orientation:
 ---------------------------------------------------------------------
 Center     Atomic      Atomic             Coordinates (Angstroms)
 Number     Number       Type             X           Y           Z
 ---------------------------------------------------------------------
      1          5           0       -1.672274    0.000000    0.000000
      2          5           0        1.672274    0.000000    0.000000
      3          1           0       -2.052746   -1.041221   -0.459883
      4          1           0        1.763417    1.076217   -0.509420
      5          1           0       -2.052696    1.042815   -0.456298
      6          1           0        1.763635   -1.074912   -0.512127
 ---------------------------------------------------------------------

 Alpha  occ. eigenvalues --   -6.87422  -6.85765  -0.37289  -0.36003  -0.22840
 Alpha  occ. eigenvalues --   -0.22243  -0.04542  -0.00802
 Alpha virt. eigenvalues --    0.11219   0.13958   0.16041   0.17119   0.19049
 Alpha virt. eigenvalues --    0.20102   0.21256   0.22215   0.22512   0.24032
 Alpha virt. eigenvalues --    0.33376   0.33415   0.35809   0.36353   0.48424

  Beta  occ. eigenvalues --   -6.87928  -6.85108  -0.37464  -0.32859  -0.23119
  Beta  occ. eigenvalues --   -0.21572  -0.04870
  Beta virt. eigenvalues --    0.09881   0.12614   0.13785   0.14730   0.16249
  Beta virt. eigenvalues --    0.18216   0.19966   0.21378   0.22885   0.23858
  Beta virt. eigenvalues --    0.26720   0.32858   0.32971   0.35147   0.35700

 Mulliken charges and spin densities:
               1          2
     1  B   -0.383403  -0.476133
     2  B   -0.449894   1.542183
     3  H   -0.047834  -0.006136
     4  H   -0.035516  -0.026887
     5  H   -0.047835  -0.006138
     6  H   -0.035519  -0.026888
 Sum of Mulliken charges =  -1.00000   1.00000

 Dipole moment (field-independent basis, Debye):
    X=             -1.1220    Y=              0.0016    Z=             -1.0491  Tot=              1.5361
 Quadrupole moment (field-independent basis, Debye-Ang):
   XX=            -36.1402   YY=            -22.9670   ZZ=            -24.9772
   XY=              0.0020   XZ=             -1.5698   YZ=              0.0029

 Normal termination of Gaussian 16 at Mon Apr 21 21:23:55 2025.
