 Gaussian 16, Revision A.03,
 Gaussian 16:  ES64L-G16RevA.03 25-Dec-2016

 --------------------------------------------
 #p opt UM062X/6-311+G** nosymm int=superfine
 --------------------------------------------

 -------------------
 Title Card Required
 -------------------
 Symbolic Z-matrix:
 Charge =  1 Multiplicity = 2

 SCF Done:  E(UM062X) =  -76.6049230703     A.U. after   13 cycles
 SCF Done:  E(UM062X) =  -76.6049610162     A.U. after   16 cycles
 Optimization completed.
    -- Stationary point found.

                          Input orientation:
 ---------------------------------------------------------------------
 Center     Atomic      Atomic             Coordinates (Angstroms)
 Number     Number       Type             X           Y           Z
 ---------------------------------------------------------------------
      1          6           0       -0.982160    0.000000    0.000000
      2          6           0        0.982160    0.000000    0.000000
      3          1           0       -2.088746    0.000000   -0.000000
      4          1           0        2.088745    0.000000   -0.000000
 ---------------------------------------------------------------------

 Alpha  occ. eigenvalues --  -11.01286 -11.01264  -1.06278  -0.99773  -0.79763
 Alpha  occ. eigenvalues --   -0.60131  -0.58141
 Alpha virt. eigenvalues --   -0.39215  -0.37251  -0.37107  -0.14062  -0.11974
 Alpha virt. eigenvalues --   -0.09869  -0.08640  -0.08417  -0.05377  -0.05102
 Alpha virt. eigenvalues --    0.00166   0.02890   0.05788   0.24089   0.30701

  Beta  occ. eigenvalues --  -11.01013 -11.00998  -1.03014  -0.97866  -0.78645
  Beta  occ. eigenvalues --   -0.56306
  Beta virt. eigenvalues --   -0.38598  -0.35493  -0.35090  -0.30356  -0.14937
  Beta virt. eigenvalues --   -0.12279  -0.10519  -0.08976  -0.08844  -0.05420
  Beta virt. eigenvalues --   -0.05214  -0.00801   0.02973   0.05832   0.24158

 Mulliken charges and spin densities:
               1          2
     1  C    0.120383   0.523366
     2  C    0.120383   0.523366
     3  H    0.379617  -0.023366
     4  H    0.379617  -0.023366
 Sum of Mulliken charges =   1.00000   1.00000

 Dipole moment (field-independent basis, Debye):
    X=             -0.0000    Y=              0.0000    Z=             -0.0000  Tot=              0.0000
 Quadrupole moment (field-independent basis, Debye-Ang):
   XX=              5.7343   YY=            -13.1288   ZZ=            -11.3049
   XY=             -0.0000   XZ=              0.0000   YZ=             -0.5952

 Normal termination of Gaussian 16 at Tue Dec  3 11:21:56 2024.
