 Gaussian 16, Revision A.03,
 Gaussian 16:  ES64L-G16RevA.03 25-Dec-2016

 --------------------------------------------
 #p opt UM062X/6-311+G** nosymm int=superfine
 --------------------------------------------

 -------------------
 Title Card Required
 -------------------
 Symbolic Z-matrix:
 Charge =  0 Multiplicity = 1

 SCF Done:  E(UM062X) =  -81.8971389488     A.U. after   11 cycles
 SCF Done:  E(UM062X) =  -81.8998926837     A.U. after    9 cycles
 SCF Done:  E(UM062X) =  -81.9008432558     A.U. after   10 cycles
 SCF Done:  E(UM062X) =  -81.8911426656     A.U. after   11 cycles
 SCF Done:  E(UM062X) =  -81.9009545880     A.U. after    9 cycles
 SCF Done:  E(UM062X) =  -81.9020760419     A.U. after   12 cycles
 SCF Done:  E(UM062X) =  -81.8990241925     A.U. after   13 cycles
 SCF Done:  E(UM062X) =  -81.9056891273     A.U. after   10 cycles
 SCF Done:  E(UM062X) =  -81.8974877877     A.U. after   11 cycles
 SCF Done:  E(UM062X) =  -81.9064175081     A.U. after   11 cycles
 SCF Done:  E(UM062X) =  -81.9073416542     A.U. after   10 cycles
 SCF Done:  E(UM062X) =  -81.9073992977     A.U. after    9 cycles
 SCF Done:  E(UM062X) =  -81.9074020889     A.U. after    9 cycles
 SCF Done:  E(UM062X) =  -81.9074023035     A.U. after    8 cycles
 Optimization completed.
    -- Stationary point found.

                          Input orientation:
 ---------------------------------------------------------------------
 Center     Atomic      Atomic             Coordinates (Angstroms)
 Number     Number       Type             X           Y           Z
 ---------------------------------------------------------------------
      1          5           0       -1.020399    0.000000    0.000000
      2          7           0        1.020399    0.000000    0.000000
      3          1           0       -1.493362   -1.077361   -0.040862
      4          1           0        1.286955    0.823879    0.532638
      5          1           0       -1.493364    1.077349   -0.041166
      6          1           0        1.286956   -0.823769    0.532807
 ---------------------------------------------------------------------

 Alpha  occ. eigenvalues --  -14.72889  -7.12606  -0.90002  -0.58976  -0.51970
 Alpha  occ. eigenvalues --   -0.45303  -0.38397  -0.31048
 Alpha virt. eigenvalues --   -0.04226   0.01190   0.01908   0.03461   0.05661
 Alpha virt. eigenvalues --    0.09688   0.12080   0.13713   0.15265   0.16433
 Alpha virt. eigenvalues --    0.20202   0.20634   0.22128   0.27431   0.34961

  Beta  occ. eigenvalues --  -14.72889  -7.12606  -0.90002  -0.58976  -0.51970
  Beta  occ. eigenvalues --   -0.45303  -0.38397  -0.31048
  Beta virt. eigenvalues --   -0.04226   0.01190   0.01908   0.03461   0.05661
  Beta virt. eigenvalues --    0.09688   0.12080   0.13713   0.15265   0.16433
  Beta virt. eigenvalues --    0.20202   0.20634   0.22128   0.27431   0.34961

 Mulliken charges and spin densities:
               1          2
     1  B    0.196189  -0.000000
     2  N   -0.737440   0.000000
     3  H    0.029759  -0.000000
     4  H    0.240867   0.000000
     5  H    0.029759  -0.000000
     6  H    0.240866  -0.000000
 Sum of Mulliken charges =  -0.00000  -0.00000

 Dipole moment (field-independent basis, Debye):
    X=             -1.6120    Y=              0.0002    Z=              1.4629  Tot=              2.1768
 Quadrupole moment (field-independent basis, Debye-Ang):
   XX=            -14.5527   YY=            -13.2392   ZZ=            -14.6763
   XY=              0.0002   XZ=              2.3001   YZ=             -0.0001

 Normal termination of Gaussian 16 at Mon Apr 21 17:27:20 2025.
