 Gaussian 16, Revision A.03,
 Gaussian 16:  ES64L-G16RevA.03 25-Dec-2016

 --------------------------------------------
 #p opt UM062X/6-311+G** nosymm int=superfine
 --------------------------------------------

 -------------------
 Title Card Required
 -------------------
 Symbolic Z-matrix:
 Charge =  0 Multiplicity = 1

 SCF Done:  E(UM062X) =  -77.1232998974     A.U. after   10 cycles
 SCF Done:  E(UM062X) =  -77.1822807987     A.U. after   10 cycles
 SCF Done:  E(UM062X) =  -77.1892711629     A.U. after    8 cycles
 SCF Done:  E(UM062X) =  -77.1893103719     A.U. after    7 cycles
 Optimization completed.
    -- Stationary point found.

                          Input orientation:
 ---------------------------------------------------------------------
 Center     Atomic      Atomic             Coordinates (Angstroms)
 Number     Number       Type             X           Y           Z
 ---------------------------------------------------------------------
      1          6           0       -0.496768    0.000000    0.000000
      2          6           0        0.496768    0.000000    0.000000
      3          1           0       -1.557078    0.000000   -0.000000
      4          1           0        1.557077   -0.000000    0.000000
 ---------------------------------------------------------------------

 Alpha  occ. eigenvalues --  -10.49315 -10.47886  -0.89142  -0.61668  -0.56537
 Alpha  occ. eigenvalues --   -0.40058  -0.40058
 Alpha virt. eigenvalues --    0.02816   0.03344   0.07174   0.07174   0.07202
 Alpha virt. eigenvalues --    0.07202   0.09458   0.16766   0.19968   0.19968
 Alpha virt. eigenvalues --    0.21855   0.24979   0.44041   0.45540   0.54192

  Beta  occ. eigenvalues --  -10.49315 -10.47886  -0.89142  -0.61668  -0.56537
  Beta  occ. eigenvalues --   -0.40058  -0.40058
  Beta virt. eigenvalues --    0.02816   0.03344   0.07174   0.07174   0.07202
  Beta virt. eigenvalues --    0.07202   0.09458   0.16766   0.19968   0.19968
  Beta virt. eigenvalues --    0.21855   0.24979   0.44041   0.45540   0.54192

 Mulliken charges and spin densities:
               1          2
     1  C   -0.132481   0.000000
     2  C   -0.132480  -0.000000
     3  H    0.132481  -0.000000
     4  H    0.132480  -0.000000
 Sum of Mulliken charges =  -0.00000  -0.00000

 Dipole moment (field-independent basis, Debye):
    X=             -0.0000    Y=             -0.0000    Z=              0.0000  Tot=              0.0000
 Quadrupole moment (field-independent basis, Debye-Ang):
   XX=             -7.5006   YY=            -12.7272   ZZ=            -12.7272
   XY=             -0.0000   XZ=              0.0000   YZ=             -0.0000

 Normal termination of Gaussian 16 at Tue Dec  3 19:59:13 2024.
