 Gaussian 16, Revision A.03,
 Gaussian 16:  ES64L-G16RevA.03 25-Dec-2016

 ---------------------------------------
 #p UM062X/6-311+G** force int=superfine
 ---------------------------------------

 -------------------
 Title Card Required
 -------------------
 Symbolic Z-matrix:
 Charge =  1 Multiplicity = 2

                         Standard orientation:
 ---------------------------------------------------------------------
 Center     Atomic      Atomic             Coordinates (Angstroms)
 Number     Number       Type             X           Y           Z
 ---------------------------------------------------------------------
      1          6           0        0.830373   -0.655586    1.139711
      2          6           0       -0.830368    0.655594   -1.139706
      3          1           0        0.019404    0.675883   -1.812649
      4          1           0        1.060027   -1.525911    0.535421
      5          1           0       -1.060623    1.526111   -0.535920
      6          1           0       -1.525843   -0.175345   -1.174676
      7          1           0       -0.019334   -0.675717    1.812742
      8          1           0        1.526340    0.174927    1.175051
 ---------------------------------------------------------------------

 SCF Done:  E(UM062X) =  -79.3366876149     A.U. after   10 cycles

 The electronic state is 2-A.
 Alpha  occ. eigenvalues --  -10.84955 -10.84953  -1.03904  -1.02555  -0.74603
 Alpha  occ. eigenvalues --   -0.74603  -0.73963  -0.73963  -0.52163
 Alpha virt. eigenvalues --   -0.35664  -0.13960  -0.10244  -0.10244  -0.10169
 Alpha virt. eigenvalues --   -0.06235  -0.06235  -0.05204  -0.03266  -0.01995
 Alpha virt. eigenvalues --   -0.01993   0.01322   0.01324   0.04817   0.07689

  Beta  occ. eigenvalues --  -10.84756 -10.84756  -1.01055  -1.00147  -0.74066
  Beta  occ. eigenvalues --   -0.74065  -0.73457  -0.73457
  Beta virt. eigenvalues --   -0.32632  -0.25690  -0.15437  -0.11133  -0.11132
  Beta virt. eigenvalues --   -0.09976  -0.06416  -0.06416  -0.05408  -0.02387
  Beta virt. eigenvalues --   -0.02270  -0.02267   0.01631   0.01633   0.05768

 Mulliken charges and spin densities:
               1          2
     1  C   -0.271696   0.566728
     2  C   -0.271697   0.566730
     3  H    0.257249  -0.022250
     4  H    0.257206  -0.022244
     5  H    0.257233  -0.022244
     6  H    0.257214  -0.022235
     7  H    0.257250  -0.022250
     8  H    0.257240  -0.022235
 Sum of Mulliken charges =   1.00000   1.00000

 Dipole moment (field-independent basis, Debye):
    X=             -0.0000    Y=             -0.0001    Z=             -0.0000  Tot=              0.0001
 Quadrupole moment (field-independent basis, Debye-Ang):
   XX=             -7.7504   YY=             -8.9884   ZZ=             -4.8392
   XY=             -2.5973   XZ=              4.5159   YZ=             -3.5661

 Normal termination of Gaussian 16 at Wed Nov 13 12:58:44 2024.
