 Gaussian 16, Revision A.03,
 Gaussian 16:  ES64L-G16RevA.03 25-Dec-2016

 --------------------------------------------
 #p opt UM062X/6-311+G** nosymm int=superfine
 --------------------------------------------

 -------------------
 Title Card Required
 -------------------
 Symbolic Z-matrix:
 Charge =  0 Multiplicity = 1

 SCF Done:  E(UM062X) =  -95.6614707135     A.U. after   13 cycles
 SCF Done:  E(UM062X) =  -95.6786873259     A.U. after   11 cycles
 SCF Done:  E(UM062X) =  -95.6872666079     A.U. after   11 cycles
 SCF Done:  E(UM062X) =  -95.6873845099     A.U. after   10 cycles
 SCF Done:  E(UM062X) =  -95.6874011313     A.U. after    9 cycles
 SCF Done:  E(UM062X) =  -95.6874110555     A.U. after    9 cycles
 SCF Done:  E(UM062X) =  -95.6874118772     A.U. after    8 cycles
 SCF Done:  E(UM062X) =  -95.6874119734     A.U. after    7 cycles
 Optimization completed.
    -- Stationary point found.

                          Input orientation:
 ---------------------------------------------------------------------
 Center     Atomic      Atomic             Coordinates (Angstroms)
 Number     Number       Type             X           Y           Z
 ---------------------------------------------------------------------
      1          6           0       -1.305542    0.000000    0.000000
      2          7           0        1.305542    0.000000    0.000000
      3          1           0        1.329552   -1.015364    0.136553
      4          1           0       -1.403070    1.075910    0.002562
      5          1           0        1.329435    0.369381    0.955602
      6          1           0       -1.403024   -0.517319   -0.943384
      7          1           0       -1.502717   -0.542736    0.914105
 ---------------------------------------------------------------------

 Alpha  occ. eigenvalues --  -14.75111 -10.60589  -0.90441  -0.79278  -0.51681
 Alpha  occ. eigenvalues --   -0.51388  -0.50219  -0.36108  -0.29288
 Alpha virt. eigenvalues --   -0.07795   0.01608   0.04968   0.05532   0.06780
 Alpha virt. eigenvalues --    0.10510   0.13450   0.15997   0.16631   0.17791
 Alpha virt. eigenvalues --    0.20149   0.21858   0.22219   0.31511   0.41467

  Beta  occ. eigenvalues --  -14.75111 -10.60589  -0.90441  -0.79278  -0.51681
  Beta  occ. eigenvalues --   -0.51388  -0.50219  -0.36108  -0.29288
  Beta virt. eigenvalues --   -0.07795   0.01608   0.04968   0.05532   0.06780
  Beta virt. eigenvalues --    0.10510   0.13450   0.15997   0.16631   0.17791
  Beta virt. eigenvalues --    0.20149   0.21858   0.22219   0.31511   0.41467

 Mulliken charges and spin densities:
               1          2
     1  C   -0.427436  -0.000000
     2  N   -0.594569   0.000000
     3  H    0.226673  -0.000000
     4  H    0.194945   0.000000
     5  H    0.226667  -0.000000
     6  H    0.194997   0.000000
     7  H    0.178723   0.000000
 Sum of Mulliken charges =  -0.00000   0.00000

 Dipole moment (field-independent basis, Debye):
    X=             -2.3391    Y=             -0.9404    Z=              1.5899  Tot=              2.9805
 Quadrupole moment (field-independent basis, Debye-Ang):
   XX=            -15.2245   YY=            -13.3140   ZZ=            -14.1363
   XY=             -1.4464   XZ=              2.4453   YZ=              0.7482

 Normal termination of Gaussian 16 at Mon Apr 21 18:08:26 2025.
