 Gaussian 16, Revision A.03,
 Gaussian 16:  ES64L-G16RevA.03 25-Dec-2016

 --------------------------------------------
 #p opt UM062X/6-311+G** nosymm int=superfine
 --------------------------------------------

 -------------------
 Title Card Required
 -------------------
 Symbolic Z-matrix:
 Charge =  0 Multiplicity = 1

 SCF Done:  E(UM062X) =  -683.777187235     A.U. after    9 cycles
 SCF Done:  E(UM062X) =  -683.778026249     A.U. after    9 cycles
 SCF Done:  E(UM062X) =  -683.778027685     A.U. after    8 cycles
 Optimization completed.
    -- Stationary point found.

                          Input orientation:
 ---------------------------------------------------------------------
 Center     Atomic      Atomic             Coordinates (Angstroms)
 Number     Number       Type             X           Y           Z
 ---------------------------------------------------------------------
      1         15           0       -1.284490    0.000000    0.000000
      2         15           0        1.284490    0.000000    0.000000
      3          1           0       -1.287165   -1.421004    0.000000
      4          1           0        1.287165    1.421004    0.000000
 ---------------------------------------------------------------------

 Alpha  occ. eigenvalues --  -78.06974 -78.06974  -6.89006  -6.89003  -5.00483
 Alpha  occ. eigenvalues --   -5.00482  -5.00407  -5.00403  -5.00252  -5.00250
 Alpha  occ. eigenvalues --   -0.71869  -0.64882  -0.41193  -0.39837  -0.31613
 Alpha  occ. eigenvalues --   -0.28072
 Alpha virt. eigenvalues --   -0.12201  -0.03877   0.01833   0.03508   0.04080
 Alpha virt. eigenvalues --    0.04504   0.04843   0.06284   0.06877   0.08461
 Alpha virt. eigenvalues --    0.09972   0.12857   0.28790   0.28842   0.30547

  Beta  occ. eigenvalues --  -78.06974 -78.06974  -6.89006  -6.89003  -5.00483
  Beta  occ. eigenvalues --   -5.00482  -5.00407  -5.00403  -5.00252  -5.00250
  Beta  occ. eigenvalues --   -0.71869  -0.64882  -0.41193  -0.39837  -0.31613
  Beta  occ. eigenvalues --   -0.28072
  Beta virt. eigenvalues --   -0.12201  -0.03877   0.01833   0.03508   0.04080
  Beta virt. eigenvalues --    0.04504   0.04843   0.06284   0.06877   0.08461
  Beta virt. eigenvalues --    0.09972   0.12857   0.28790   0.28842   0.30547

 Mulliken charges and spin densities:
               1          2
     1  P    0.010425   0.000000
     2  P    0.010425  -0.000000
     3  H   -0.010425   0.000000
     4  H   -0.010425  -0.000000
 Sum of Mulliken charges =  -0.00000  -0.00000

 Dipole moment (field-independent basis, Debye):
    X=              0.0000    Y=              0.0000    Z=              0.0000  Tot=              0.0000
 Quadrupole moment (field-independent basis, Debye-Ang):
   XX=            -28.4835   YY=            -27.8374   ZZ=            -29.8589
   XY=              2.6087   XZ=              0.0000   YZ=              0.0000

 Normal termination of Gaussian 16 at Mon Apr 21 21:12:17 2025.
