 Gaussian 16, Revision A.03,
 Gaussian 16:  ES64L-G16RevA.03 25-Dec-2016

 ---------------------------------------------------
 #p UM062X/6-311+G** force int=superfine pop=saveNBO
 ---------------------------------------------------

 -------------------
 Title Card Required
 -------------------
 Symbolic Z-matrix:
 Charge =  0 Multiplicity = 1

                         Standard orientation:
 ---------------------------------------------------------------------
 Center     Atomic      Atomic             Coordinates (Angstroms)
 Number     Number       Type             X           Y           Z
 ---------------------------------------------------------------------
      1          6           0        0.000000    0.000000   -1.669808
      2          8           0        0.000000    0.000000    1.252356
 ---------------------------------------------------------------------

 SCF Done:  E(UM062X) =  -112.769394691     A.U. after   32 cycles

 The electronic state is 1-SG.
 Alpha  occ. eigenvalues --  -19.69795 -10.77427  -1.00431  -0.68865  -0.39076
 Alpha  occ. eigenvalues --   -0.39076  -0.32785
 Alpha virt. eigenvalues --   -0.14866  -0.14866  -0.14347   0.03483   0.06605
 Alpha virt. eigenvalues --    0.06605   0.07453   0.18308   0.21059   0.21059
 Alpha virt. eigenvalues --    0.28592   0.53632   0.53632   0.55732   0.63266

  Beta  occ. eigenvalues --  -19.69795 -10.77427  -1.00431  -0.68865  -0.39076
  Beta  occ. eigenvalues --   -0.39076  -0.32785
  Beta virt. eigenvalues --   -0.14866  -0.14866  -0.14347   0.03483   0.06605
  Beta virt. eigenvalues --    0.06605   0.07453   0.18308   0.21059   0.21059
  Beta virt. eigenvalues --    0.28592   0.53632   0.53632   0.55732   0.63266

 Mulliken charges and spin densities:
               1          2
     1  C    0.198634   0.000000
     2  O   -0.198634  -0.000000
 Sum of Mulliken charges =   0.00000  -0.00000

 Dipole moment (field-independent basis, Debye):
    X=              0.0000    Y=              0.0000    Z=             -2.8415  Tot=              2.8415
 Quadrupole moment (field-independent basis, Debye-Ang):
   XX=            -11.1770   YY=            -11.1770   ZZ=            -11.2602
   XY=              0.0000   XZ=              0.0000   YZ=              0.0000

 Summary of Natural Population Analysis:

                                       Natural Population
                Natural  -----------------------------------------------
    Atom  No    Charge         Core      Valence    Rydberg      Total
 -----------------------------------------------------------------------
      C    1    0.12418      1.00000     1.87543    0.00039     2.87582
      O    2   -0.12418      1.00000     3.12380    0.00038     4.12418
 =======================================================================
   * Total *    0.00000      2.00000     4.99923    0.00077     7.00000

 Normal termination of Gaussian 16 at Mon Apr 21 19:31:05 2025.
