 Gaussian 16, Revision A.03,
 Gaussian 16:  ES64L-G16RevA.03 25-Dec-2016

 --------------------------------------------
 #p opt UM062X/6-311+G** nosymm int=superfine
 --------------------------------------------

 -------------------
 Title Card Required
 -------------------
 Symbolic Z-matrix:
 Charge =  0 Multiplicity = 1

 SCF Done:  E(UM062X) =  -438.626768255     A.U. after   11 cycles
 SCF Done:  E(UM062X) =  -438.631596609     A.U. after   10 cycles
 SCF Done:  E(UM062X) =  -438.632324191     A.U. after    9 cycles
 SCF Done:  E(UM062X) =  -438.632327323     A.U. after    8 cycles
 SCF Done:  E(UM062X) =  -438.632327985     A.U. after    8 cycles
 Optimization completed.
    -- Stationary point found.

                          Input orientation:
 ---------------------------------------------------------------------
 Center     Atomic      Atomic             Coordinates (Angstroms)
 Number     Number       Type             X           Y           Z
 ---------------------------------------------------------------------
      1          6           0       -1.160220    0.000000    0.000000
      2         16           0        1.160220    0.000000    0.000000
      3          1           0        1.196935   -1.342160   -0.001816
      4          1           0       -1.363418    1.062998    0.002396
      5          1           0       -1.400877   -0.515597   -0.920169
      6          1           0       -1.400864   -0.519688    0.917872
 ---------------------------------------------------------------------

 Alpha  occ. eigenvalues --  -89.89441 -10.60036  -8.25712  -6.17805  -6.17664
 Alpha  occ. eigenvalues --   -6.17165  -0.82172  -0.75704  -0.51222  -0.51103
 Alpha  occ. eigenvalues --   -0.43895  -0.35417  -0.29658
 Alpha virt. eigenvalues --   -0.03634   0.02178   0.04508   0.05374   0.05844
 Alpha virt. eigenvalues --    0.07345   0.07858   0.08625   0.11542   0.13623
 Alpha virt. eigenvalues --    0.17666   0.18374   0.24295   0.32756   0.35087

  Beta  occ. eigenvalues --  -89.89441 -10.60036  -8.25712  -6.17805  -6.17664
  Beta  occ. eigenvalues --   -6.17165  -0.82172  -0.75704  -0.51222  -0.51103
  Beta  occ. eigenvalues --   -0.43895  -0.35417  -0.29658
  Beta virt. eigenvalues --   -0.03634   0.02178   0.04508   0.05374   0.05844
  Beta virt. eigenvalues --    0.07345   0.07858   0.08625   0.11542   0.13623
  Beta virt. eigenvalues --    0.17666   0.18374   0.24295   0.32756   0.35087

 Mulliken charges and spin densities:
               1          2
     1  C   -0.536885   0.000000
     2  S   -0.125236  -0.000000
     3  H    0.064303  -0.000000
     4  H    0.198140  -0.000000
     5  H    0.199855  -0.000000
     6  H    0.199824  -0.000000
 Sum of Mulliken charges =  -0.00000   0.00000

 Dipole moment (field-independent basis, Debye):
    X=             -2.1571    Y=             -0.9246    Z=             -0.0012  Tot=              2.3469
 Quadrupole moment (field-independent basis, Debye-Ang):
   XX=            -21.1029   YY=            -19.3018   ZZ=            -23.2287
   XY=             -1.5058   XZ=             -0.0020   YZ=              0.0053

 Normal termination of Gaussian 16 at Mon Apr 21 19:35:01 2025.
