 Gaussian 16, Revision A.03,
 Gaussian 16:  ES64L-G16RevA.03 25-Dec-2016

 --------------------------------------------
 #p opt UM062X/6-311+G** nosymm int=superfine
 --------------------------------------------

 -------------------
 Title Card Required
 -------------------
 Symbolic Z-matrix:
 Charge =  0 Multiplicity = 1

 SCF Done:  E(UM062X) =  -797.388333227     A.U. after   19 cycles
 SCF Done:  E(UM062X) =  -797.388518257     A.U. after   17 cycles
 SCF Done:  E(UM062X) =  -797.388519959     A.U. after   16 cycles
 SCF Done:  E(UM062X) =  -797.388522683     A.U. after   12 cycles
 SCF Done:  E(UM062X) =  -797.388527455     A.U. after   17 cycles
 SCF Done:  E(UM062X) =  -797.388530383     A.U. after   12 cycles
 SCF Done:  E(UM062X) =  -797.388530641     A.U. after   12 cycles
 SCF Done:  E(UM062X) =  -797.388530665     A.U. after   16 cycles
 SCF Done:  E(UM062X) =  -797.388531642     A.U. after   16 cycles
 SCF Done:  E(UM062X) =  -797.388532060     A.U. after   12 cycles
 SCF Done:  E(UM062X) =  -797.388532104     A.U. after   12 cycles
 Optimization completed.
    -- Stationary point found.

                          Input orientation:
 ---------------------------------------------------------------------
 Center     Atomic      Atomic             Coordinates (Angstroms)
 Number     Number       Type             X           Y           Z
 ---------------------------------------------------------------------
      1         16           0       -2.218191    0.000000    0.000000
      2         16           0        2.218191    0.000000    0.000000
      3          1           0       -2.055136   -1.307012   -0.278590
      4          1           0        2.053198    0.300260    1.301985
 ---------------------------------------------------------------------

 Alpha  occ. eigenvalues --  -89.94431 -89.94430  -8.30681  -8.30680  -6.22825
 Alpha  occ. eigenvalues --   -6.22824  -6.22578  -6.22577  -6.22009  -6.22009
 Alpha  occ. eigenvalues --   -0.81431  -0.81159  -0.47374  -0.47348  -0.33430
 Alpha  occ. eigenvalues --   -0.33327  -0.30436
 Alpha virt. eigenvalues --   -0.22158   0.01831   0.03031   0.04422   0.04793
 Alpha virt. eigenvalues --    0.06583   0.06766   0.07203   0.07373   0.08786
 Alpha virt. eigenvalues --    0.12855   0.30720   0.31408   0.32450   0.35318

  Beta  occ. eigenvalues --  -89.94431 -89.94430  -8.30681  -8.30680  -6.22825
  Beta  occ. eigenvalues --   -6.22824  -6.22578  -6.22577  -6.22009  -6.22009
  Beta  occ. eigenvalues --   -0.81431  -0.81159  -0.47374  -0.47348  -0.33430
  Beta  occ. eigenvalues --   -0.33327  -0.30436
  Beta virt. eigenvalues --   -0.22158   0.01831   0.03031   0.04422   0.04793
  Beta virt. eigenvalues --    0.06583   0.06766   0.07203   0.07373   0.08786
  Beta virt. eigenvalues --    0.12855   0.30720   0.31408   0.32450   0.35318

 Mulliken charges and spin densities:
               1          2
     1  S   -0.081695   0.000000
     2  S   -0.081586   0.000000
     3  H    0.081632   0.000000
     4  H    0.081648   0.000000
 Sum of Mulliken charges =  -0.00000   0.00000

 Dipole moment (field-independent basis, Debye):
    X=             -0.0008    Y=             -0.8357    Z=              0.8498  Tot=              1.1919
 Quadrupole moment (field-independent basis, Debye-Ang):
   XX=            -25.8142   YY=            -28.0794   ZZ=            -28.1362
   XY=              2.8284   XZ=              2.7787   YZ=              1.6955

 Normal termination of Gaussian 16 at Mon Apr 21 23:01:12 2025.
