 Gaussian 16, Revision A.03,
 Gaussian 16:  ES64L-G16RevA.03 25-Dec-2016

 ---------------------------------------------------
 #p UM062X/6-311+G** force int=superfine pop=saveNBO
 ---------------------------------------------------

 -------------------
 Title Card Required
 -------------------
 Symbolic Z-matrix:
 Charge =  0 Multiplicity = 1

                         Standard orientation:
 ---------------------------------------------------------------------
 Center     Atomic      Atomic             Coordinates (Angstroms)
 Number     Number       Type             X           Y           Z
 ---------------------------------------------------------------------
      1         15           0        0.000000    0.000000    1.163495
      2         15           0        0.000000    0.000000   -1.163495
 ---------------------------------------------------------------------

 SCF Done:  E(UM062X) =  -682.580243223     A.U. after    9 cycles

 The electronic state is 1-SGG.
 Alpha  occ. eigenvalues --  -78.09231 -78.09231  -6.90973  -6.90967  -5.02370
 Alpha  occ. eigenvalues --   -5.02370  -5.02368  -5.02368  -5.02204  -5.02185
 Alpha  occ. eigenvalues --   -0.70610  -0.57264  -0.33986  -0.29976  -0.29976
 Alpha virt. eigenvalues --   -0.11115  -0.11115  -0.00670   0.02535   0.04364
 Alpha virt. eigenvalues --    0.04364   0.05148   0.05885   0.06852   0.06852
 Alpha virt. eigenvalues --    0.12557   0.28091   0.31089   0.31292   0.31292

  Beta  occ. eigenvalues --  -78.09231 -78.09231  -6.90973  -6.90967  -5.02370
  Beta  occ. eigenvalues --   -5.02370  -5.02368  -5.02368  -5.02204  -5.02185
  Beta  occ. eigenvalues --   -0.70610  -0.57264  -0.33986  -0.29976  -0.29976
  Beta virt. eigenvalues --   -0.11115  -0.11115  -0.00670   0.02535   0.04364
  Beta virt. eigenvalues --    0.04364   0.05148   0.05885   0.06852   0.06852
  Beta virt. eigenvalues --    0.12557   0.28091   0.31089   0.31292   0.31292

 Mulliken charges and spin densities:
               1          2
     1  P    0.000000  -0.000000
     2  P    0.000000  -0.000000
 Sum of Mulliken charges =   0.00000  -0.00000

 Dipole moment (field-independent basis, Debye):
    X=              0.0000    Y=             -0.0000    Z=              0.0000  Tot=              0.0000
 Quadrupole moment (field-independent basis, Debye-Ang):
   XX=            -27.8965   YY=            -27.8965   ZZ=            -25.8551
   XY=              0.0000   XZ=             -0.0000   YZ=              0.0000

 Summary of Natural Population Analysis:

                                       Natural Population
                Natural  -----------------------------------------------
    Atom  No    Charge         Core      Valence    Rydberg      Total
 -----------------------------------------------------------------------
      P    1    0.00000      4.99989     2.49097    0.00914     7.50000
      P    2    0.00000      4.99989     2.49097    0.00914     7.50000
 =======================================================================
   * Total *    0.00000      9.99978     4.98194    0.01829    15.00000

 Normal termination of Gaussian 16 at Mon Apr 21 21:20:14 2025.
