 Gaussian 16, Revision A.03,
 Gaussian 16:  ES64L-G16RevA.03 25-Dec-2016

 --------------------------------------------
 #p opt UM062X/6-311+G** nosymm int=superfine
 --------------------------------------------

 -------------------
 Title Card Required
 -------------------
 Symbolic Z-matrix:
 Charge =  0 Multiplicity = 1

 SCF Done:  E(UM062X) =  -79.5578927329     A.U. after   10 cycles
 SCF Done:  E(UM062X) =  -79.5622453827     A.U. after   10 cycles
 SCF Done:  E(UM062X) =  -79.5642631535     A.U. after   10 cycles
 SCF Done:  E(UM062X) =  -79.5642828412     A.U. after    9 cycles
 Optimization completed.
    -- Stationary point found.

                          Input orientation:
 ---------------------------------------------------------------------
 Center     Atomic      Atomic             Coordinates (Angstroms)
 Number     Number       Type             X           Y           Z
 ---------------------------------------------------------------------
      1          6           0       -2.146675    0.000000    0.000000
      2          6           0        2.146800    0.000000    0.000000
      3          1           0        2.187393   -0.933969    0.540438
      4          1           0       -2.187249   -0.935023   -0.538615
      5          1           0        2.187378    0.935023    0.538614
      6          1           0        2.187411   -0.001053   -1.079060
      7          1           0       -2.187268    0.933969   -0.540438
      8          1           0       -2.187291    0.001052    1.079060
 ---------------------------------------------------------------------

 Alpha  occ. eigenvalues --  -10.57260 -10.57260  -0.77188  -0.76983  -0.49403
 Alpha  occ. eigenvalues --   -0.49403  -0.49334  -0.49334  -0.21010
 Alpha virt. eigenvalues --   -0.12248   0.03064   0.04823   0.05261   0.05261
 Alpha virt. eigenvalues --    0.07250   0.07250   0.11007   0.12818   0.18760
 Alpha virt. eigenvalues --    0.18760   0.19873   0.19873   0.20985   0.25258

  Beta  occ. eigenvalues --  -10.57260 -10.57260  -0.77188  -0.76983  -0.49403
  Beta  occ. eigenvalues --   -0.49403  -0.49334  -0.49334  -0.21010
  Beta virt. eigenvalues --   -0.12248   0.03064   0.04823   0.05261   0.05261
  Beta virt. eigenvalues --    0.07250   0.07250   0.11007   0.12818   0.18760
  Beta virt. eigenvalues --    0.18760   0.19873   0.19873   0.20985   0.25258

 Mulliken charges and spin densities:
               1          2
     1  C   -0.521238   0.000002
     2  C   -0.521238  -0.000002
     3  H    0.173746   0.000000
     4  H    0.173746  -0.000000
     5  H    0.173746   0.000000
     6  H    0.173745   0.000000
     7  H    0.173746  -0.000000
     8  H    0.173745  -0.000000
 Sum of Mulliken charges =  -0.00000  -0.00000

 Dipole moment (field-independent basis, Debye):
    X=             -0.0000    Y=             -0.0000    Z=             -0.0000  Tot=              0.0000
 Quadrupole moment (field-independent basis, Debye-Ang):
   XX=            -16.1560   YY=            -14.8849   ZZ=            -14.8850
   XY=             -0.0000   XZ=             -0.0001   YZ=             -0.0000

 Normal termination of Gaussian 16 at Tue Dec  3 10:10:43 2024.
