 Gaussian 16, Revision A.03,
 Gaussian 16:  ES64L-G16RevA.03 25-Dec-2016

 --------------------------------------------
 #p opt UM062X/6-311+G** nosymm int=superfine
 --------------------------------------------

 -------------------
 Title Card Required
 -------------------
 Symbolic Z-matrix:
 Charge =  1 Multiplicity = 3

 SCF Done:  E(UM062X) =  -54.0487590842     A.U. after   10 cycles

 Alpha  occ. eigenvalues --  -15.49946  -1.41360  -0.95518  -0.95518
 Alpha virt. eigenvalues --   -0.63906  -0.16879  -0.11297  -0.11264  -0.11257
 Alpha virt. eigenvalues --    0.41829   0.41831   0.43862   0.54271   1.43439
 Alpha virt. eigenvalues --    1.43439   1.44138   1.44138   1.45267   3.21421

  Beta  occ. eigenvalues --  -15.46132  -1.24083
  Beta virt. eigenvalues --   -0.58431  -0.53174  -0.53174  -0.17780  -0.10519
  Beta virt. eigenvalues --   -0.09048  -0.09048   0.41752   0.43015   0.43016
  Beta virt. eigenvalues --    0.56028   1.47718   1.48860   1.48860   1.52429

 Mulliken charges and spin densities:
               1          2
     1  N    1.000000   2.000000
 Sum of Mulliken charges =   1.00000   2.00000

 Dipole moment (field-independent basis, Debye):
    X=             -0.0000    Y=             -0.0000    Z=              0.0000  Tot=              0.0000
 Quadrupole moment (field-independent basis, Debye-Ang):
   XX=             -2.8590   YY=             -3.8563   ZZ=             -3.8537
   XY=             -0.0940   XZ=             -0.1074   YZ=              0.0100

 Optimization completed.
    -- Stationary point found.

                          Input orientation:
 ---------------------------------------------------------------------
 Center     Atomic      Atomic             Coordinates (Angstroms)
 Number     Number       Type             X           Y           Z
 ---------------------------------------------------------------------
      1          7           0        0.000000    0.000000    0.000000
 ---------------------------------------------------------------------

 Normal termination of Gaussian 16 at Wed Feb 26 15:38:24 2025.
