 Gaussian 16, Revision A.03,
 Gaussian 16:  ES64L-G16RevA.03 25-Dec-2016

 --------------------------------------------
 #p opt UM062X/6-311+G** nosymm int=superfine
 --------------------------------------------

 -------------------
 Title Card Required
 -------------------
 Symbolic Z-matrix:
 Charge =  0 Multiplicity = 1

 SCF Done:  E(UM062X) =  -380.927070492     A.U. after   18 cycles
 SCF Done:  E(UM062X) =  -380.930073395     A.U. after   17 cycles
 SCF Done:  E(UM062X) =  -380.931053170     A.U. after   18 cycles
 SCF Done:  E(UM062X) =  -380.931079075     A.U. after   15 cycles
 SCF Done:  E(UM062X) =  -380.931259696     A.U. after   17 cycles
 SCF Done:  E(UM062X) =  -380.931321373     A.U. after   19 cycles
 SCF Done:  E(UM062X) =  -380.931341426     A.U. after   17 cycles
 SCF Done:  E(UM062X) =  -380.931345699     A.U. after   21 cycles
 SCF Done:  E(UM062X) =  -380.931346053     A.U. after   17 cycles
 SCF Done:  E(UM062X) =  -380.931346206     A.U. after   14 cycles
 SCF Done:  E(UM062X) =  -380.931351670     A.U. after   20 cycles
 SCF Done:  E(UM062X) =  -380.930937425     A.U. after   19 cycles
 SCF Done:  E(UM062X) =  -380.931319358     A.U. after   28 cycles
 SCF Done:  E(UM062X) =  -380.931352891     A.U. after   17 cycles
 SCF Done:  E(UM062X) =  -380.931352327     A.U. after   15 cycles
 SCF Done:  E(UM062X) =  -380.931355584     A.U. after   22 cycles
 SCF Done:  E(UM062X) =  -380.931356378     A.U. after   25 cycles
 SCF Done:  E(UM062X) =  -380.931356535     A.U. after   17 cycles
 SCF Done:  E(UM062X) =  -380.931356552     A.U. after   14 cycles
 SCF Done:  E(UM062X) =  -380.931356552     A.U. after   17 cycles
 Optimization completed.
    -- Stationary point found.

                          Input orientation:
 ---------------------------------------------------------------------
 Center     Atomic      Atomic             Coordinates (Angstroms)
 Number     Number       Type             X           Y           Z
 ---------------------------------------------------------------------
      1          6           0       -2.205452    0.000000    0.000000
      2         15           0        2.205452    0.000000    0.000000
      3          1           0       -2.934426   -0.832915    0.044345
      4          1           0        1.889359   -1.383264   -0.076440
      5          1           0       -2.861828    0.891364   -0.040609
 ---------------------------------------------------------------------

 Alpha  occ. eigenvalues --  -78.04699 -10.61941  -6.86968  -4.98983  -4.98207
 Alpha  occ. eigenvalues --   -4.97744  -0.76669  -0.65822  -0.48696  -0.38484
 Alpha  occ. eigenvalues --   -0.32597  -0.24612
 Alpha virt. eigenvalues --   -0.11548  -0.09199   0.01491   0.03660   0.04581
 Alpha virt. eigenvalues --    0.05968   0.06911   0.07222   0.08770   0.10286
 Alpha virt. eigenvalues --    0.13426   0.17400   0.18934   0.31256   0.33261

  Beta  occ. eigenvalues --  -78.04699 -10.61941  -6.86968  -4.98983  -4.98207
  Beta  occ. eigenvalues --   -4.97744  -0.76669  -0.65822  -0.48696  -0.38484
  Beta  occ. eigenvalues --   -0.32597  -0.24612
  Beta virt. eigenvalues --   -0.11548  -0.09199   0.01491   0.03660   0.04581
  Beta virt. eigenvalues --    0.05968   0.06911   0.07222   0.08770   0.10286
  Beta virt. eigenvalues --    0.13426   0.17400   0.18934   0.31256   0.33261

 Mulliken charges and spin densities:
               1          2
     1  C   -0.280233  -0.000000
     2  P    0.041188   0.000000
     3  H    0.135919  -0.000000
     4  H   -0.032668  -0.000000
     5  H    0.135795   0.000000
 Sum of Mulliken charges =  -0.00000  -0.00000

 Dipole moment (field-independent basis, Debye):
    X=             -2.4670    Y=             -0.5841    Z=             -0.0314  Tot=              2.5354
 Quadrupole moment (field-independent basis, Debye-Ang):
   XX=            -12.1064   YY=            -21.3128   ZZ=            -25.2153
   XY=             -2.2780   XZ=             -0.1120   YZ=              0.2867

 Normal termination of Gaussian 16 at Mon Apr 21 19:26:44 2025.
