 Gaussian 16, Revision A.03,
 Gaussian 16:  ES64L-G16RevA.03 25-Dec-2016

 ---------------------------------------
 #p UM062X/6-311+G** force int=superfine
 ---------------------------------------

 -------------------
 Title Card Required
 -------------------
 Symbolic Z-matrix:
 Charge =  0 Multiplicity = 1

                         Standard orientation:
 ---------------------------------------------------------------------
 Center     Atomic      Atomic             Coordinates (Angstroms)
 Number     Number       Type             X           Y           Z
 ---------------------------------------------------------------------
      1          6           0        0.000000    0.742417    0.000000
      2          6           0       -0.000000   -0.742417    0.000000
      3          1           0       -0.936661    1.283078    0.000000
      4          1           0        0.936615    1.283160    0.000000
      5          1           0        0.936661   -1.283078    0.000000
      6          1           0       -0.936615   -1.283160    0.000000
 ---------------------------------------------------------------------

 SCF Done:  E(UM062X) =  -78.5415894430     A.U. after    8 cycles

 The electronic state is 1-AG.
 Alpha  occ. eigenvalues --  -10.56216 -10.56163  -0.82935  -0.67744  -0.53545
 Alpha  occ. eigenvalues --   -0.46177  -0.44334  -0.31070
 Alpha virt. eigenvalues --    0.00167   0.03389   0.03905   0.05269   0.07947
 Alpha virt. eigenvalues --    0.08118   0.09716   0.12475   0.15943   0.17065
 Alpha virt. eigenvalues --    0.20489   0.22071   0.30328   0.30932   0.42628

  Beta  occ. eigenvalues --  -10.56216 -10.56163  -0.82935  -0.67744  -0.53545
  Beta  occ. eigenvalues --   -0.46177  -0.44334  -0.31070
  Beta virt. eigenvalues --    0.00167   0.03389   0.03905   0.05269   0.07947
  Beta virt. eigenvalues --    0.08118   0.09716   0.12475   0.15943   0.17065
  Beta virt. eigenvalues --    0.20489   0.22071   0.30328   0.30932   0.42628

 Mulliken charges and spin densities:
               1          2
     1  C   -0.314320  -0.000000
     2  C   -0.314320  -0.000000
     3  H    0.157157   0.000000
     4  H    0.157163   0.000000
     5  H    0.157157   0.000000
     6  H    0.157163   0.000000
 Sum of Mulliken charges =  -0.00000   0.00000

 Dipole moment (field-independent basis, Debye):
    X=             -0.0000    Y=              0.0000    Z=              0.0000  Tot=              0.0000
 Quadrupole moment (field-independent basis, Debye-Ang):
   XX=            -12.2764   YY=            -12.0829   ZZ=            -16.5538
   XY=              0.0002   XZ=              0.0000   YZ=              0.0000

 Normal termination of Gaussian 16 at Tue Nov 19 11:45:28 2024.
