 Gaussian 16, Revision A.03,
 Gaussian 16:  ES64L-G16RevA.03 25-Dec-2016

 --------------------------------------------
 #p opt UM062X/6-311+G** nosymm int=superfine
 --------------------------------------------

 -------------------
 Title Card Required
 -------------------
 Symbolic Z-matrix:
 Charge =  1 Multiplicity = 2

 SCF Done:  E(UM062X) =  -79.3280391558     A.U. after   12 cycles
 SCF Done:  E(UM062X) =  -79.3505277195     A.U. after   13 cycles
 SCF Done:  E(UM062X) =  -79.3531933423     A.U. after   11 cycles
 SCF Done:  E(UM062X) =  -79.3532717136     A.U. after   10 cycles
 SCF Done:  E(UM062X) =  -79.3533248540     A.U. after    9 cycles
 SCF Done:  E(UM062X) =  -79.3563321955     A.U. after   12 cycles
 SCF Done:  E(UM062X) =  -79.3585894506     A.U. after   13 cycles
 SCF Done:  E(UM062X) =  -79.3551709230     A.U. after   15 cycles
 SCF Done:  E(UM062X) =  -79.3632587188     A.U. after   12 cycles
 SCF Done:  E(UM062X) =  -79.3631021598     A.U. after   12 cycles
 SCF Done:  E(UM062X) =  -79.3699349724     A.U. after   13 cycles
 SCF Done:  E(UM062X) =  -79.3660080098     A.U. after   13 cycles
 SCF Done:  E(UM062X) =  -79.3714672530     A.U. after   12 cycles
 SCF Done:  E(UM062X) =  -79.3703273253     A.U. after   12 cycles
 SCF Done:  E(UM062X) =  -79.3716733438     A.U. after   11 cycles
 SCF Done:  E(UM062X) =  -79.3717323938     A.U. after   10 cycles
 SCF Done:  E(UM062X) =  -79.3717340183     A.U. after   10 cycles
 SCF Done:  E(UM062X) =  -79.3717359823     A.U. after    9 cycles
 SCF Done:  E(UM062X) =  -79.3717361369     A.U. after    7 cycles
 SCF Done:  E(UM062X) =  -79.3717362401     A.U. after    7 cycles
 Optimization completed.
    -- Stationary point found.

                          Input orientation:
 ---------------------------------------------------------------------
 Center     Atomic      Atomic             Coordinates (Angstroms)
 Number     Number       Type             X           Y           Z
 ---------------------------------------------------------------------
      1          6           0       -0.813203    0.000000    0.000000
      2          6           0        0.813203    0.000000    0.000000
      3          1           0        1.258621   -0.916608    0.372487
      4          1           0       -1.258518   -0.926248   -0.348026
      5          1           0        1.258820    0.926020    0.348273
      6          1           0        0.663901   -0.014466   -1.122855
      7          1           0       -1.258909    0.916298   -0.372965
      8          1           0       -0.664328    0.015553    1.122853
 ---------------------------------------------------------------------

 Alpha  occ. eigenvalues --  -10.85616 -10.85590  -1.16878  -0.99378  -0.82688
 Alpha  occ. eigenvalues --   -0.80314  -0.75211  -0.71650  -0.64386
 Alpha virt. eigenvalues --   -0.17329  -0.13563  -0.11999  -0.11627  -0.10346
 Alpha virt. eigenvalues --   -0.07646  -0.07029  -0.06471  -0.05715  -0.01823
 Alpha virt. eigenvalues --   -0.00786  -0.00426   0.02380   0.03567   0.03758

  Beta  occ. eigenvalues --  -10.85373 -10.85352  -1.13899  -0.96365  -0.79473
  Beta  occ. eigenvalues --   -0.78116  -0.73677  -0.71070
  Beta virt. eigenvalues --   -0.42149  -0.16978  -0.13346  -0.11485  -0.11469
  Beta virt. eigenvalues --   -0.09991  -0.07748  -0.06538  -0.05493  -0.04322
  Beta virt. eigenvalues --   -0.01416  -0.00372   0.00135   0.03019   0.04248

 Mulliken charges and spin densities:
               1          2
     1  C   -0.350471   0.410397
     2  C   -0.350287   0.410650
     3  H    0.276179  -0.019084
     4  H    0.276163  -0.019074
     5  H    0.276173  -0.019075
     6  H    0.298043   0.127627
     7  H    0.276168  -0.019061
     8  H    0.298033   0.127620
 Sum of Mulliken charges =   1.00000   1.00000

 Dipole moment (field-independent basis, Debye):
    X=              0.0001    Y=              0.0007    Z=             -0.0003  Tot=              0.0007
 Quadrupole moment (field-independent basis, Debye-Ang):
   XX=             -7.9948   YY=            -10.8471   ZZ=            -10.1435
   XY=             -0.0014   XZ=             -0.0904   YZ=              0.0095

 Normal termination of Gaussian 16 at Wed Nov 13 13:21:01 2024.
