 Gaussian 16, Revision A.03,
 Gaussian 16:  ES64L-G16RevA.03 25-Dec-2016

 --------------------------------------------
 #p opt UM062X/6-311+G** nosymm int=superfine
 --------------------------------------------

 -------------------
 Title Card Required
 -------------------
 Symbolic Z-matrix:
 Charge =  0 Multiplicity = 1

 SCF Done:  E(UM062X) =  -79.6590178497     A.U. after   10 cycles
 SCF Done:  E(UM062X) =  -79.6593171608     A.U. after    8 cycles
 SCF Done:  E(UM062X) =  -79.6593735182     A.U. after    9 cycles
 Optimization completed.
    -- Stationary point found.

                          Input orientation:
 ---------------------------------------------------------------------
 Center     Atomic      Atomic             Coordinates (Angstroms)
 Number     Number       Type             X           Y           Z
 ---------------------------------------------------------------------
      1          6           0       -1.321675    0.000000    0.000000
      2          6           0        1.321800    0.000000    0.000000
      3          1           0        1.499544   -0.923068    0.534126
      4          1           0       -1.499412   -0.924110   -0.532324
      5          1           0        1.499540    0.924110    0.532323
      6          1           0        1.499497   -0.001040   -1.066473
      7          1           0       -1.499418    0.923068   -0.534126
      8          1           0       -1.499374    0.001040    1.066472
 ---------------------------------------------------------------------

 Alpha  occ. eigenvalues --  -10.56147 -10.56143  -0.77139  -0.74796  -0.48396
 Alpha  occ. eigenvalues --   -0.48395  -0.47050  -0.47049  -0.26653
 Alpha virt. eigenvalues --   -0.03962   0.02664   0.05457   0.05457   0.06351
 Alpha virt. eigenvalues --    0.08101   0.08101   0.10435   0.12767   0.18213
 Alpha virt. eigenvalues --    0.18213   0.21839   0.21839   0.24331   0.25771

  Beta  occ. eigenvalues --  -10.56147 -10.56143  -0.77139  -0.74796  -0.48396
  Beta  occ. eigenvalues --   -0.48395  -0.47050  -0.47049  -0.26653
  Beta virt. eigenvalues --   -0.03962   0.02664   0.05457   0.05457   0.06351
  Beta virt. eigenvalues --    0.08101   0.08101   0.10435   0.12767   0.18213
  Beta virt. eigenvalues --    0.18213   0.21839   0.21839   0.24331   0.25771

 Mulliken charges and spin densities:
               1          2
     1  C   -0.515627  -0.000000
     2  C   -0.515627   0.000000
     3  H    0.171875  -0.000000
     4  H    0.171875   0.000000
     5  H    0.171875  -0.000000
     6  H    0.171877  -0.000000
     7  H    0.171875   0.000000
     8  H    0.171877   0.000000
 Sum of Mulliken charges =  -0.00000   0.00000

 Dipole moment (field-independent basis, Debye):
    X=             -0.0000    Y=             -0.0000    Z=             -0.0000  Tot=              0.0000
 Quadrupole moment (field-independent basis, Debye-Ang):
   XX=            -15.5016   YY=            -14.7917   ZZ=            -14.7918
   XY=             -0.0000   XZ=              0.0001   YZ=             -0.0000

 Normal termination of Gaussian 16 at Tue Dec  3 09:58:18 2024.
