 Gaussian 16, Revision A.03,
 Gaussian 16:  ES64L-G16RevA.03 25-Dec-2016

 ---------------------------------------
 #p UM062X/6-311+G** force int=superfine
 ---------------------------------------

 -------------------
 Title Card Required
 -------------------
 Symbolic Z-matrix:
 Charge =  1 Multiplicity = 2

                         Standard orientation:
 ---------------------------------------------------------------------
 Center     Atomic      Atomic             Coordinates (Angstroms)
 Number     Number       Type             X           Y           Z
 ---------------------------------------------------------------------
      1          6           0        0.625312    0.836342   -1.652195
      2          6           0       -0.625315   -0.836337    1.652196
      3          1           0       -1.543514   -1.158093    1.175004
      4          1           0        0.591690   -0.111721   -2.176000
      5          1           0       -0.591792    0.111246    2.176879
      6          1           0        0.233254   -1.497180    1.673859
      7          1           0        1.543436    1.158299   -1.174992
      8          1           0       -0.233057    1.497418   -1.674758
 ---------------------------------------------------------------------

 SCF Done:  E(UM062X) =  -79.3187731083     A.U. after   10 cycles

 The electronic state is 2-A.
 Alpha  occ. eigenvalues --  -10.83626 -10.83625  -1.02187  -1.01825  -0.73228
 Alpha  occ. eigenvalues --   -0.73228  -0.73102  -0.73101  -0.47717
 Alpha virt. eigenvalues --   -0.37549  -0.12801  -0.10169  -0.09480  -0.09480
 Alpha virt. eigenvalues --   -0.06223  -0.06222  -0.04390  -0.02964  -0.00162
 Alpha virt. eigenvalues --   -0.00160   0.01353   0.01355   0.02774   0.08646

  Beta  occ. eigenvalues --  -10.83408 -10.83408  -0.99531  -0.99300  -0.72708
  Beta  occ. eigenvalues --   -0.72707  -0.72563  -0.72562
  Beta virt. eigenvalues --   -0.32679  -0.26623  -0.16522  -0.10916  -0.10916
  Beta virt. eigenvalues --   -0.10215  -0.06221  -0.06221  -0.05192  -0.02013
  Beta virt. eigenvalues --   -0.00419  -0.00416   0.01616   0.01618   0.02530

 Mulliken charges and spin densities:
               1          2
     1  C   -0.252017   0.557134
     2  C   -0.252016   0.557135
     3  H    0.250702  -0.019030
     4  H    0.250651  -0.019046
     5  H    0.250671  -0.019049
     6  H    0.250643  -0.019056
     7  H    0.250703  -0.019030
     8  H    0.250663  -0.019058
 Sum of Mulliken charges =   1.00000   1.00000

 Dipole moment (field-independent basis, Debye):
    X=              0.0000    Y=             -0.0001    Z=             -0.0000  Tot=              0.0001
 Quadrupole moment (field-independent basis, Debye-Ang):
   XX=             -9.2560   YY=             -7.7932   ZZ=              1.8374
   XY=              2.4823   XZ=             -4.9029   YZ=             -6.5561

 Normal termination of Gaussian 16 at Wed Nov 13 13:06:18 2024.
