 Gaussian 16, Revision A.03,
 Gaussian 16:  ES64L-G16RevA.03 25-Dec-2016

 ---------------------------------------
 #p UM062X/6-311+G** force int=superfine
 ---------------------------------------

 -------------------
 Title Card Required
 -------------------
 Symbolic Z-matrix:
 Charge =  1 Multiplicity = 2

                         Standard orientation:
 ---------------------------------------------------------------------
 Center     Atomic      Atomic             Coordinates (Angstroms)
 Number     Number       Type             X           Y           Z
 ---------------------------------------------------------------------
      1          6           0        0.010014    0.104357   -1.093523
      2          6           0       -0.010024   -0.104350    1.093524
      3          1           0       -0.638283   -0.988533    1.114218
      4          1           0        0.458027   -0.863540   -1.291972
      5          1           0       -0.457881    0.863555    1.292287
      6          1           0        1.063192   -0.219372    1.202613
      7          1           0        0.638191    0.988597   -1.114228
      8          1           0       -1.063185    0.219251   -1.202921
 ---------------------------------------------------------------------

 SCF Done:  E(UM062X) =  -79.3660911830     A.U. after    9 cycles

 The electronic state is 2-A.
 Alpha  occ. eigenvalues --  -10.85973 -10.85965  -1.08834  -1.01959  -0.77789
 Alpha  occ. eigenvalues --   -0.77788  -0.74028  -0.74028  -0.60703
 Alpha virt. eigenvalues --   -0.27319  -0.16096  -0.10962  -0.10962  -0.09924
 Alpha virt. eigenvalues --   -0.06931  -0.06317  -0.06316  -0.05004  -0.05002
 Alpha virt. eigenvalues --   -0.02308   0.01674   0.01677   0.04747   0.07318

  Beta  occ. eigenvalues --  -10.85762 -10.85761  -1.05473  -0.99190  -0.76901
  Beta  occ. eigenvalues --   -0.76900  -0.73303  -0.73302
  Beta virt. eigenvalues --   -0.37775  -0.19611  -0.15928  -0.11086  -0.11086
  Beta virt. eigenvalues --   -0.08831  -0.07055  -0.06604  -0.06603  -0.04630
  Beta virt. eigenvalues --   -0.04628  -0.01485   0.02244   0.02246   0.05196

 Mulliken charges and spin densities:
               1          2
     1  C   -0.308739   0.559811
     2  C   -0.308739   0.559811
     3  H    0.269592  -0.019947
     4  H    0.269566  -0.019927
     5  H    0.269579  -0.019933
     6  H    0.269568  -0.019930
     7  H    0.269593  -0.019947
     8  H    0.269580  -0.019936
 Sum of Mulliken charges =   1.00000   1.00000

 Dipole moment (field-independent basis, Debye):
    X=              0.0000    Y=             -0.0000    Z=             -0.0000  Tot=              0.0000
 Quadrupole moment (field-independent basis, Debye-Ang):
   XX=            -10.8311   YY=            -10.7837   ZZ=             -5.6033
   XY=              0.0046   XZ=             -0.0483   YZ=             -0.4995

 Normal termination of Gaussian 16 at Wed Nov 13 13:44:45 2024.
