 Gaussian 16, Revision A.03,
 Gaussian 16:  ES64L-G16RevA.03 25-Dec-2016

 ---------------------------------------
 #p UM062X/6-311+G** force int=superfine
 ---------------------------------------

 -------------------
 Title Card Required
 -------------------
 Symbolic Z-matrix:
 Charge =  1 Multiplicity = 2

                         Standard orientation:
 ---------------------------------------------------------------------
 Center     Atomic      Atomic             Coordinates (Angstroms)
 Number     Number       Type             X           Y           Z
 ---------------------------------------------------------------------
      1          7           0        0.000000    0.000000    0.955391
      2          7           0        0.000000    0.000000   -0.955391
 ---------------------------------------------------------------------

 SCF Done:  E(UM062X) =  -108.608622645     A.U. after   10 cycles

 Unable to determine electronic state:  an orbital has unidentified symmetry.
 Alpha  occ. eigenvalues --  -15.37681 -15.37659  -1.32828  -1.19228  -0.80100
 Alpha  occ. eigenvalues --   -0.77036  -0.74406
 Alpha virt. eigenvalues --   -0.56412  -0.53723  -0.43559  -0.13806  -0.09238
 Alpha virt. eigenvalues --   -0.08984  -0.08836  -0.03988  -0.03091  -0.02812
 Alpha virt. eigenvalues --    0.06033   0.43261   0.44981   0.50452   0.53589

  Beta  occ. eigenvalues --  -15.37244 -15.37227  -1.28928  -1.15874  -0.78298
  Beta  occ. eigenvalues --   -0.72628
  Beta virt. eigenvalues --   -0.52545  -0.51949  -0.45433  -0.41742  -0.15400
  Beta virt. eigenvalues --   -0.09803  -0.09391  -0.09222  -0.04750  -0.03297
  Beta virt. eigenvalues --   -0.03130   0.04650   0.44988   0.45235   0.50267

 Mulliken charges and spin densities:
               1          2
     1  N    0.500000   0.500000
     2  N    0.500000   0.500000
 Sum of Mulliken charges =   1.00000   1.00000

 Dipole moment (field-independent basis, Debye):
    X=              0.0000    Y=             -0.0000    Z=             -0.0000  Tot=              0.0000
 Quadrupole moment (field-independent basis, Debye-Ang):
   XX=             -8.3823   YY=             -9.8260   ZZ=             -4.5806
   XY=              0.0000   XZ=             -0.0000   YZ=              0.0000

 Optimization completed.
    -- Stationary point found.
 Normal termination of Gaussian 16 at Wed Feb 26 13:43:44 2025.
