 Gaussian 16, Revision A.03,
 Gaussian 16:  ES64L-G16RevA.03 25-Dec-2016

 ---------------------------------------------------
 #p UM062X/6-311+G** force int=superfine pop=saveNBO
 ---------------------------------------------------

 -------------------
 Title Card Required
 -------------------
 Symbolic Z-matrix:
 Charge =  0 Multiplicity = 1

                         Standard orientation:
 ---------------------------------------------------------------------
 Center     Atomic      Atomic             Coordinates (Angstroms)
 Number     Number       Type             X           Y           Z
 ---------------------------------------------------------------------
      1          6           0        0.000000    0.000000   -2.275340
      2         16           0        0.000000    0.000000    0.853252
 ---------------------------------------------------------------------

 SCF Done:  E(UM062X) =  -435.849566664     A.U. after   20 cycles

 The electronic state is 1-SG.
 Alpha  occ. eigenvalues --  -89.92439 -10.78505  -8.28411  -6.21033  -6.19715
 Alpha  occ. eigenvalues --   -6.19715  -0.73244  -0.69419  -0.33642  -0.30239
 Alpha  occ. eigenvalues --   -0.30239
 Alpha virt. eigenvalues --   -0.15706  -0.15706  -0.14593   0.03096   0.05319
 Alpha virt. eigenvalues --    0.05867   0.05867   0.08737   0.08737   0.08830
 Alpha virt. eigenvalues --    0.14275   0.36480   0.36480   0.37106   0.51346

  Beta  occ. eigenvalues --  -89.92439 -10.78505  -8.28411  -6.21033  -6.19715
  Beta  occ. eigenvalues --   -6.19715  -0.73244  -0.69419  -0.33642  -0.30239
  Beta  occ. eigenvalues --   -0.30239
  Beta virt. eigenvalues --   -0.15706  -0.15706  -0.14593   0.03096   0.05319
  Beta virt. eigenvalues --    0.05867   0.05867   0.08737   0.08737   0.08830
  Beta virt. eigenvalues --    0.14275   0.36480   0.36480   0.37106   0.51346

 Mulliken charges and spin densities:
               1          2
     1  C    0.177906   0.000000
     2  S   -0.177906  -0.000000
 Sum of Mulliken charges =  -0.00000   0.00000

 Dipole moment (field-independent basis, Debye):
    X=              0.0000    Y=              0.0000    Z=             -2.6705  Tot=              2.6705
 Quadrupole moment (field-independent basis, Debye-Ang):
   XX=            -20.7848   YY=            -20.7848   ZZ=            -14.5867
   XY=              0.0000   XZ=              0.0000   YZ=              0.0000

 Summary of Natural Population Analysis:

                                       Natural Population
                Natural  -----------------------------------------------
    Atom  No    Charge         Core      Valence    Rydberg      Total
 -----------------------------------------------------------------------
      C    1    0.12666      1.00000     1.87279    0.00055     2.87334
      S    2   -0.12666      4.99999     3.12507    0.00159     8.12666
 =======================================================================
   * Total *    0.00000      5.99999     4.99786    0.00214    11.00000

 Normal termination of Gaussian 16 at Mon Apr 21 19:46:00 2025.
