 Gaussian 16, Revision A.03,
 Gaussian 16:  ES64L-G16RevA.03 25-Dec-2016

 --------------------------------
 #p UM062X/6-311+G** Pop=NBO Read
 --------------------------------

 ------------
 NBO Analysis
 ------------
 Symbolic Z-matrix:
 Charge =  1 Multiplicity = 2

                         Standard orientation:
 ---------------------------------------------------------------------
 Center     Atomic      Atomic             Coordinates (Angstroms)
 Number     Number       Type             X           Y           Z
 ---------------------------------------------------------------------
      1         14           0        1.376292   -0.000035   -0.000009
      2         14           0       -1.376292    0.000020    0.000019
      3          1           0       -1.574399   -0.733777   -1.255257
      4          1           0        1.573695    0.720336   -1.263160
      5          1           0       -1.574307   -0.720143    1.263186
      6          1           0       -1.573405    1.454169   -0.007846
      7          1           0        1.574431    0.733730    1.255280
      8          1           0        1.573988   -1.454101    0.007655
 ---------------------------------------------------------------------

 SCF Done:  E(UM062X) =  -582.121990540     A.U. after   11 cycles

 The electronic state is 2-A.
 Alpha  occ. eigenvalues --  -67.26447 -67.26446  -5.80040  -5.80040  -4.11564
 Alpha  occ. eigenvalues --   -4.11560  -4.10710  -4.10710  -4.10710  -4.10710
 Alpha  occ. eigenvalues --   -0.86614  -0.81261  -0.64776  -0.64774  -0.62644
 Alpha  occ. eigenvalues --   -0.62643  -0.52774
 Alpha virt. eigenvalues --   -0.21124  -0.16647  -0.11440  -0.11204  -0.11200
 Alpha virt. eigenvalues --   -0.09778  -0.09313  -0.09313  -0.09230  -0.09227
 Alpha virt. eigenvalues --   -0.06354  -0.06354  -0.06228  -0.02001   0.02696

  Beta  occ. eigenvalues --  -67.26185 -67.26184  -5.79964  -5.79960  -4.10856
  Beta  occ. eigenvalues --   -4.10855  -4.10626  -4.10626  -4.10625  -4.10625
  Beta  occ. eigenvalues --   -0.83831  -0.79552  -0.64159  -0.64158  -0.62185
  Beta  occ. eigenvalues --   -0.62185
  Beta virt. eigenvalues --   -0.34521  -0.17880  -0.15851  -0.10687  -0.10684
  Beta virt. eigenvalues --   -0.10620  -0.09719  -0.09077  -0.09074  -0.08339
  Beta virt. eigenvalues --   -0.08338  -0.05966  -0.05966  -0.03922  -0.01095

 Mulliken charges and spin densities:
               1          2
     1  Si   0.539282   0.507465
     2  Si   0.539282   0.507465
     3  H   -0.013083  -0.002518
     4  H   -0.013104  -0.002478
     5  H   -0.013088  -0.002499
     6  H   -0.013111  -0.002447
     7  H   -0.013082  -0.002519
     8  H   -0.013096  -0.002467
 Sum of Mulliken charges =   1.00000   1.00000

 Dipole moment (field-independent basis, Debye):
    X=             -0.0000    Y=             -0.0001    Z=              0.0001  Tot=              0.0001
 Quadrupole moment (field-independent basis, Debye-Ang):
   XX=            -12.5396   YY=            -25.6033   ZZ=            -25.6035
   XY=             -0.0006   XZ=             -0.0002   YZ=              0.0000

 Summary of Natural Population Analysis:

                                       Natural Population
                Natural  -----------------------------------------------
    Atom  No    Charge         Core      Valence    Rydberg      Total
 -----------------------------------------------------------------------
     Si    1    0.63962      4.99863     1.34556    0.01619     6.36038
     Si    2    0.63962      4.99863     1.34556    0.01619     6.36038
      H    3   -0.04655      0.00000     0.54615    0.00040     0.54655
      H    4   -0.04654      0.00000     0.54614    0.00040     0.54654
      H    5   -0.04655      0.00000     0.54614    0.00040     0.54655
      H    6   -0.04652      0.00000     0.54612    0.00040     0.54652
      H    7   -0.04655      0.00000     0.54615    0.00040     0.54655
      H    8   -0.04653      0.00000     0.54613    0.00040     0.54653
 =======================================================================
   * Total *    1.00000      9.99727     5.96795    0.03478    16.00000

 Normal termination of Gaussian 16 at Wed Apr 16 05:46:59 2025.
