 Gaussian 16, Revision A.03,
 Gaussian 16:  ES64L-G16RevA.03 25-Dec-2016

 ----------------------------------------------------------------------
 #p opt UM062X/6-311+G** nosymm int=superfine SCF=(MaxCycle=200,NoVarAc
 c,noincfock) guess=read
 ----------------------------------------------------------------------

 -------------------
 Title Card Required
 -------------------
 Symbolic Z-matrix:
 Charge =  0 Multiplicity = 1

 SCF Done:  E(UM062X) =  -151.304379083     A.U. after   21 cycles
 SCF Done:  E(UM062X) =  -151.304874437     A.U. after   18 cycles
 SCF Done:  E(UM062X) =  -151.305532365     A.U. after   19 cycles
 SCF Done:  E(UM062X) =  -151.306180589     A.U. after   19 cycles
 SCF Done:  E(UM062X) =  -151.306586549     A.U. after   20 cycles
 SCF Done:  E(UM062X) =  -151.306789095     A.U. after   18 cycles
 SCF Done:  E(UM062X) =  -151.306829026     A.U. after   31 cycles
 SCF Done:  E(UM062X) =  -151.306845788     A.U. after   18 cycles
 SCF Done:  E(UM062X) =  -151.306848851     A.U. after   17 cycles
 Optimization completed.
    -- Stationary point found.

                          Input orientation:
 ---------------------------------------------------------------------
 Center     Atomic      Atomic             Coordinates (Angstroms)
 Number     Number       Type             X           Y           Z
 ---------------------------------------------------------------------
      1          8           0       -1.911938    0.000000    0.000000
      2          8           0        1.911938    0.000000    0.000000
      3          1           0       -1.719644   -0.758916   -0.579093
      4          1           0        1.719920    0.758504    0.579735
 ---------------------------------------------------------------------

 Alpha  occ. eigenvalues --  -19.72377 -19.72376  -1.12964  -1.12791  -0.56736
 Alpha  occ. eigenvalues --   -0.56648  -0.44165  -0.44049  -0.36027
 Alpha virt. eigenvalues --   -0.27326   0.05078   0.07430   0.15110   0.15191
 Alpha virt. eigenvalues --    0.16832   0.18187   0.19619   0.20047   0.20421
 Alpha virt. eigenvalues --    0.30684   0.49138   0.51018   0.99650   1.00965

  Beta  occ. eigenvalues --  -19.72377 -19.72376  -1.12964  -1.12791  -0.56736
  Beta  occ. eigenvalues --   -0.56648  -0.44165  -0.44049  -0.36027
  Beta virt. eigenvalues --   -0.27326   0.05078   0.07430   0.15110   0.15191
  Beta virt. eigenvalues --    0.16832   0.18187   0.19619   0.20047   0.20421
  Beta virt. eigenvalues --    0.30684   0.49138   0.51018   0.99650   1.00965

 Mulliken charges and spin densities:
               1          2
     1  O   -0.267161   0.000000
     2  O   -0.267178  -0.000000
     3  H    0.267171   0.000000
     4  H    0.267169  -0.000000
 Sum of Mulliken charges =   0.00000  -0.00000

 Dipole moment (field-independent basis, Debye):
    X=              0.0004    Y=             -0.0008    Z=              0.0012  Tot=              0.0016
 Quadrupole moment (field-independent basis, Debye-Ang):
   XX=            -13.5457   YY=            -10.5844   ZZ=            -11.9129
   XY=              5.3029   XZ=              4.0496   YZ=              2.4341

 Normal termination of Gaussian 16 at Tue Apr 22 00:25:34 2025.
