 Gaussian 16, Revision A.03,
 Gaussian 16:  ES64L-G16RevA.03 25-Dec-2016

 ---------------------------------------------------
 #p UM062X/6-311+G** force int=superfine pop=saveNBO
 ---------------------------------------------------

 -------------------
 Title Card Required
 -------------------
 Symbolic Z-matrix:
 Charge =  0 Multiplicity = 1

                         Standard orientation:
 ---------------------------------------------------------------------
 Center     Atomic      Atomic             Coordinates (Angstroms)
 Number     Number       Type             X           Y           Z
 ---------------------------------------------------------------------
      1          6           0        0.000000    0.000000   -1.155522
      2          8           0        0.000000    0.000000    0.866642
 ---------------------------------------------------------------------

 SCF Done:  E(UM062X) =  -112.908204942     A.U. after   15 cycles

 The electronic state is 1-SG.
 Alpha  occ. eigenvalues --  -19.71044 -10.84575  -1.01666  -0.71541  -0.40662
 Alpha  occ. eigenvalues --   -0.37804  -0.37804
 Alpha virt. eigenvalues --   -0.17013  -0.17013  -0.07816   0.03252   0.06340
 Alpha virt. eigenvalues --    0.06340   0.06984   0.20061   0.22585   0.22585
 Alpha virt. eigenvalues --    0.32127   0.51596   0.51596   0.52958   0.68062

  Beta  occ. eigenvalues --  -19.71044 -10.84575  -1.01666  -0.71541  -0.40662
  Beta  occ. eigenvalues --   -0.37804  -0.37804
  Beta virt. eigenvalues --   -0.17013  -0.17013  -0.07816   0.03252   0.06340
  Beta virt. eigenvalues --    0.06340   0.06984   0.20061   0.22585   0.22585
  Beta virt. eigenvalues --    0.32127   0.51596   0.51596   0.52958   0.68062

 Mulliken charges and spin densities:
               1          2
     1  C    0.334203   0.000000
     2  O   -0.334203   0.000000
 Sum of Mulliken charges =   0.00000   0.00000

 Dipole moment (field-independent basis, Debye):
    X=              0.0000    Y=              0.0000    Z=             -3.3581  Tot=              3.3581
 Quadrupole moment (field-independent basis, Debye-Ang):
   XX=            -11.5676   YY=            -11.5676   ZZ=            -10.8814
   XY=              0.0000   XZ=              0.0000   YZ=              0.0000

 Summary of Natural Population Analysis:

                                       Natural Population
                Natural  -----------------------------------------------
    Atom  No    Charge         Core      Valence    Rydberg      Total
 -----------------------------------------------------------------------
      C    1    0.29977      0.99999     1.69838    0.00186     2.70023
      O    2   -0.29977      1.00000     3.29820    0.00157     4.29977
 =======================================================================
   * Total *    0.00000      1.99999     4.99658    0.00343     7.00000

 Normal termination of Gaussian 16 at Mon Apr 21 19:25:48 2025.
