 Gaussian 16, Revision A.03,
 Gaussian 16:  ES64L-G16RevA.03 25-Dec-2016

 --------------------------------------------
 #p opt UM062X/6-311+G** nosymm int=superfine
 --------------------------------------------

 -------------------
 Title Card Required
 -------------------
 Symbolic Z-matrix:
 Charge =  0 Multiplicity = 1

 SCF Done:  E(UM062X) =  -437.213054508     A.U. after   18 cycles
 SCF Done:  E(UM062X) =  -437.213078559     A.U. after   13 cycles
 SCF Done:  E(UM062X) =  -437.213086700     A.U. after   13 cycles
 SCF Done:  E(UM062X) =  -437.213082313     A.U. after   13 cycles
 SCF Done:  E(UM062X) =  -437.213084827     A.U. after   13 cycles
 SCF Done:  E(UM062X) =  -437.213086985     A.U. after   13 cycles
 SCF Done:  E(UM062X) =  -437.213087335     A.U. after   13 cycles
 Optimization completed.
    -- Stationary point found.

                          Input orientation:
 ---------------------------------------------------------------------
 Center     Atomic      Atomic             Coordinates (Angstroms)
 Number     Number       Type             X           Y           Z
 ---------------------------------------------------------------------
      1          6           0       -1.377140    0.000000    0.000000
      2         16           0        1.377140    0.000000    0.000000
      3          1           0       -1.964691   -0.921507    0.000084
      4          1           0       -1.965202    0.921182   -0.000066
 ---------------------------------------------------------------------

 Alpha  occ. eigenvalues --  -89.91109 -10.69466  -8.26974  -6.19503  -6.18409
 Alpha  occ. eigenvalues --   -6.18265  -0.81511  -0.71526  -0.55981  -0.37639
 Alpha  occ. eigenvalues --   -0.28714  -0.28672
 Alpha virt. eigenvalues --   -0.13918  -0.11366   0.00671   0.04959   0.06019
 Alpha virt. eigenvalues --    0.06563   0.08639   0.08859   0.09111   0.14035
 Alpha virt. eigenvalues --    0.16376   0.17200   0.36012   0.36601   0.37582

  Beta  occ. eigenvalues --  -89.91109 -10.69466  -8.26974  -6.19503  -6.18409
  Beta  occ. eigenvalues --   -6.18265  -0.81511  -0.71526  -0.55981  -0.37639
  Beta  occ. eigenvalues --   -0.28714  -0.28672
  Beta virt. eigenvalues --   -0.13918  -0.11366   0.00671   0.04959   0.06019
  Beta virt. eigenvalues --    0.06563   0.08639   0.08859   0.09111   0.14035
  Beta virt. eigenvalues --    0.16376   0.17200   0.36012   0.36601   0.37582

 Mulliken charges and spin densities:
               1          2
     1  C   -0.243837   0.000000
     2  S   -0.143801  -0.000000
     3  H    0.193817   0.000000
     4  H    0.193820  -0.000000
 Sum of Mulliken charges =  -0.00000  -0.00000

 Dipole moment (field-independent basis, Debye):
    X=             -4.4082    Y=             -0.0004    Z=              0.0000  Tot=              4.4082
 Quadrupole moment (field-independent basis, Debye-Ang):
   XX=            -13.7032   YY=            -21.9502   ZZ=            -22.2383
   XY=             -0.0003   XZ=              0.0000   YZ=             -0.0000

 Normal termination of Gaussian 16 at Mon Apr 21 19:41:54 2025.
