 Gaussian 16, Revision A.03,
 Gaussian 16:  ES64L-G16RevA.03 25-Dec-2016

 --------------------------------------------
 #p opt UM062X/6-311+G** nosymm int=superfine
 --------------------------------------------

 -------------------
 Title Card Required
 -------------------
 Symbolic Z-matrix:
 Charge =  1 Multiplicity = 2

 SCF Done:  E(UM062X) =  -79.0554176639     A.U. after   18 cycles
 SCF Done:  E(UM062X) =  -79.1489417591     A.U. after   17 cycles
 SCF Done:  E(UM062X) =  -79.2349942416     A.U. after   16 cycles
 SCF Done:  E(UM062X) =  -79.2833793660     A.U. after   11 cycles
 SCF Done:  E(UM062X) =  -79.2862328348     A.U. after   10 cycles
 SCF Done:  E(UM062X) =  -79.2864114748     A.U. after    9 cycles
 SCF Done:  E(UM062X) =  -79.2864496439     A.U. after    9 cycles
 SCF Done:  E(UM062X) =  -79.2864570146     A.U. after    8 cycles
 Optimization completed.
    -- Stationary point found.

                          Input orientation:
 ---------------------------------------------------------------------
 Center     Atomic      Atomic             Coordinates (Angstroms)
 Number     Number       Type             X           Y           Z
 ---------------------------------------------------------------------
      1          6           0       -0.584936    0.000000    0.000000
      2          6           0        0.584936    0.000000    0.000000
      3          1           0        1.161184   -0.798790    0.467448
      4          1           0       -1.083566   -0.998880   -0.270012
      5          1           0        1.083594    0.998912    0.269747
      6          1           0        1.083724    0.254646   -1.002725
      7          1           0       -1.161186    0.798837   -0.467366
      8          1           0       -1.083756   -0.254912    1.002619
 ---------------------------------------------------------------------

 Alpha  occ. eigenvalues --  -10.80772 -10.80445  -1.23638  -0.99619  -0.85103
 Alpha  occ. eigenvalues --   -0.82186  -0.80533  -0.67487  -0.61289
 Alpha virt. eigenvalues --   -0.16193  -0.14458  -0.13778  -0.12216  -0.08789
 Alpha virt. eigenvalues --   -0.07146  -0.07019  -0.06586  -0.04401  -0.02909
 Alpha virt. eigenvalues --   -0.00912  -0.00738   0.06409   0.06505   0.14647

  Beta  occ. eigenvalues --  -10.80719 -10.80380  -1.22239  -0.95798  -0.84313
  Beta  occ. eigenvalues --   -0.80252  -0.75536  -0.65959
  Beta virt. eigenvalues --   -0.41303  -0.16292  -0.14482  -0.13273  -0.12299
  Beta virt. eigenvalues --   -0.08833  -0.06855  -0.06555  -0.04974  -0.04329
  Beta virt. eigenvalues --   -0.02369  -0.00793  -0.00537   0.06601   0.07019

 Mulliken charges and spin densities:
               1          2
     1  C   -0.393052   0.141698
     2  C   -0.393068   0.141689
     3  H    0.250390  -0.009190
     4  H    0.321361   0.183889
     5  H    0.321353   0.183823
     6  H    0.321316   0.183673
     7  H    0.250391  -0.009191
     8  H    0.321307   0.183609
 Sum of Mulliken charges =   1.00000   1.00000

 Dipole moment (field-independent basis, Debye):
    X=             -0.0000    Y=             -0.0003    Z=             -0.0004  Tot=              0.0005
 Quadrupole moment (field-independent basis, Debye-Ang):
   XX=             -7.0503   YY=             -9.9563   ZZ=            -10.7359
   XY=              1.8369   XZ=             -1.0725   YZ=             -0.6918

 Normal termination of Gaussian 16 at Sat Nov 16 15:35:18 2024.
