 Gaussian 16, Revision A.03,
 Gaussian 16:  ES64L-G16RevA.03 25-Dec-2016

 --------------------------------------------
 #p opt UM062X/6-311+G** nosymm int=superfine
 --------------------------------------------

 -------------------
 Title Card Required
 -------------------
 Symbolic Z-matrix:
 Charge =  1 Multiplicity = 2

 SCF Done:  E(UM062X) =  -79.3646818202     A.U. after    9 cycles
 SCF Done:  E(UM062X) =  -79.3682910463     A.U. after    9 cycles
 SCF Done:  E(UM062X) =  -79.3683696470     A.U. after    8 cycles
 Optimization completed.
    -- Stationary point found.

                          Input orientation:
 ---------------------------------------------------------------------
 Center     Atomic      Atomic             Coordinates (Angstroms)
 Number     Number       Type             X           Y           Z
 ---------------------------------------------------------------------
      1          6           0       -1.041471    0.000000    0.000000
      2          6           0        1.041471    0.000000    0.000000
      3          1           0        1.167477   -0.932993    0.539936
      4          1           0       -1.166866   -0.934123   -0.538137
      5          1           0        1.167106    0.934169    0.538001
      6          1           0        1.166918   -0.001096   -1.078036
      7          1           0       -1.167489    0.933035   -0.539861
      8          1           0       -1.167145    0.000960    1.078009
 ---------------------------------------------------------------------

 Alpha  occ. eigenvalues --  -10.86050 -10.86040  -1.10032  -1.01638  -0.78442
 Alpha  occ. eigenvalues --   -0.78441  -0.73809  -0.73808  -0.62350
 Alpha virt. eigenvalues --   -0.25061  -0.16374  -0.11112  -0.11111  -0.09879
 Alpha virt. eigenvalues --   -0.07159  -0.06379  -0.06378  -0.05341  -0.05339
 Alpha virt. eigenvalues --   -0.02053   0.01632   0.01634   0.04448   0.07357

  Beta  occ. eigenvalues --  -10.85834 -10.85834  -1.06572  -0.98738  -0.77489
  Beta  occ. eigenvalues --   -0.77488  -0.73033  -0.73032
  Beta virt. eigenvalues --   -0.39021  -0.18168  -0.16055  -0.11117  -0.11117
  Beta virt. eigenvalues --   -0.08392  -0.07318  -0.06626  -0.06625  -0.04926
  Beta virt. eigenvalues --   -0.04924  -0.01173   0.02260   0.02263   0.04936

 Mulliken charges and spin densities:
               1          2
     1  C   -0.315513   0.552333
     2  C   -0.315513   0.552333
     3  H    0.271849  -0.017459
     4  H    0.271828  -0.017430
     5  H    0.271838  -0.017435
     6  H    0.271826  -0.017439
     7  H    0.271849  -0.017460
     8  H    0.271836  -0.017443
 Sum of Mulliken charges =   1.00000   1.00000

 Dipole moment (field-independent basis, Debye):
    X=              0.0000    Y=             -0.0000    Z=             -0.0000  Tot=              0.0000
 Quadrupole moment (field-independent basis, Debye-Ang):
   XX=             -6.1256   YY=            -10.7880   ZZ=            -10.7880
   XY=             -0.0005   XZ=              0.0003   YZ=              0.0000

 Normal termination of Gaussian 16 at Wed Nov 13 13:26:42 2024.
