 Gaussian 16, Revision A.03,
 Gaussian 16:  ES64L-G16RevA.03 25-Dec-2016

 ---------------------------------------
 #p UM062X/6-311+G** force int=superfine
 ---------------------------------------

 -------------------
 Title Card Required
 -------------------
 Symbolic Z-matrix:
 Charge =  0 Multiplicity = 1

                         Standard orientation:
 ---------------------------------------------------------------------
 Center     Atomic      Atomic             Coordinates (Angstroms)
 Number     Number       Type             X           Y           Z
 ---------------------------------------------------------------------
      1          7           0        0.000000    0.000000    1.620048
      2          7           0        0.000000    0.000000   -1.620048
 ---------------------------------------------------------------------

 SCF Done:  E(UM062X) =  -108.747268099     A.U. after   10 cycles

 The electronic state is 1-SGG.
 Alpha  occ. eigenvalues --  -14.96556 -14.96552  -0.87495  -0.86452  -0.34220
 Alpha  occ. eigenvalues --   -0.32904  -0.32904
 Alpha virt. eigenvalues --   -0.23727  -0.23727  -0.22036   0.07080   0.09306
 Alpha virt. eigenvalues --    0.11119   0.11119   0.14954   0.14954   0.15554
 Alpha virt. eigenvalues --    0.22179   0.72994   0.76947   0.76947   0.79031

  Beta  occ. eigenvalues --  -14.96556 -14.96552  -0.87495  -0.86452  -0.34220
  Beta  occ. eigenvalues --   -0.32904  -0.32904
  Beta virt. eigenvalues --   -0.23727  -0.23727  -0.22036   0.07080   0.09306
  Beta virt. eigenvalues --    0.11119   0.11119   0.14954   0.14954   0.15554
  Beta virt. eigenvalues --    0.22179   0.72994   0.76947   0.76947   0.79031

 Mulliken charges and spin densities:
               1          2
     1  N   -0.000000   0.000000
     2  N   -0.000000   0.000000
 Sum of Mulliken charges =  -0.00000   0.00000

 Dipole moment (field-independent basis, Debye):
    X=             -0.0000    Y=              0.0000    Z=             -0.0000  Tot=              0.0000
 Quadrupole moment (field-independent basis, Debye-Ang):
   XX=            -12.4487   YY=            -12.4487   ZZ=            -10.6893
   XY=              0.0000   XZ=             -0.0000   YZ=              0.0000

 Optimization completed.
    -- Stationary point found.
 Normal termination of Gaussian 16 at Wed Feb 26 14:03:37 2025.
