 Gaussian 16, Revision A.03,
 Gaussian 16:  ES64L-G16RevA.03 25-Dec-2016

 --------------------------------------------
 #p opt UM062X/6-311+G** nosymm int=superfine
 --------------------------------------------

 -------------------
 Title Card Required
 -------------------
 Symbolic Z-matrix:
 Charge = -1 Multiplicity = 2

 SCF Done:  E(UM062X) =  -51.8938729633     A.U. after   11 cycles
 SCF Done:  E(UM062X) =  -51.8979976230     A.U. after   10 cycles
 SCF Done:  E(UM062X) =  -51.8998768225     A.U. after   11 cycles
 SCF Done:  E(UM062X) =  -51.8998948509     A.U. after   11 cycles
 SCF Done:  E(UM062X) =  -51.8998878866     A.U. after   10 cycles
 SCF Done:  E(UM062X) =  -51.8998865387     A.U. after   12 cycles
 SCF Done:  E(UM062X) =  -51.8998941902     A.U. after   11 cycles
 SCF Done:  E(UM062X) =  -51.8998949141     A.U. after    9 cycles
 Optimization completed.
    -- Stationary point found.

                          Input orientation:
 ---------------------------------------------------------------------
 Center     Atomic      Atomic             Coordinates (Angstroms)
 Number     Number       Type             X           Y           Z
 ---------------------------------------------------------------------
      1          5           0       -1.447274    0.000000    0.000000
      2          5           0        1.447274    0.000000    0.000000
      3          1           0       -1.983690   -1.065617    0.000135
      4          1           0        1.983690    1.065617   -0.000379
      5          1           0       -1.983690    1.065616   -0.000325
      6          1           0        1.983690   -1.065616    0.000189
 ---------------------------------------------------------------------

 Alpha  occ. eigenvalues --   -6.87889  -6.87885  -0.37664  -0.36179  -0.23136
 Alpha  occ. eigenvalues --   -0.22417  -0.04320   0.01416
 Alpha virt. eigenvalues --    0.12969   0.15061   0.16535   0.18843   0.19158
 Alpha virt. eigenvalues --    0.21314   0.22403   0.22487   0.23912   0.25793
 Alpha virt. eigenvalues --    0.32544   0.34356   0.34717   0.41596   0.49423

  Beta  occ. eigenvalues --   -6.87854  -6.87852  -0.36072  -0.34888  -0.23029
  Beta  occ. eigenvalues --   -0.22378  -0.03076
  Beta virt. eigenvalues --    0.10749   0.13578   0.13753   0.14148   0.16102
  Beta virt. eigenvalues --    0.17412   0.18860   0.19491   0.21743   0.23542
  Beta virt. eigenvalues --    0.24498   0.31628   0.33550   0.34452   0.41297

 Mulliken charges and spin densities:
               1          2
     1  B   -0.419320   0.545869
     2  B   -0.419321   0.545869
     3  H   -0.040340  -0.022935
     4  H   -0.040340  -0.022935
     5  H   -0.040340  -0.022935
     6  H   -0.040340  -0.022935
 Sum of Mulliken charges =  -1.00000   1.00000

 Dipole moment (field-independent basis, Debye):
    X=             -0.0000    Y=             -0.0000    Z=             -0.0001  Tot=              0.0001
 Quadrupole moment (field-independent basis, Debye-Ang):
   XX=            -32.3534   YY=            -23.5304   ZZ=            -25.8871
   XY=             -0.0000   XZ=             -0.0000   YZ=             -0.0006

 Normal termination of Gaussian 16 at Mon Apr 21 17:19:43 2025.
