 Gaussian 16, Revision A.03,
 Gaussian 16:  ES64L-G16RevA.03 25-Dec-2016

 --------------------------------------------
 #p opt UM062X/6-311+G** nosymm int=superfine
 --------------------------------------------

 -------------------
 Title Card Required
 -------------------
 Symbolic Z-matrix:
 Charge =  0 Multiplicity = 1

 SCF Done:  E(UM062X) =  -76.9639026023     A.U. after   13 cycles
 SCF Done:  E(UM062X) =  -76.9645453110     A.U. after   13 cycles
 SCF Done:  E(UM062X) =  -76.9648187496     A.U. after   13 cycles
 SCF Done:  E(UM062X) =  -76.9650950681     A.U. after   12 cycles
 SCF Done:  E(UM062X) =  -76.9650951206     A.U. after   10 cycles
 Optimization completed.
    -- Stationary point found.

                          Input orientation:
 ---------------------------------------------------------------------
 Center     Atomic      Atomic             Coordinates (Angstroms)
 Number     Number       Type             X           Y           Z
 ---------------------------------------------------------------------
      1          6           0       -1.232625    0.000000    0.000000
      2          6           0        1.232625    0.000000    0.000000
      3          1           0       -1.213816    0.295896    1.077991
      4          1           0        1.213868    1.004762   -0.489980
 ---------------------------------------------------------------------

 Alpha  occ. eigenvalues --  -10.66686 -10.66680  -0.74458  -0.69976  -0.39187
 Alpha  occ. eigenvalues --   -0.38220  -0.28337
 Alpha virt. eigenvalues --   -0.09646  -0.08869  -0.04263   0.02796   0.05954
 Alpha virt. eigenvalues --    0.07599   0.07641   0.09970   0.10039   0.10391
 Alpha virt. eigenvalues --    0.15438   0.16765   0.20736   0.45034   0.47045

  Beta  occ. eigenvalues --  -10.66686 -10.66680  -0.74458  -0.69976  -0.39187
  Beta  occ. eigenvalues --   -0.38220  -0.28337
  Beta virt. eigenvalues --   -0.09646  -0.08869  -0.04263   0.02796   0.05954
  Beta virt. eigenvalues --    0.07599   0.07641   0.09970   0.10039   0.10391
  Beta virt. eigenvalues --    0.15438   0.16765   0.20736   0.45034   0.47045

 Mulliken charges and spin densities:
               1          2
     1  C   -0.136466   0.000000
     2  C   -0.136478  -0.000000
     3  H    0.136471  -0.000000
     4  H    0.136472   0.000000
 Sum of Mulliken charges =  -0.00000  -0.00000

 Dipole moment (field-independent basis, Debye):
    X=              0.0000    Y=              1.8022    Z=              0.8148  Tot=              1.9778
 Quadrupole moment (field-independent basis, Debye-Ang):
   XX=            -17.1785   YY=            -12.9393   ZZ=            -13.2548
   XY=              1.3269   XZ=             -2.9348   YZ=              0.1792

 Normal termination of Gaussian 16 at Tue Dec  3 21:38:50 2024.
