 Gaussian 16, Revision A.03,
 Gaussian 16:  ES64L-G16RevA.03 25-Dec-2016

 --------------------------------------------
 #p opt UM062X/6-311+G** nosymm int=superfine
 --------------------------------------------

 -------------------
 Title Card Required
 -------------------
 Symbolic Z-matrix:
 Charge =  1 Multiplicity = 2

 SCF Done:  E(UM062X) =  -79.3124066943     A.U. after   10 cycles
 SCF Done:  E(UM062X) =  -79.3142157762     A.U. after    9 cycles
 SCF Done:  E(UM062X) =  -79.3142409463     A.U. after    9 cycles
 Optimization completed.
    -- Stationary point found.

                          Input orientation:
 ---------------------------------------------------------------------
 Center     Atomic      Atomic             Coordinates (Angstroms)
 Number     Number       Type             X           Y           Z
 ---------------------------------------------------------------------
      1          6           0       -2.182808    0.000000    0.000000
      2          6           0        2.182808    0.000000    0.000000
      3          1           0        2.205064   -0.937359    0.542530
      4          1           0       -2.203083   -0.938452   -0.540707
      5          1           0        2.204206    0.938547    0.540502
      6          1           0        2.203099   -0.001172   -1.083077
      7          1           0       -2.205125    0.937468   -0.542339
      8          1           0       -2.204161    0.000952    1.083059
 ---------------------------------------------------------------------

 Alpha  occ. eigenvalues --  -10.82874 -10.82873  -1.01497  -1.01297  -0.72608
 Alpha  occ. eigenvalues --   -0.72608  -0.72558  -0.72558  -0.46063
 Alpha virt. eigenvalues --   -0.37876  -0.12322  -0.10033  -0.09028  -0.09028
 Alpha virt. eigenvalues --   -0.06191  -0.06191  -0.04445  -0.02548   0.00599
 Alpha virt. eigenvalues --    0.00601   0.01537   0.01539   0.02280   0.09163

  Beta  occ. eigenvalues --  -10.82647 -10.82647  -0.98831  -0.98738  -0.72069
  Beta  occ. eigenvalues --   -0.72068  -0.72011  -0.72010
  Beta virt. eigenvalues --   -0.31390  -0.26683  -0.17118  -0.10248  -0.10240
  Beta virt. eigenvalues --   -0.10240  -0.06128  -0.06128  -0.05766  -0.01578
  Beta virt. eigenvalues --    0.00527   0.00530   0.01783   0.01786   0.02255

 Mulliken charges and spin densities:
               1          2
     1  C   -0.235713   0.559218
     2  C   -0.235713   0.559218
     3  H    0.245250  -0.019744
     4  H    0.245215  -0.019743
     5  H    0.245234  -0.019746
     6  H    0.245229  -0.019728
     7  H    0.245251  -0.019744
     8  H    0.245247  -0.019731
 Sum of Mulliken charges =   1.00000   1.00000

 Dipole moment (field-independent basis, Debye):
    X=             -0.0000    Y=             -0.0000    Z=             -0.0000  Tot=              0.0000
 Quadrupole moment (field-independent basis, Debye-Ang):
   XX=             11.1970   YY=            -11.1222   ZZ=            -11.1222
   XY=             -0.0022   XZ=              0.0012   YZ=              0.0000

 Normal termination of Gaussian 16 at Sat Nov 16 16:11:37 2024.
