 Gaussian 16, Revision A.03,
 Gaussian 16:  ES64L-G16RevA.03 25-Dec-2016

 --------------------------------------------
 #p opt UM062X/6-311+G** nosymm int=superfine
 --------------------------------------------

 -------------------
 Title Card Required
 -------------------
 Symbolic Z-matrix:
 Charge =  1 Multiplicity = 2

 SCF Done:  E(UM062X) =  -580.878284867     A.U. after   14 cycles
 SCF Done:  E(UM062X) =  -580.885457030     A.U. after   12 cycles
 SCF Done:  E(UM062X) =  -580.887425806     A.U. after   11 cycles
 SCF Done:  E(UM062X) =  -580.887428284     A.U. after   10 cycles
 Optimization completed.
    -- Stationary point found.

                          Input orientation:
 ---------------------------------------------------------------------
 Center     Atomic      Atomic             Coordinates (Angstroms)
 Number     Number       Type             X           Y           Z
 ---------------------------------------------------------------------
      1         14           0       -1.891295    0.000000    0.000000
      2         14           0        1.891295    0.000000    0.000000
      3          1           0       -2.785958   -1.190662   -0.000714
      4          1           0        2.785958    1.190662    0.000315
      5          1           0       -2.785973    1.190650   -0.000874
      6          1           0        2.785973   -1.190649   -0.001905
 ---------------------------------------------------------------------

 Alpha  occ. eigenvalues --  -67.24649 -67.24649  -5.79142  -5.79140  -4.10413
 Alpha  occ. eigenvalues --   -4.10413  -4.10080  -4.10079  -4.09747  -4.09746
 Alpha  occ. eigenvalues --   -0.78904  -0.78429  -0.60529  -0.60402  -0.51853
 Alpha  occ. eigenvalues --   -0.46132
 Alpha virt. eigenvalues --   -0.28159  -0.26648  -0.13953  -0.12152  -0.09304
 Alpha virt. eigenvalues --   -0.08144  -0.07840  -0.07454  -0.06915  -0.06553
 Alpha virt. eigenvalues --   -0.06222  -0.05736  -0.05483  -0.03331   0.12332

  Beta  occ. eigenvalues --  -67.24293 -67.24293  -5.78859  -5.78857  -4.10306
  Beta  occ. eigenvalues --   -4.10306  -4.09629  -4.09629  -4.09297  -4.09296
  Beta  occ. eigenvalues --   -0.77071  -0.76449  -0.59352  -0.59203  -0.46192
  Beta virt. eigenvalues --   -0.31103  -0.26937  -0.25208  -0.12934  -0.11778
  Beta virt. eigenvalues --   -0.09421  -0.07659  -0.07636  -0.06576  -0.06532
  Beta virt. eigenvalues --   -0.06191  -0.06032  -0.05369  -0.04699  -0.02956

 Mulliken charges and spin densities:
               1          2
     1  Si   0.553663   0.383916
     2  Si   0.553663   0.383916
     3  H   -0.026831   0.058042
     4  H   -0.026831   0.058042
     5  H   -0.026831   0.058042
     6  H   -0.026831   0.058042
 Sum of Mulliken charges =   1.00000   1.00000

 Dipole moment (field-independent basis, Debye):
    X=              0.0000    Y=              0.0000    Z=             -0.0005  Tot=              0.0005
 Quadrupole moment (field-independent basis, Debye-Ang):
   XX=             -4.2981   YY=            -25.7522   ZZ=            -20.7639
   XY=             -0.0000   XZ=              0.0000   YZ=             -0.0022

 Normal termination of Gaussian 16 at Mon Apr 21 20:20:03 2025.
