 Gaussian 16, Revision A.03,
 Gaussian 16:  ES64L-G16RevA.03 25-Dec-2016

 --------------------------------------------
 #p opt UM062X/6-311+G** nosymm int=superfine
 --------------------------------------------

 -------------------
 Title Card Required
 -------------------
 Symbolic Z-matrix:
 Charge =  1 Multiplicity = 2

 SCF Done:  E(UM062X) =  -79.1900966989     A.U. after   20 cycles
 SCF Done:  E(UM062X) =  -79.2611107380     A.U. after   17 cycles
 SCF Done:  E(UM062X) =  -79.3277841009     A.U. after   16 cycles
 SCF Done:  E(UM062X) =  -79.3592336436     A.U. after   12 cycles
 SCF Done:  E(UM062X) =  -79.3606793987     A.U. after   11 cycles
 SCF Done:  E(UM062X) =  -79.3607467979     A.U. after   10 cycles
 SCF Done:  E(UM062X) =  -79.3607582987     A.U. after    9 cycles
 SCF Done:  E(UM062X) =  -79.3607596113     A.U. after    9 cycles
 Optimization completed.
    -- Stationary point found.

                          Input orientation:
 ---------------------------------------------------------------------
 Center     Atomic      Atomic             Coordinates (Angstroms)
 Number     Number       Type             X           Y           Z
 ---------------------------------------------------------------------
      1          6           0       -0.670536    0.000000    0.000000
      2          6           0        0.670536    0.000000    0.000000
      3          1           0        1.208814   -0.814363    0.477004
      4          1           0       -1.122729   -1.009860   -0.288279
      5          1           0        1.122763    1.009894    0.288023
      6          1           0        1.124409    0.245364   -1.019859
      7          1           0       -1.208815    0.814404   -0.476931
      8          1           0       -1.124448   -0.245614    1.019762
 ---------------------------------------------------------------------

 Alpha  occ. eigenvalues --  -10.82049 -10.81951  -1.18761  -1.00028  -0.82689
 Alpha  occ. eigenvalues --   -0.78139  -0.78074  -0.69674  -0.63976
 Alpha virt. eigenvalues --   -0.16184  -0.13628  -0.12312  -0.11910  -0.08509
 Alpha virt. eigenvalues --   -0.07260  -0.06729  -0.06705  -0.05320  -0.02091
 Alpha virt. eigenvalues --   -0.01099  -0.00643   0.05996   0.06454   0.10454

  Beta  occ. eigenvalues --  -10.81964 -10.81856  -1.16971  -0.96303  -0.81669
  Beta  occ. eigenvalues --   -0.76303  -0.72280  -0.68248
  Beta virt. eigenvalues --   -0.43992  -0.16206  -0.13670  -0.12050  -0.11926
  Beta virt. eigenvalues --   -0.08527  -0.06961  -0.06740  -0.05113  -0.04890
  Beta virt. eigenvalues --   -0.01770  -0.00920  -0.00483   0.06120   0.06907

 Mulliken charges and spin densities:
               1          2
     1  C   -0.405868   0.167013
     2  C   -0.405875   0.167007
     3  H    0.256407  -0.010228
     4  H    0.324833   0.172199
     5  H    0.324825   0.172143
     6  H    0.324639   0.171073
     7  H    0.256408  -0.010228
     8  H    0.324631   0.171020
 Sum of Mulliken charges =   1.00000   1.00000

 Dipole moment (field-independent basis, Debye):
    X=             -0.0000    Y=             -0.0002    Z=             -0.0004  Tot=              0.0005
 Quadrupole moment (field-independent basis, Debye-Ang):
   XX=             -6.6707   YY=            -10.0275   ZZ=            -10.8151
   XY=              1.8151   XZ=             -1.0539   YZ=             -0.6904

 Normal termination of Gaussian 16 at Sat Nov 16 15:41:53 2024.
