 Gaussian 16, Revision A.03,
 Gaussian 16:  ES64L-G16RevA.03 25-Dec-2016

 --------------------------------------------
 #p opt UM062X/6-311+G** nosymm int=superfine
 --------------------------------------------

 -------------------
 Title Card Required
 -------------------
 Symbolic Z-matrix:
 Charge =  1 Multiplicity = 2

 SCF Done:  E(UM062X) =  -79.2122248627     A.U. after   25 cycles
 SCF Done:  E(UM062X) =  -79.2770837814     A.U. after   39 cycles
 SCF Done:  E(UM062X) =  -79.3508288398     A.U. after   15 cycles
 SCF Done:  E(UM062X) =  -79.3606328203     A.U. after   12 cycles
 SCF Done:  E(UM062X) =  -79.3639387975     A.U. after   12 cycles
 SCF Done:  E(UM062X) =  -79.3650077033     A.U. after   11 cycles
 SCF Done:  E(UM062X) =  -79.3653351233     A.U. after   11 cycles
 SCF Done:  E(UM062X) =  -79.3654491522     A.U. after   10 cycles
 SCF Done:  E(UM062X) =  -79.3654921516     A.U. after   10 cycles
 SCF Done:  E(UM062X) =  -79.3655019192     A.U. after   10 cycles
 SCF Done:  E(UM062X) =  -79.3655124287     A.U. after   10 cycles
 SCF Done:  E(UM062X) =  -79.3655246678     A.U. after   11 cycles
 SCF Done:  E(UM062X) =  -79.3655345440     A.U. after   11 cycles
 SCF Done:  E(UM062X) =  -79.3655363856     A.U. after   11 cycles
 SCF Done:  E(UM062X) =  -79.3591831247     A.U. after   13 cycles
 SCF Done:  E(UM062X) =  -79.3655585449     A.U. after   11 cycles
 SCF Done:  E(UM062X) =  -79.3654074635     A.U. after   12 cycles
 SCF Done:  E(UM062X) =  -79.3655794885     A.U. after   12 cycles
 SCF Done:  E(UM062X) =  -79.3655846117     A.U. after   10 cycles
 SCF Done:  E(UM062X) =  -79.3655864434     A.U. after    9 cycles
 Optimization completed.
    -- Stationary point found.

                          Input orientation:
 ---------------------------------------------------------------------
 Center     Atomic      Atomic             Coordinates (Angstroms)
 Number     Number       Type             X           Y           Z
 ---------------------------------------------------------------------
      1          6           0       -0.699069    0.000000    0.000000
      2          6           0        0.699069    0.000000    0.000000
      3          1           0        1.226817   -0.917962    0.268287
      4          1           0       -1.226941   -0.918586   -0.266166
      5          1           0        1.226953    0.918571    0.266211
      6          1           0        0.801411    0.000114   -1.181385
      7          1           0       -1.226828    0.917947   -0.268337
      8          1           0       -0.801419    0.000040    1.181383
 ---------------------------------------------------------------------

 Alpha  occ. eigenvalues --  -10.83258 -10.83187  -1.18978  -0.98697  -0.81746
 Alpha  occ. eigenvalues --   -0.81343  -0.76040  -0.68983  -0.65948
 Alpha virt. eigenvalues --   -0.16979  -0.13190  -0.12162  -0.12092  -0.10457
 Alpha virt. eigenvalues --   -0.07849  -0.06449  -0.05831  -0.05684  -0.02039
 Alpha virt. eigenvalues --   -0.00747   0.02945   0.03848   0.05633   0.08525

  Beta  occ. eigenvalues --  -10.83118 -10.83043  -1.16642  -0.95573  -0.80573
  Beta  occ. eigenvalues --   -0.75614  -0.74940  -0.68278
  Beta virt. eigenvalues --   -0.44174  -0.16938  -0.13159  -0.11976  -0.11917
  Beta virt. eigenvalues --   -0.10067  -0.07845  -0.06454  -0.05387  -0.03880
  Beta virt. eigenvalues --   -0.01805  -0.00453   0.03178   0.04482   0.06377

 Mulliken charges and spin densities:
               1          2
     1  C   -0.413520   0.201155
     2  C   -0.413517   0.201157
     3  H    0.284000   0.008275
     4  H    0.284248   0.008636
     5  H    0.284251   0.008647
     6  H    0.345268   0.281921
     7  H    0.284003   0.008286
     8  H    0.345268   0.281922
 Sum of Mulliken charges =   1.00000   1.00000

 Dipole moment (field-independent basis, Debye):
    X=             -0.0000    Y=              0.0002    Z=             -0.0000  Tot=              0.0002
 Quadrupole moment (field-independent basis, Debye-Ang):
   XX=             -8.0441   YY=            -10.9212   ZZ=             -9.4707
   XY=              0.0036   XZ=             -1.3350   YZ=             -0.0035

 Normal termination of Gaussian 16 at Sat Nov 16 15:46:10 2024.
