 Gaussian 16, Revision A.03,
 Gaussian 16:  ES64L-G16RevA.03 25-Dec-2016

 --------------------------------------------
 #p opt UM062X/6-311+G** nosymm int=superfine
 --------------------------------------------

 -------------------
 Title Card Required
 -------------------
 Symbolic Z-matrix:
 Charge =  0 Multiplicity = 3

 SCF Done:  E(UM062X) =  -37.8404055543     A.U. after    8 cycles
 SCF Done:  E(UM062X) =  -37.8404055543     A.U. after    1 cycles
 Optimization completed.
    -- Stationary point found.

                          Input orientation:
 ---------------------------------------------------------------------
 Center     Atomic      Atomic             Coordinates (Angstroms)
 Number     Number       Type             X           Y           Z
 ---------------------------------------------------------------------
      1          6           0       -0.764296    0.000000    0.000000
 ---------------------------------------------------------------------

 Alpha  occ. eigenvalues --  -10.66017  -0.66952  -0.32448  -0.32448
 Alpha virt. eigenvalues --   -0.10020   0.06315   0.08134   0.08271   0.08271
 Alpha virt. eigenvalues --    0.56301   0.56301   0.58067   0.66165   1.31886
 Alpha virt. eigenvalues --    1.31886   1.32685   1.32685   1.33206   2.68160

  Beta  occ. eigenvalues --  -10.63996  -0.54135
  Beta virt. eigenvalues --   -0.07264  -0.04577  -0.04577   0.04300   0.09923
  Beta virt. eigenvalues --    0.11662   0.11662   0.57089   0.58392   0.58392
  Beta virt. eigenvalues --    0.68282   1.34824   1.35555   1.35555   1.37840

 Mulliken charges and spin densities:
               1          2
     1  C   -0.000000   2.000000
 Sum of Mulliken charges =  -0.00000   2.00000

 Dipole moment (field-independent basis, Debye):
    X=              0.0000    Y=              0.0000    Z=              0.0000  Tot=              0.0000
 Quadrupole moment (field-independent basis, Debye-Ang):
   XX=             -4.9451   YY=             -6.9521   ZZ=             -6.9515
   XY=             -0.0244   XZ=              0.0423   YZ=             -0.0005

 Normal termination of Gaussian 16 at Wed Apr 16 08:42:07 2025.
