 Gaussian 16, Revision A.03,
 Gaussian 16:  ES64L-G16RevA.03 25-Dec-2016

 --------------------------------------------
 #p opt UM062X/6-311+G** nosymm int=superfine
 --------------------------------------------

 -------------------
 Title Card Required
 -------------------
 Symbolic Z-matrix:
 Charge =  0 Multiplicity = 1

 SCF Done:  E(UM062X) =  -115.524716430     A.U. after   12 cycles
 SCF Done:  E(UM062X) =  -115.539934961     A.U. after   11 cycles
 SCF Done:  E(UM062X) =  -115.546654581     A.U. after   11 cycles
 SCF Done:  E(UM062X) =  -115.546732815     A.U. after    9 cycles
 SCF Done:  E(UM062X) =  -115.546770085     A.U. after   10 cycles
 SCF Done:  E(UM062X) =  -115.546773295     A.U. after    9 cycles
 SCF Done:  E(UM062X) =  -115.546774241     A.U. after   11 cycles
 SCF Done:  E(UM062X) =  -115.546774680     A.U. after    8 cycles
 Optimization completed.
    -- Stationary point found.

                          Input orientation:
 ---------------------------------------------------------------------
 Center     Atomic      Atomic             Coordinates (Angstroms)
 Number     Number       Type             X           Y           Z
 ---------------------------------------------------------------------
      1          6           0       -1.282203    0.000000    0.000000
      2          8           0        1.282203    0.000000    0.000000
      3          1           0        1.339070   -0.963793    0.000253
      4          1           0       -1.403238   -0.527773    0.935418
      5          1           0       -1.298321    1.080208   -0.000776
      6          1           0       -1.403298   -0.529120   -0.934649
 ---------------------------------------------------------------------

 Alpha  occ. eigenvalues --  -19.60077 -10.65232  -1.02365  -0.82781  -0.54828
 Alpha  occ. eigenvalues --   -0.54579  -0.46708  -0.33668  -0.32529
 Alpha virt. eigenvalues --   -0.11135   0.00862   0.04311   0.04791   0.06518
 Alpha virt. eigenvalues --    0.14397   0.16201   0.16440   0.20198   0.22886
 Alpha virt. eigenvalues --    0.23097   0.24479   0.32347   0.40219   0.40823

  Beta  occ. eigenvalues --  -19.60077 -10.65232  -1.02365  -0.82781  -0.54828
  Beta  occ. eigenvalues --   -0.54579  -0.46708  -0.33668  -0.32529
  Beta virt. eigenvalues --   -0.11135   0.00862   0.04311   0.04791   0.06518
  Beta virt. eigenvalues --    0.14397   0.16201   0.16440   0.20198   0.22886
  Beta virt. eigenvalues --    0.23097   0.24479   0.32347   0.40219   0.40823

 Mulliken charges and spin densities:
               1          2
     1  C   -0.293988   0.000000
     2  O   -0.547183  -0.000000
     3  H    0.218076   0.000000
     4  H    0.201938  -0.000000
     5  H    0.219235  -0.000000
     6  H    0.201922  -0.000000
 Sum of Mulliken charges =  -0.00000   0.00000

 Dipole moment (field-independent basis, Debye):
    X=             -4.3757    Y=             -1.5431    Z=              0.0004  Tot=              4.6398
 Quadrupole moment (field-independent basis, Debye-Ang):
   XX=            -13.2875   YY=            -11.4067   ZZ=            -13.8274
   XY=             -2.3125   XZ=              0.0006   YZ=             -0.0006

 Normal termination of Gaussian 16 at Mon Apr 21 18:42:56 2025.
