 Gaussian 16, Revision A.03,
 Gaussian 16:  ES64L-G16RevA.03 25-Dec-2016

 --------------------------------------------
 #p opt UM062X/6-311+G** nosymm int=superfine
 --------------------------------------------

 -------------------
 Title Card Required
 -------------------
 Symbolic Z-matrix:
 Charge =  0 Multiplicity = 1

 SCF Done:  E(UM062X) =  -83.1888001297     A.U. after   10 cycles
 SCF Done:  E(UM062X) =  -83.1888790902     A.U. after    8 cycles
 SCF Done:  E(UM062X) =  -83.1888803294     A.U. after    7 cycles
 Optimization completed.
    -- Stationary point found.

                          Input orientation:
 ---------------------------------------------------------------------
 Center     Atomic      Atomic             Coordinates (Angstroms)
 Number     Number       Type             X           Y           Z
 ---------------------------------------------------------------------
      1          5           0       -0.852429    0.000000    0.000000
      2          7           0        0.852429    0.000000    0.000000
      3          1           0        1.211073   -0.950449   -0.000004
      4          1           0       -1.144730   -0.584822    1.012922
      5          1           0        1.211036    0.475252   -0.823117
      6          1           0        1.211030    0.475242    0.823125
      7          1           0       -1.144734    1.169626    0.000009
      8          1           0       -1.144733   -0.584809   -1.012928
 ---------------------------------------------------------------------

 Alpha  occ. eigenvalues --  -14.81978  -6.96861  -1.05128  -0.62051  -0.62051
 Alpha  occ. eigenvalues --   -0.58609  -0.41852  -0.33718  -0.33718
 Alpha virt. eigenvalues --   -0.01384   0.04198   0.04198   0.05083   0.08349
 Alpha virt. eigenvalues --    0.11005   0.11005   0.14335   0.15107   0.15107
 Alpha virt. eigenvalues --    0.20531   0.21159   0.21159   0.25904   0.31723

  Beta  occ. eigenvalues --  -14.81978  -6.96861  -1.05128  -0.62051  -0.62051
  Beta  occ. eigenvalues --   -0.58609  -0.41852  -0.33718  -0.33718
  Beta virt. eigenvalues --   -0.01384   0.04198   0.04198   0.05083   0.08349
  Beta virt. eigenvalues --    0.11005   0.11005   0.14335   0.15107   0.15107
  Beta virt. eigenvalues --    0.20531   0.21159   0.21159   0.25904   0.31723

 Mulliken charges and spin densities:
               1          2
     1  B   -0.212663  -0.000000
     2  N   -0.560325   0.000000
     3  H    0.306781   0.000000
     4  H   -0.049120   0.000000
     5  H    0.306783  -0.000000
     6  H    0.306784  -0.000000
     7  H   -0.049120   0.000000
     8  H   -0.049120   0.000000
 Sum of Mulliken charges =  -0.00000   0.00000

 Dipole moment (field-independent basis, Debye):
    X=              5.2979    Y=              0.0001    Z=              0.0000  Tot=              5.2979
 Quadrupole moment (field-independent basis, Debye-Ang):
   XX=            -15.5054   YY=            -16.1789   ZZ=            -16.1789
   XY=             -0.0000   XZ=             -0.0000   YZ=              0.0000

 Normal termination of Gaussian 16 at Mon Apr 21 17:34:58 2025.
