 Gaussian 16, Revision A.03,
 Gaussian 16:  ES64L-G16RevA.03 25-Dec-2016

 --------------------------------------------
 #p opt UM062X/6-311+G** nosymm int=superfine
 --------------------------------------------

 -------------------
 Title Card Required
 -------------------
 Symbolic Z-matrix:
 Charge =  0 Multiplicity = 1

 SCF Done:  E(UM062X) =  -474.529535262     A.U. after   13 cycles
 SCF Done:  E(UM062X) =  -474.531993016     A.U. after   13 cycles
 SCF Done:  E(UM062X) =  -474.531910456     A.U. after   14 cycles
 SCF Done:  E(UM062X) =  -474.532209562     A.U. after   11 cycles
 SCF Done:  E(UM062X) =  -474.532209988     A.U. after    9 cycles
 Optimization completed.
    -- Stationary point found.

                          Input orientation:
 ---------------------------------------------------------------------
 Center     Atomic      Atomic             Coordinates (Angstroms)
 Number     Number       Type             X           Y           Z
 ---------------------------------------------------------------------
      1          8           0       -1.014392    0.000000    0.000000
      2         16           0        1.014392    0.000000    0.000000
      3          1           0       -1.163832   -0.952043   -0.060806
      4          1           0        1.044204    0.220607    1.324523
 ---------------------------------------------------------------------

 Alpha  occ. eigenvalues --  -89.96041 -19.66912  -8.32110  -6.24335  -6.23965
 Alpha  occ. eigenvalues --   -6.23444  -1.11184  -0.82284  -0.54834  -0.49835
 Alpha  occ. eigenvalues --   -0.43665  -0.39724  -0.33551
 Alpha virt. eigenvalues --   -0.07842   0.01480   0.04264   0.05040   0.06144
 Alpha virt. eigenvalues --    0.08064   0.15886   0.19156   0.20043   0.22319
 Alpha virt. eigenvalues --    0.28060   0.31863   0.33697   0.35126   0.40988

  Beta  occ. eigenvalues --  -89.96041 -19.66912  -8.32110  -6.24335  -6.23965
  Beta  occ. eigenvalues --   -6.23444  -1.11184  -0.82284  -0.54834  -0.49835
  Beta  occ. eigenvalues --   -0.43665  -0.39724  -0.33551
  Beta virt. eigenvalues --   -0.07842   0.01480   0.04264   0.05040   0.06144
  Beta virt. eigenvalues --    0.08064   0.15886   0.19156   0.20043   0.22319
  Beta virt. eigenvalues --    0.28060   0.31863   0.33697   0.35126   0.40988

 Mulliken charges and spin densities:
               1          2
     1  O   -0.435218  -0.000000
     2  S    0.079251   0.000000
     3  H    0.261864   0.000000
     4  H    0.094103  -0.000000
 Sum of Mulliken charges =   0.00000   0.00000

 Dipole moment (field-independent basis, Debye):
    X=              1.2266    Y=             -1.4603    Z=              0.9806  Tot=              2.1444
 Quadrupole moment (field-independent basis, Debye-Ang):
   XX=            -18.7517   YY=            -19.7431   ZZ=            -18.4217
   XY=              2.6747   XZ=              1.6120   YZ=              0.8250

 Normal termination of Gaussian 16 at Thu May 15 12:53:20 2025.
