 Gaussian 16, Revision A.03,
 Gaussian 16:  ES64L-G16RevA.03 25-Dec-2016

 --------------------------------------------
 #p opt UM062X/6-311+G** nosymm int=superfine
 --------------------------------------------

 -------------------
 Title Card Required
 -------------------
 Symbolic Z-matrix:
 Charge =  0 Multiplicity = 1

 SCF Done:  E(UM062X) =  -78.5422987220     A.U. after    8 cycles
 SCF Done:  E(UM062X) =  -78.5471703948     A.U. after    8 cycles
 SCF Done:  E(UM062X) =  -78.5475969490     A.U. after    7 cycles
 SCF Done:  E(UM062X) =  -78.5476110315     A.U. after    6 cycles
 Optimization completed.
    -- Stationary point found.

                          Input orientation:
 ---------------------------------------------------------------------
 Center     Atomic      Atomic             Coordinates (Angstroms)
 Number     Number       Type             X           Y           Z
 ---------------------------------------------------------------------
      1          6           0       -0.729159    0.000000    0.000000
      2          6           0        0.729159    0.000000    0.000000
      3          1           0       -1.274162   -0.934552    0.000000
      4          1           0       -1.274234    0.934508    0.000000
      5          1           0        1.274162    0.934552   -0.000000
      6          1           0        1.274234   -0.934508   -0.000000
 ---------------------------------------------------------------------

 Alpha  occ. eigenvalues --  -10.55850 -10.55790  -0.83413  -0.67511  -0.53650
 Alpha  occ. eigenvalues --   -0.46607  -0.43945  -0.31443
 Alpha virt. eigenvalues --    0.00595   0.03392   0.03940   0.05249   0.07988
 Alpha virt. eigenvalues --    0.08053   0.09716   0.12603   0.15964   0.17111
 Alpha virt. eigenvalues --    0.20423   0.22277   0.30492   0.31931   0.42846

  Beta  occ. eigenvalues --  -10.55850 -10.55790  -0.83413  -0.67511  -0.53650
  Beta  occ. eigenvalues --   -0.46607  -0.43945  -0.31443
  Beta virt. eigenvalues --    0.00595   0.03392   0.03940   0.05249   0.07988
  Beta virt. eigenvalues --    0.08053   0.09716   0.12603   0.15964   0.17111
  Beta virt. eigenvalues --    0.20423   0.22277   0.30492   0.31931   0.42846

 Mulliken charges and spin densities:
               1          2
     1  C   -0.311361   0.000000
     2  C   -0.311361  -0.000000
     3  H    0.155678  -0.000000
     4  H    0.155683  -0.000000
     5  H    0.155678  -0.000000
     6  H    0.155683   0.000000
 Sum of Mulliken charges =  -0.00000  -0.00000

 Dipole moment (field-independent basis, Debye):
    X=              0.0000    Y=             -0.0000    Z=              0.0000  Tot=              0.0000
 Quadrupole moment (field-independent basis, Debye-Ang):
   XX=            -12.1157   YY=            -12.2828   ZZ=            -16.4487
   XY=             -0.0002   XZ=             -0.0000   YZ=             -0.0000

 Normal termination of Gaussian 16 at Tue Nov 19 10:40:18 2024.
