 Gaussian 16, Revision A.03,
 Gaussian 16:  ES64L-G16RevA.03 25-Dec-2016

 --------------------------------------------
 #p opt UM062X/6-311+G** nosymm int=superfine
 --------------------------------------------

 -------------------
 Title Card Required
 -------------------
 Symbolic Z-matrix:
 Charge =  0 Multiplicity = 1

 SCF Done:  E(UM062X) =  -472.878958566     A.U. after   14 cycles
 SCF Done:  E(UM062X) =  -473.072482091     A.U. after   11 cycles
 SCF Done:  E(UM062X) =  -473.277947113     A.U. after   16 cycles
 SCF Done:  E(UM062X) =  -473.293886561     A.U. after   71 cycles
 SCF Done:  E(UM062X) =  -473.294165338     A.U. after   10 cycles
 SCF Done:  E(UM062X) =  -473.294165417     A.U. after    9 cycles
 Optimization completed.
    -- Stationary point found.

                          Input orientation:
 ---------------------------------------------------------------------
 Center     Atomic      Atomic             Coordinates (Angstroms)
 Number     Number       Type             X           Y           Z
 ---------------------------------------------------------------------
      1          8           0        0.745068    0.000000    0.000000
      2         16           0       -0.745068    0.000000    0.000000
 ---------------------------------------------------------------------

 Alpha  occ. eigenvalues --  -89.99912 -19.70323  -8.36060  -6.28233  -6.28088
 Alpha  occ. eigenvalues --   -6.27213  -1.20608  -0.75128  -0.52114  -0.51426
 Alpha  occ. eigenvalues --   -0.49834  -0.28896
 Alpha virt. eigenvalues --   -0.13523   0.01551   0.02222   0.04480   0.05302
 Alpha virt. eigenvalues --    0.11446   0.19698   0.21127   0.21681   0.27153
 Alpha virt. eigenvalues --    0.32564   0.33506   0.38647   0.71310   0.76111

  Beta  occ. eigenvalues --  -89.99912 -19.70323  -8.36060  -6.28233  -6.28088
  Beta  occ. eigenvalues --   -6.27213  -1.20608  -0.75128  -0.52114  -0.51426
  Beta  occ. eigenvalues --   -0.49834  -0.28896
  Beta virt. eigenvalues --   -0.13523   0.01551   0.02222   0.04480   0.05302
  Beta virt. eigenvalues --    0.11446   0.19698   0.21127   0.21681   0.27153
  Beta virt. eigenvalues --    0.32564   0.33506   0.38647   0.71310   0.76111

 Mulliken charges and spin densities:
               1          2
     1  O   -0.221574  -0.000000
     2  S    0.221574   0.000000
 Sum of Mulliken charges =  -0.00000  -0.00000

 Dipole moment (field-independent basis, Debye):
    X=             -1.8351    Y=             -0.0000    Z=             -0.0000  Tot=              1.8351
 Quadrupole moment (field-independent basis, Debye-Ang):
   XX=            -18.0598   YY=            -19.9997   ZZ=            -15.7544
   XY=              0.0000   XZ=              0.0000   YZ=              0.0004

 Normal termination of Gaussian 16 at Wed Apr 16 05:08:39 2025.
