 Gaussian 16, Revision A.03,
 Gaussian 16:  ES64L-G16RevA.03 25-Dec-2016

 --------------------------------------------
 #p opt UM062X/6-311+G** nosymm int=superfine
 --------------------------------------------

 -------------------
 Title Card Required
 -------------------
 Symbolic Z-matrix:
 Charge =  1 Multiplicity = 2

 SCF Done:  E(UM062X) =  -76.5839172126     A.U. after   38 cycles
 SCF Done:  E(UM062X) =  -76.5842498659     A.U. after   20 cycles
 Optimization completed.
    -- Stationary point found.

                          Input orientation:
 ---------------------------------------------------------------------
 Center     Atomic      Atomic             Coordinates (Angstroms)
 Number     Number       Type             X           Y           Z
 ---------------------------------------------------------------------
      1          6           0       -2.107160    0.000000    0.000000
      2          6           0        2.107160    0.000000    0.000000
      3          1           0       -3.224678    0.000000   -0.000000
      4          1           0        3.224677    0.000000    0.000000
 ---------------------------------------------------------------------

 Alpha  occ. eigenvalues --  -10.94068 -10.94068  -0.97763  -0.97687  -0.63305
 Alpha  occ. eigenvalues --   -0.62666  -0.47305
 Alpha virt. eigenvalues --   -0.40619  -0.32869  -0.32679  -0.11980  -0.11169
 Alpha virt. eigenvalues --   -0.07490  -0.07128  -0.05750  -0.04632  -0.04318
 Alpha virt. eigenvalues --   -0.01594  -0.00283   0.05541   0.27992   0.28675

  Beta  occ. eigenvalues --  -10.93654 -10.93653  -0.95371  -0.95350  -0.61952
  Beta  occ. eigenvalues --   -0.61262
  Beta virt. eigenvalues --   -0.31009  -0.30764  -0.29402  -0.29114  -0.12420
  Beta virt. eigenvalues --   -0.11102  -0.06783  -0.06235  -0.05941  -0.03854
  Beta virt. eigenvalues --   -0.02906  -0.01930   0.01304   0.07277   0.27120

 Mulliken charges and spin densities:
               1          2
     1  C    0.275233   0.516350
     2  C    0.275233   0.516351
     3  H    0.224767  -0.016351
     4  H    0.224767  -0.016350
 Sum of Mulliken charges =   1.00000   1.00000

 Dipole moment (field-independent basis, Debye):
    X=             -0.0000    Y=              0.0000    Z=             -0.0000  Tot=              0.0000
 Quadrupole moment (field-independent basis, Debye-Ang):
   XX=             27.7693   YY=             -9.6197   ZZ=            -11.3309
   XY=              0.0000   XZ=              0.0000   YZ=              0.5144

 Normal termination of Gaussian 16 at Tue Dec  3 11:34:52 2024.
