 Gaussian 16, Revision A.03,
 Gaussian 16:  ES64L-G16RevA.03 25-Dec-2016

 --------------------------------------------
 #p opt UM062X/6-311+G** nosymm int=superfine
 --------------------------------------------

 -------------------
 Title Card Required
 -------------------
 Symbolic Z-matrix:
 Charge =  0 Multiplicity = 1

 SCF Done:  E(UM062X) =  -582.516785904     A.U. after    9 cycles
 SCF Done:  E(UM062X) =  -582.516892673     A.U. after    7 cycles
 SCF Done:  E(UM062X) =  -582.516902554     A.U. after    7 cycles
 Optimization completed.
    -- Stationary point found.

                          Input orientation:
 ---------------------------------------------------------------------
 Center     Atomic      Atomic             Coordinates (Angstroms)
 Number     Number       Type             X           Y           Z
 ---------------------------------------------------------------------
      1         14           0       -1.294819    0.000000    0.000000
      2         14           0        1.294819    0.000000    0.000000
      3          1           0        1.788378   -1.395031   -0.000026
      4          1           0       -1.788418   -0.697376    1.208203
      5          1           0        1.788497    0.697497   -1.208099
      6          1           0        1.788420    0.697426    1.208172
      7          1           0       -1.788380    1.395030   -0.000087
      8          1           0       -1.788499   -0.697549   -1.208068
 ---------------------------------------------------------------------

 Alpha  occ. eigenvalues --  -66.99659 -66.99659  -5.54680  -5.54678  -3.85831
 Alpha  occ. eigenvalues --   -3.85810  -3.85781  -3.85781  -3.85779  -3.85779
 Alpha  occ. eigenvalues --   -0.62934  -0.58379  -0.41792  -0.41792  -0.40034
 Alpha  occ. eigenvalues --   -0.40033  -0.32225
 Alpha virt. eigenvalues --    0.00461   0.01919   0.03151   0.03151   0.04410
 Alpha virt. eigenvalues --    0.05681   0.05681   0.05744   0.05744   0.06414
 Alpha virt. eigenvalues --    0.09018   0.09018   0.09326   0.15737   0.17960

  Beta  occ. eigenvalues --  -66.99659 -66.99659  -5.54680  -5.54678  -3.85831
  Beta  occ. eigenvalues --   -3.85810  -3.85781  -3.85781  -3.85779  -3.85779
  Beta  occ. eigenvalues --   -0.62934  -0.58379  -0.41792  -0.41792  -0.40034
  Beta  occ. eigenvalues --   -0.40033  -0.32225
  Beta virt. eigenvalues --    0.00461   0.01919   0.03151   0.03151   0.04410
  Beta virt. eigenvalues --    0.05681   0.05681   0.05744   0.05744   0.06414
  Beta virt. eigenvalues --    0.09018   0.09018   0.09326   0.15737   0.17960

 Mulliken charges and spin densities:
               1          2
     1  Si   0.299893   0.000000
     2  Si   0.299893  -0.000000
     3  H   -0.099966   0.000000
     4  H   -0.099964  -0.000000
     5  H   -0.099963  -0.000000
     6  H   -0.099964   0.000000
     7  H   -0.099966  -0.000000
     8  H   -0.099963  -0.000000
 Sum of Mulliken charges =  -0.00000  -0.00000

 Dipole moment (field-independent basis, Debye):
    X=              0.0000    Y=              0.0000    Z=             -0.0000  Tot=              0.0000
 Quadrupole moment (field-independent basis, Debye-Ang):
   XX=            -31.9463   YY=            -31.4450   ZZ=            -31.4449
   XY=              0.0004   XZ=             -0.0000   YZ=              0.0000

 Normal termination of Gaussian 16 at Mon Apr 21 20:18:29 2025.
