 Gaussian 16, Revision A.03,
 Gaussian 16:  ES64L-G16RevA.03 25-Dec-2016

 --------------------------------------------
 #p opt UM062X/6-311+G** nosymm int=superfine
 --------------------------------------------

 -------------------
 Title Card Required
 -------------------
 Symbolic Z-matrix:
 Charge =  0 Multiplicity = 1

 SCF Done:  E(UM062X) =  -78.2157866037     A.U. after    8 cycles
 SCF Done:  E(UM062X) =  -78.2165296170     A.U. after    9 cycles
 SCF Done:  E(UM062X) =  -78.2169121798     A.U. after    9 cycles
 Optimization completed.
    -- Stationary point found.

                          Input orientation:
 ---------------------------------------------------------------------
 Center     Atomic      Atomic             Coordinates (Angstroms)
 Number     Number       Type             X           Y           Z
 ---------------------------------------------------------------------
      1          6           0       -1.335595    0.000000    0.000000
      2          6           0        1.335595    0.000000    0.000000
      3          1           0       -1.734117   -1.001195   -0.000000
      4          1           0       -1.734112    1.001201   -0.000000
      5          1           0        1.734117    1.001195   -0.000000
      6          1           0        1.734112   -1.001201    0.000000
 ---------------------------------------------------------------------

 Alpha  occ. eigenvalues --  -10.63000 -10.62995  -0.75884  -0.73899  -0.53695
 Alpha  occ. eigenvalues --   -0.52874  -0.30967  -0.23484
 Alpha virt. eigenvalues --   -0.10903  -0.07281   0.03384   0.05280   0.05330
 Alpha virt. eigenvalues --    0.06953   0.09396   0.10306   0.11114   0.14116
 Alpha virt. eigenvalues --    0.16251   0.18674   0.21496   0.27069   0.39693

  Beta  occ. eigenvalues --  -10.63000 -10.62995  -0.75884  -0.73899  -0.53695
  Beta  occ. eigenvalues --   -0.52874  -0.30967  -0.23484
  Beta virt. eigenvalues --   -0.10903  -0.07281   0.03384   0.05280   0.05330
  Beta virt. eigenvalues --    0.06953   0.09396   0.10306   0.11114   0.14116
  Beta virt. eigenvalues --    0.16251   0.18674   0.21496   0.27069   0.39693

 Mulliken charges and spin densities:
               1          2
     1  C   -0.384796  -0.000000
     2  C   -0.384796   0.000000
     3  H    0.192398   0.000000
     4  H    0.192398   0.000000
     5  H    0.192398  -0.000000
     6  H    0.192398  -0.000000
 Sum of Mulliken charges =  -0.00000   0.00000

 Dipole moment (field-independent basis, Debye):
    X=             -0.0000    Y=              0.0000    Z=             -0.0000  Tot=              0.0000
 Quadrupole moment (field-independent basis, Debye-Ang):
   XX=             -9.9483   YY=            -11.8535   ZZ=            -19.0354
   XY=              0.0000   XZ=              0.0000   YZ=              0.0000

 Normal termination of Gaussian 16 at Tue Dec  3 11:07:18 2024.
