 Gaussian 16, Revision A.03,
 Gaussian 16:  ES64L-G16RevA.03 25-Dec-2016

 ---------------------------------------
 #p UM062X/6-311+G** force int=superfine
 ---------------------------------------

 -------------------
 Title Card Required
 -------------------
 Symbolic Z-matrix:
 Charge =  0 Multiplicity = 1

                         Standard orientation:
 ---------------------------------------------------------------------
 Center     Atomic      Atomic             Coordinates (Angstroms)
 Number     Number       Type             X           Y           Z
 ---------------------------------------------------------------------
      1          7           0        0.000000    0.000000    1.470048
      2          7           0        0.000000    0.000000   -1.470048
 ---------------------------------------------------------------------

 SCF Done:  E(UM062X) =  -108.782808503     A.U. after    9 cycles

 The electronic state is 1-SGG.
 Alpha  occ. eigenvalues --  -14.97046 -14.97041  -0.88000  -0.86252  -0.35661
 Alpha  occ. eigenvalues --   -0.33612  -0.33612
 Alpha virt. eigenvalues --   -0.23213  -0.23213  -0.20749   0.07227   0.09319
 Alpha virt. eigenvalues --    0.11283   0.11283   0.15106   0.15106   0.16048
 Alpha virt. eigenvalues --    0.22689   0.70118   0.76101   0.76101   0.79951

  Beta  occ. eigenvalues --  -14.97046 -14.97041  -0.88000  -0.86252  -0.35661
  Beta  occ. eigenvalues --   -0.33612  -0.33612
  Beta virt. eigenvalues --   -0.23213  -0.23213  -0.20749   0.07227   0.09319
  Beta virt. eigenvalues --    0.11283   0.11283   0.15106   0.15106   0.16048
  Beta virt. eigenvalues --    0.22689   0.70118   0.76101   0.76101   0.79951

 Mulliken charges and spin densities:
               1          2
     1  N    0.000000   0.000000
     2  N    0.000000   0.000000
 Sum of Mulliken charges =   0.00000   0.00000

 Dipole moment (field-independent basis, Debye):
    X=              0.0000    Y=             -0.0000    Z=              0.0000  Tot=              0.0000
 Quadrupole moment (field-independent basis, Debye-Ang):
   XX=            -12.4405   YY=            -12.4405   ZZ=            -10.5867
   XY=              0.0000   XZ=             -0.0000   YZ=              0.0000

 Optimization completed.
    -- Stationary point found.
 Normal termination of Gaussian 16 at Wed Feb 26 13:55:49 2025.
