 Gaussian 16, Revision A.03,
 Gaussian 16:  ES64L-G16RevA.03 25-Dec-2016

 --------------------------------------------
 #p opt UM062X/6-311+G** nosymm int=superfine
 --------------------------------------------

 -------------------
 Title Card Required
 -------------------
 Symbolic Z-matrix:
 Charge =  0 Multiplicity = 1

 SCF Done:  E(UM062X) =  -115.639295878     A.U. after   11 cycles
 SCF Done:  E(UM062X) =  -115.647022829     A.U. after   10 cycles
 SCF Done:  E(UM062X) =  -115.647653505     A.U. after   10 cycles
 SCF Done:  E(UM062X) =  -115.647656095     A.U. after    8 cycles
 SCF Done:  E(UM062X) =  -115.647656420     A.U. after    7 cycles
 Optimization completed.
    -- Stationary point found.

                          Input orientation:
 ---------------------------------------------------------------------
 Center     Atomic      Atomic             Coordinates (Angstroms)
 Number     Number       Type             X           Y           Z
 ---------------------------------------------------------------------
      1          6           0       -0.932203    0.000000    0.000000
      2          8           0        0.932203    0.000000    0.000000
      3          1           0        1.095379   -0.949232    0.000364
      4          1           0       -1.195279   -0.509743    0.918401
      5          1           0       -1.111381    1.066257   -0.000711
      6          1           0       -1.195311   -0.510962   -0.917715
 ---------------------------------------------------------------------

 Alpha  occ. eigenvalues --  -19.61749 -10.61317  -1.06261  -0.79781  -0.53230
 Alpha  occ. eigenvalues --   -0.51755  -0.47856  -0.39660  -0.35724
 Alpha virt. eigenvalues --   -0.00422   0.01248   0.04976   0.05367   0.08992
 Alpha virt. eigenvalues --    0.15434   0.17639   0.17804   0.20412   0.23081
 Alpha virt. eigenvalues --    0.23589   0.24143   0.32980   0.41657   0.43047

  Beta  occ. eigenvalues --  -19.61749 -10.61317  -1.06261  -0.79781  -0.53230
  Beta  occ. eigenvalues --   -0.51755  -0.47856  -0.39660  -0.35724
  Beta virt. eigenvalues --   -0.00422   0.01248   0.04976   0.05367   0.08992
  Beta virt. eigenvalues --    0.15434   0.17639   0.17804   0.20412   0.23081
  Beta virt. eigenvalues --    0.23589   0.24143   0.32980   0.41657   0.43047

 Mulliken charges and spin densities:
               1          2
     1  C   -0.303417  -0.000000
     2  O   -0.473618   0.000000
     3  H    0.237097  -0.000000
     4  H    0.174489   0.000000
     5  H    0.190973   0.000000
     6  H    0.174477   0.000000
 Sum of Mulliken charges =  -0.00000   0.00000

 Dipole moment (field-independent basis, Debye):
    X=             -2.5838    Y=             -1.5346    Z=              0.0006  Tot=              3.0052
 Quadrupole moment (field-independent basis, Debye-Ang):
   XX=            -13.4890   YY=            -11.4718   ZZ=            -13.8152
   XY=             -2.1056   XZ=              0.0008   YZ=             -0.0009

 Normal termination of Gaussian 16 at Mon Apr 21 18:41:14 2025.
