 Gaussian 16, Revision A.03,
 Gaussian 16:  ES64L-G16RevA.03 25-Dec-2016

 ---------------------------------------------------
 #p UM062X/6-311+G** force int=superfine pop=saveNBO
 ---------------------------------------------------

 -------------------
 Title Card Required
 -------------------
 Symbolic Z-matrix:
 Charge =  0 Multiplicity = 1

                         Standard orientation:
 ---------------------------------------------------------------------
 Center     Atomic      Atomic             Coordinates (Angstroms)
 Number     Number       Type             X           Y           Z
 ---------------------------------------------------------------------
      1          6           0        0.000000    0.000000   -1.184094
      2          8           0        0.000000    0.000000    0.888070
 ---------------------------------------------------------------------

 SCF Done:  E(UM062X) =  -112.891091450     A.U. after   16 cycles

 The electronic state is 1-SG.
 Alpha  occ. eigenvalues --  -19.70727 -10.84832  -1.01166  -0.71812  -0.40074
 Alpha  occ. eigenvalues --   -0.37396  -0.37396
 Alpha virt. eigenvalues --   -0.17407  -0.17407  -0.08841   0.03185   0.06294
 Alpha virt. eigenvalues --    0.06294   0.06931   0.20074   0.22592   0.22592
 Alpha virt. eigenvalues --    0.32145   0.51416   0.51416   0.53017   0.67696

  Beta  occ. eigenvalues --  -19.70727 -10.84832  -1.01166  -0.71812  -0.40074
  Beta  occ. eigenvalues --   -0.37396  -0.37396
  Beta virt. eigenvalues --   -0.17407  -0.17407  -0.08841   0.03185   0.06294
  Beta virt. eigenvalues --    0.06294   0.06931   0.20074   0.22592   0.22592
  Beta virt. eigenvalues --    0.32145   0.51416   0.51416   0.53017   0.67696

 Mulliken charges and spin densities:
               1          2
     1  C    0.336999   0.000000
     2  O   -0.336999  -0.000000
 Sum of Mulliken charges =  -0.00000   0.00000

 Dipole moment (field-independent basis, Debye):
    X=              0.0000    Y=              0.0000    Z=             -3.4810  Tot=              3.4810
 Quadrupole moment (field-independent basis, Debye-Ang):
   XX=            -11.5803   YY=            -11.5803   ZZ=            -10.7863
   XY=              0.0000   XZ=              0.0000   YZ=              0.0000

 Summary of Natural Population Analysis:

                                       Natural Population
                Natural  -----------------------------------------------
    Atom  No    Charge         Core      Valence    Rydberg      Total
 -----------------------------------------------------------------------
      C    1    0.29599      1.00000     1.70248    0.00154     2.70401
      O    2   -0.29599      1.00000     3.29466    0.00133     4.29599
 =======================================================================
   * Total *    0.00000      1.99999     4.99714    0.00287     7.00000

 Normal termination of Gaussian 16 at Mon Apr 21 19:31:32 2025.
