 Gaussian 16, Revision A.03,
 Gaussian 16:  ES64L-G16RevA.03 25-Dec-2016

 ---------------------------------------------------
 #p UM062X/6-311+G** force int=superfine pop=saveNBO
 ---------------------------------------------------

 -------------------
 Title Card Required
 -------------------
 Symbolic Z-matrix:
 Charge =  0 Multiplicity = 1

                         Standard orientation:
 ---------------------------------------------------------------------
 Center     Atomic      Atomic             Coordinates (Angstroms)
 Number     Number       Type             X           Y           Z
 ---------------------------------------------------------------------
      1          8           0        0.000000    0.000000    1.543562
      2          8           0        0.000000    0.000000   -1.543562
 ---------------------------------------------------------------------

 SCF Done:  E(UM062X) =  -149.806820346     A.U. after    9 cycles

 Unable to determine electronic state:  partially filled degenerate orbitals.
 Alpha  occ. eigenvalues --  -19.82860 -19.82857  -1.10576  -1.09893  -0.48828
 Alpha  occ. eigenvalues --   -0.48436  -0.41410  -0.40266
 Alpha virt. eigenvalues --   -0.30761  -0.29370   0.09606   0.12624   0.14429
 Alpha virt. eigenvalues --    0.14471   0.19553   0.19621   0.19874   0.29286
 Alpha virt. eigenvalues --    0.98856   0.99790   1.01033   1.01494   1.02812

  Beta  occ. eigenvalues --  -19.82860 -19.82857  -1.10576  -1.09893  -0.48828
  Beta  occ. eigenvalues --   -0.48436  -0.41410  -0.40266
  Beta virt. eigenvalues --   -0.30761  -0.29370   0.09606   0.12624   0.14429
  Beta virt. eigenvalues --    0.14471   0.19553   0.19621   0.19874   0.29286
  Beta virt. eigenvalues --    0.98856   0.99790   1.01033   1.01494   1.02812

 Mulliken charges and spin densities:
               1          2
     1  O    0.000000   0.000000
     2  O    0.000000   0.000000
 Sum of Mulliken charges =   0.00000   0.00000

 Dipole moment (field-independent basis, Debye):
    X=              0.0000    Y=             -0.0000    Z=             -0.0000  Tot=              0.0000
 Quadrupole moment (field-independent basis, Debye-Ang):
   XX=            -12.0280   YY=            -10.1880   ZZ=             -9.1762
   XY=              0.0000   XZ=             -0.0000   YZ=              0.0000

 Summary of Natural Population Analysis:

                                       Natural Population
                Natural  -----------------------------------------------
    Atom  No    Charge         Core      Valence    Rydberg      Total
 -----------------------------------------------------------------------
      O    1    0.00000      1.00000     2.99908    0.00092     4.00000
      O    2    0.00000      1.00000     2.99908    0.00092     4.00000
 =======================================================================
   * Total *    0.00000      2.00000     5.99815    0.00185     8.00000

 Normal termination of Gaussian 16 at Mon Apr 21 19:48:46 2025.
