 Gaussian 16, Revision A.03,
 Gaussian 16:  ES64L-G16RevA.03 25-Dec-2016

 --------------------------------------------
 #p opt UM062X/6-311+G** nosymm int=superfine
 --------------------------------------------

 -------------------
 Title Card Required
 -------------------
 Symbolic Z-matrix:
 Charge =  1 Multiplicity = 2

 SCF Done:  E(UM062X) =  -92.6817003679     A.U. after   20 cycles
 SCF Done:  E(UM062X) =  -92.6820068387     A.U. after   14 cycles
 SCF Done:  E(UM062X) =  -92.6820074092     A.U. after   12 cycles
 Optimization completed.
    -- Stationary point found.

                          Input orientation:
 ---------------------------------------------------------------------
 Center     Atomic      Atomic             Coordinates (Angstroms)
 Number     Number       Type             X           Y           Z
 ---------------------------------------------------------------------
      1          6           0       -0.926540    0.000000    0.000000
      2          7           0        0.926540    0.000000    0.000000
      3          1           0       -2.043888    0.000000    0.000000
 ---------------------------------------------------------------------

 Alpha  occ. eigenvalues --  -15.23891 -11.09167  -1.21368  -1.06918  -0.79041
 Alpha  occ. eigenvalues --   -0.72117  -0.65293
 Alpha virt. eigenvalues --   -0.43636  -0.42776  -0.35677  -0.16227  -0.11428
 Alpha virt. eigenvalues --   -0.10517  -0.10016  -0.05429  -0.01952  -0.01490
 Alpha virt. eigenvalues --    0.01415   0.07703   0.23996   0.29296   0.29370

  Beta  occ. eigenvalues --  -15.22961 -11.09091  -1.15860  -1.05185  -0.77421
  Beta  occ. eigenvalues --   -0.64431
  Beta virt. eigenvalues --   -0.45219  -0.41371  -0.34755  -0.33070  -0.16661
  Beta virt. eigenvalues --   -0.11794  -0.10458  -0.10348  -0.05788  -0.02328
  Beta virt. eigenvalues --   -0.01936   0.01485   0.06120   0.23975   0.28599

 Mulliken charges and spin densities:
               1          2
     1  C    0.253733   0.223954
     2  N    0.387634   0.795845
     3  H    0.358633  -0.019800
 Sum of Mulliken charges =   1.00000   1.00000

 Dipole moment (field-independent basis, Debye):
    X=             -4.1392    Y=              0.0000    Z=              0.0000  Tot=              4.1392
 Quadrupole moment (field-independent basis, Debye-Ang):
   XX=              0.3937   YY=            -11.2493   ZZ=             -9.3128
   XY=             -0.0000   XZ=             -0.0000   YZ=             -0.2249

 Normal termination of Gaussian 16 at Mon Apr 21 18:33:53 2025.
