 Gaussian 16, Revision A.03,
 Gaussian 16:  ES64L-G16RevA.03 25-Dec-2016

 --------------------------------------------
 #p opt UM062X/6-311+G** nosymm int=superfine
 --------------------------------------------

 -------------------
 Title Card Required
 -------------------
 Symbolic Z-matrix:
 Charge =  0 Multiplicity = 1

 SCF Done:  E(UM062X) =  -438.613275882     A.U. after   11 cycles
 SCF Done:  E(UM062X) =  -438.619371043     A.U. after   10 cycles
 SCF Done:  E(UM062X) =  -438.620486443     A.U. after   10 cycles
 SCF Done:  E(UM062X) =  -438.620492230     A.U. after    8 cycles
 SCF Done:  E(UM062X) =  -438.620493850     A.U. after    8 cycles
 Optimization completed.
    -- Stationary point found.

                          Input orientation:
 ---------------------------------------------------------------------
 Center     Atomic      Atomic             Coordinates (Angstroms)
 Number     Number       Type             X           Y           Z
 ---------------------------------------------------------------------
      1          6           0       -1.210220    0.000000    0.000000
      2         16           0        1.210220    0.000000    0.000000
      3          1           0        1.231048   -1.342885   -0.001407
      4          1           0       -1.391598    1.066418    0.002522
      5          1           0       -1.424748   -0.519500   -0.923923
      6          1           0       -1.424752   -0.523812    0.921489
 ---------------------------------------------------------------------

 Alpha  occ. eigenvalues --  -89.89385 -10.60626  -8.25637  -6.17723  -6.17593
 Alpha  occ. eigenvalues --   -6.17086  -0.81760  -0.76010  -0.51511  -0.51486
 Alpha  occ. eigenvalues --   -0.43747  -0.34468  -0.29555
 Alpha virt. eigenvalues --   -0.05150   0.02092   0.04456   0.05334   0.05718
 Alpha virt. eigenvalues --    0.07430   0.07809   0.08595   0.11461   0.13590
 Alpha virt. eigenvalues --    0.17552   0.18304   0.23974   0.32777   0.35414

  Beta  occ. eigenvalues --  -89.89385 -10.60626  -8.25637  -6.17723  -6.17593
  Beta  occ. eigenvalues --   -6.17086  -0.81760  -0.76010  -0.51511  -0.51486
  Beta  occ. eigenvalues --   -0.43747  -0.34468  -0.29555
  Beta virt. eigenvalues --   -0.05150   0.02092   0.04456   0.05334   0.05718
  Beta virt. eigenvalues --    0.07430   0.07809   0.08595   0.11461   0.13590
  Beta virt. eigenvalues --    0.17552   0.18304   0.23974   0.32777   0.35414

 Mulliken charges and spin densities:
               1          2
     1  C   -0.519465  -0.000000
     2  S   -0.146205   0.000000
     3  H    0.063265  -0.000000
     4  H    0.200016   0.000000
     5  H    0.201216   0.000000
     6  H    0.201173   0.000000
 Sum of Mulliken charges =   0.00000  -0.00000

 Dipole moment (field-independent basis, Debye):
    X=             -2.3437    Y=             -0.9254    Z=             -0.0010  Tot=              2.5198
 Quadrupole moment (field-independent basis, Debye-Ang):
   XX=            -21.0570   YY=            -19.3211   ZZ=            -23.2763
   XY=             -1.5055   XZ=             -0.0016   YZ=              0.0042

 Normal termination of Gaussian 16 at Mon Apr 21 19:34:17 2025.
