 Gaussian 16, Revision A.03,
 Gaussian 16:  ES64L-G16RevA.03 25-Dec-2016

 --------------------------------------------
 #p opt UM062X/6-311+G** nosymm int=superfine
 --------------------------------------------

 -------------------
 Title Card Required
 -------------------
 Symbolic Z-matrix:
 Charge =  0 Multiplicity = 3

 SCF Done:  E(UM062X) =  -50.5106086990     A.U. after   13 cycles
 SCF Done:  E(UM062X) =  -50.5115833808     A.U. after   10 cycles
 SCF Done:  E(UM062X) =  -50.5115909907     A.U. after    8 cycles
 Optimization completed.
    -- Stationary point found.

                          Input orientation:
 ---------------------------------------------------------------------
 Center     Atomic      Atomic             Coordinates (Angstroms)
 Number     Number       Type             X           Y           Z
 ---------------------------------------------------------------------
      1          5           0       -1.528410    0.000000    0.000000
      2          5           0        1.528410    0.000000    0.000000
      3          1           0       -2.734936   -0.000082   -0.000000
      4          1           0        2.734936    0.000082    0.000000
 ---------------------------------------------------------------------

 Alpha  occ. eigenvalues --   -7.13738  -7.13737  -0.56648  -0.56014  -0.35468
 Alpha  occ. eigenvalues --   -0.26879  -0.18898
 Alpha virt. eigenvalues --   -0.08059  -0.06791  -0.04273   0.02633   0.02734
 Alpha virt. eigenvalues --    0.06014   0.07199   0.07225   0.08122   0.08224
 Alpha virt. eigenvalues --    0.12135   0.19238   0.22971   0.35948   0.39126

  Beta  occ. eigenvalues --   -7.12801  -7.12799  -0.53207  -0.52827  -0.26908
  Beta virt. eigenvalues --   -0.06674  -0.04950  -0.04449  -0.01943  -0.01539
  Beta virt. eigenvalues --    0.01647   0.02704   0.06931   0.06983   0.07377
  Beta virt. eigenvalues --    0.08549   0.09696   0.09893   0.20525   0.24232

 Mulliken charges and spin densities:
               1          2
     1  B   -0.066617   0.913948
     2  B   -0.066617   0.913948
     3  H    0.066617   0.086052
     4  H    0.066617   0.086052
 Sum of Mulliken charges =  -0.00000   2.00000

 Dipole moment (field-independent basis, Debye):
    X=             -0.0000    Y=             -0.0000    Z=              0.0000  Tot=              0.0000
 Quadrupole moment (field-independent basis, Debye-Ang):
   XX=            -10.3759   YY=            -13.4973   ZZ=            -17.5543
   XY=              0.0001   XZ=              0.0000   YZ=              0.0004

 1\1\GINC-NODE06\FOpt\UM062X\6-311+G(d,p)\B2H2(3)\SZHAO\21-Apr-2025\0\\
 #p opt UM062X/6-311+G** nosymm int=superfine\\Title Card Required\\0,3
 \B,-1.52841047,0.,0.\B,1.52841047,0.,0.\H,-2.7349361842,-0.0000822669,
 -0.0000000085\H,2.7349361848,0.0000822666,0.0000000085\\Version=ES64L-
 G16RevA.03\HF=-50.511591\S2=2.011677\S2-1=0.\S2A=2.000011\RMSD=2.807e-
 09\RMSF=9.502e-07\Dipole=-0.0000007,0.,0.\Quadrupole=2.5525324,0.23184
 48,-2.7843772,0.0000424,0.,0.0003112\PG=C*V [C*(H1B1B1H1)]\\@

 Normal termination of Gaussian 16 at Mon Apr 21 17:28:41 2025.
