 Gaussian 16, Revision A.03,
 Gaussian 16:  ES64L-G16RevA.03 25-Dec-2016

 --------------------------------------------
 #p opt UM062X/6-311+G** nosymm int=superfine
 --------------------------------------------

 -------------------
 Title Card Required
 -------------------
 Symbolic Z-matrix:
 Charge =  1 Multiplicity = 2

 SCF Done:  E(UM062X) =  -379.301006769     A.U. after   28 cycles
 SCF Done:  E(UM062X) =  -379.301735191     A.U. after   21 cycles
 SCF Done:  E(UM062X) =  -379.301736616     A.U. after   12 cycles
 Optimization completed.
    -- Stationary point found.

                          Input orientation:
 ---------------------------------------------------------------------
 Center     Atomic      Atomic             Coordinates (Angstroms)
 Number     Number       Type             X           Y           Z
 ---------------------------------------------------------------------
      1          6           0       -1.844427    0.000000    0.000000
      2         15           0        1.844427    0.000000    0.000000
      3          1           0       -2.964434    0.000000    0.000001
 ---------------------------------------------------------------------

 Alpha  occ. eigenvalues --  -78.33113 -10.97339  -7.14622  -5.26759  -5.26400
 Alpha  occ. eigenvalues --   -5.25377  -0.99387  -0.86305  -0.65617  -0.51896
 Alpha  occ. eigenvalues --   -0.46423
 Alpha virt. eigenvalues --   -0.38264  -0.34945  -0.34483  -0.13321  -0.09790
 Alpha virt. eigenvalues --   -0.08588  -0.08258  -0.06587  -0.05592  -0.05199
 Alpha virt. eigenvalues --   -0.02374   0.00304   0.16377   0.16441   0.16584

  Beta  occ. eigenvalues --  -78.32362 -10.97296  -7.14396  -5.26186  -5.25244
  Beta  occ. eigenvalues --   -5.24464  -0.99156  -0.81153  -0.65430  -0.45424
  Beta virt. eigenvalues --   -0.37157  -0.34802  -0.33201  -0.29494  -0.13781
  Beta virt. eigenvalues --   -0.10797  -0.08495  -0.08266  -0.06568  -0.05240
  Beta virt. eigenvalues --   -0.04887  -0.02713   0.00137   0.13973   0.15464

 Mulliken charges and spin densities:
               1          2
     1  C    0.225663   0.054379
     2  P    0.523916   0.947870
     3  H    0.250421  -0.002249
 Sum of Mulliken charges =   1.00000   1.00000

 Dipole moment (field-independent basis, Debye):
    X=             -1.7724    Y=              0.0000    Z=              0.0000  Tot=              1.7724
 Quadrupole moment (field-independent basis, Debye-Ang):
   XX=             11.3158   YY=            -19.4558   ZZ=            -17.1457
   XY=              0.0000   XZ=             -0.0000   YZ=             -1.0780

 Normal termination of Gaussian 16 at Mon Apr 21 19:27:00 2025.
