 Gaussian 16, Revision A.03,
 Gaussian 16:  ES64L-G16RevA.03 25-Dec-2016

 --------------------------------------------
 #p opt UM062X/6-311+G** nosymm int=superfine
 --------------------------------------------

 -------------------
 Title Card Required
 -------------------
 Symbolic Z-matrix:
 Charge =  1 Multiplicity = 2

 SCF Done:  E(UM062X) =  -80.2103963932     A.U. after   20 cycles
 SCF Done:  E(UM062X) =  -80.2106010366     A.U. after   12 cycles
 SCF Done:  E(UM062X) =  -80.2106020542     A.U. after   11 cycles
 SCF Done:  E(UM062X) =  -80.2154299382     A.U. after   24 cycles
 SCF Done:  E(UM062X) =  -80.2238871791     A.U. after   21 cycles
 SCF Done:  E(UM062X) =  -80.2352765981     A.U. after   19 cycles
 SCF Done:  E(UM062X) =  -80.2341853771     A.U. after   17 cycles
 SCF Done:  E(UM062X) =  -80.2363888216     A.U. after   18 cycles
 SCF Done:  E(UM062X) =  -80.2382875441     A.U. after   17 cycles
 SCF Done:  E(UM062X) =  -80.2418536226     A.U. after   17 cycles
 SCF Done:  E(UM062X) =  -80.2418890121     A.U. after   12 cycles
 SCF Done:  E(UM062X) =  -80.2418929355     A.U. after   11 cycles
 Optimization completed.
    -- Stationary point found.

                          Input orientation:
 ---------------------------------------------------------------------
 Center     Atomic      Atomic             Coordinates (Angstroms)
 Number     Number       Type             X           Y           Z
 ---------------------------------------------------------------------
      1          5           0       -0.952734    0.000000    0.000000
      2          7           0        0.952734    0.000000    0.000000
      3          1           0       -1.903985    0.721508   -0.000163
      4          1           0        1.157090    1.019244    0.000103
 ---------------------------------------------------------------------

 Alpha  occ. eigenvalues --  -15.09071  -7.53013  -1.19720  -0.87074  -0.75891
 Alpha  occ. eigenvalues --   -0.65815  -0.65555
 Alpha virt. eigenvalues --   -0.37481  -0.33086  -0.23139  -0.15393  -0.11241
 Alpha virt. eigenvalues --   -0.10503  -0.10219  -0.04533  -0.04055  -0.01200
 Alpha virt. eigenvalues --   -0.00797   0.03748   0.05992   0.14235   0.15743

  Beta  occ. eigenvalues --  -15.07931  -7.53154  -1.12822  -0.87087  -0.73926
  Beta  occ. eigenvalues --   -0.62632
  Beta virt. eigenvalues --   -0.37453  -0.37372  -0.27230  -0.21345  -0.15355
  Beta virt. eigenvalues --   -0.10972  -0.10253  -0.09930  -0.04787  -0.04234
  Beta virt. eigenvalues --   -0.00934  -0.00869   0.02412   0.04081   0.13740

 Mulliken charges and spin densities:
               1          2
     1  B    0.571159  -0.049957
     2  N   -0.063944   1.105820
     3  H    0.217530  -0.016995
     4  H    0.275255  -0.038868
 Sum of Mulliken charges =   1.00000   1.00000

 Dipole moment (field-independent basis, Debye):
    X=             -4.1367    Y=              1.6509    Z=              0.0002  Tot=              4.4539
 Quadrupole moment (field-independent basis, Debye-Ang):
   XX=             -3.5768   YY=             -8.3902   ZZ=            -10.0159
   XY=              2.4923   XZ=              0.0004   YZ=             -0.0000

 Normal termination of Gaussian 16 at Mon Apr 21 17:53:26 2025.
