 Gaussian 16, Revision A.03,
 Gaussian 16:  ES64L-G16RevA.03 25-Dec-2016

 --------------------------------------------
 #p opt UM062X/6-311+G** nosymm int=superfine
 --------------------------------------------

 -------------------
 Title Card Required
 -------------------
 Symbolic Z-matrix:
 Charge =  0 Multiplicity = 1

 SCF Done:  E(UM062X) =  -92.9047301200     A.U. after   14 cycles
 SCF Done:  E(UM062X) =  -92.9064242155     A.U. after   11 cycles
 SCF Done:  E(UM062X) =  -92.9064322312     A.U. after    9 cycles
 Optimization completed.
    -- Stationary point found.

                          Input orientation:
 ---------------------------------------------------------------------
 Center     Atomic      Atomic             Coordinates (Angstroms)
 Number     Number       Type             X           Y           Z
 ---------------------------------------------------------------------
      1          6           0       -1.197395    0.000000    0.000000
      2          7           0        1.197395    0.000000    0.000000
      3          1           0       -2.318484   -0.000000   -0.000000
 ---------------------------------------------------------------------

 Alpha  occ. eigenvalues --  -14.86340 -10.74501  -0.80777  -0.77508  -0.43951
 Alpha  occ. eigenvalues --   -0.29885  -0.29885
 Alpha virt. eigenvalues --   -0.15104  -0.15104  -0.08903   0.01027   0.06851
 Alpha virt. eigenvalues --    0.07239   0.07239   0.13235   0.16967   0.16967
 Alpha virt. eigenvalues --    0.18524   0.26240   0.44818   0.53432   0.53432

  Beta  occ. eigenvalues --  -14.86340 -10.74501  -0.80777  -0.77508  -0.43951
  Beta  occ. eigenvalues --   -0.29885  -0.29885
  Beta virt. eigenvalues --   -0.15104  -0.15104  -0.08903   0.01027   0.06851
  Beta virt. eigenvalues --    0.07239   0.07239   0.13235   0.16967   0.16967
  Beta virt. eigenvalues --    0.18524   0.26240   0.44818   0.53432   0.53432

 Mulliken charges and spin densities:
               1          2
     1  C   -0.084747  -0.000000
     2  N   -0.113441   0.000000
     3  H    0.198188   0.000000
 Sum of Mulliken charges =  -0.00000  -0.00000

 Dipole moment (field-independent basis, Debye):
    X=             -3.8824    Y=             -0.0000    Z=             -0.0000  Tot=              3.8824
 Quadrupole moment (field-independent basis, Debye-Ang):
   XX=             -6.1259   YY=            -14.2424   ZZ=            -14.2424
   XY=              0.0000   XZ=              0.0000   YZ=             -0.0000

 Normal termination of Gaussian 16 at Mon Apr 21 18:38:18 2025.
