 Gaussian 16, Revision A.03,
 Gaussian 16:  ES64L-G16RevA.03 25-Dec-2016

 --------------------------------------------
 #p opt UM062X/6-311+G** nosymm int=superfine
 --------------------------------------------

 -------------------
 Title Card Required
 -------------------
 Symbolic Z-matrix:
 Charge =  0 Multiplicity = 1

 SCF Done:  E(UM062X) =  -684.932830937     A.U. after   11 cycles
 SCF Done:  E(UM062X) =  -684.933974455     A.U. after   10 cycles
 SCF Done:  E(UM062X) =  -684.934910848     A.U. after   11 cycles
 SCF Done:  E(UM062X) =  -684.935262825     A.U. after   10 cycles
 SCF Done:  E(UM062X) =  -684.935362209     A.U. after   12 cycles
 SCF Done:  E(UM062X) =  -684.935397649     A.U. after   13 cycles
 SCF Done:  E(UM062X) =  -684.935416729     A.U. after    9 cycles
 SCF Done:  E(UM062X) =  -684.935447303     A.U. after   10 cycles
 SCF Done:  E(UM062X) =  -684.935475253     A.U. after   12 cycles
 SCF Done:  E(UM062X) =  -684.935489169     A.U. after    9 cycles
 SCF Done:  E(UM062X) =  -684.935590084     A.U. after   13 cycles
 SCF Done:  E(UM062X) =  -684.935613331     A.U. after   12 cycles
 SCF Done:  E(UM062X) =  -684.935628268     A.U. after   11 cycles
 SCF Done:  E(UM062X) =  -684.935628301     A.U. after   11 cycles
 SCF Done:  E(UM062X) =  -684.935629670     A.U. after    9 cycles
 SCF Done:  E(UM062X) =  -684.935628864     A.U. after   10 cycles
 SCF Done:  E(UM062X) =  -684.935630077     A.U. after   11 cycles
 SCF Done:  E(UM062X) =  -684.935630065     A.U. after    8 cycles
 SCF Done:  E(UM062X) =  -684.935630174     A.U. after   11 cycles
 SCF Done:  E(UM062X) =  -684.935630209     A.U. after    7 cycles
 Optimization completed.
    -- Stationary point found.

                          Input orientation:
 ---------------------------------------------------------------------
 Center     Atomic      Atomic             Coordinates (Angstroms)
 Number     Number       Type             X           Y           Z
 ---------------------------------------------------------------------
      1         15           0       -2.017217    0.000000    0.000000
      2         15           0        2.017217    0.000000    0.000000
      3          1           0        1.938206   -1.022619    0.980160
      4          1           0       -1.931715    1.088597    0.905751
      5          1           0        1.937809   -0.942281   -1.057819
      6          1           0       -1.934795    0.865552   -1.121187
 ---------------------------------------------------------------------

 Alpha  occ. eigenvalues --  -78.05068 -78.05066  -6.87438  -6.87436  -4.98990
 Alpha  occ. eigenvalues --   -4.98989  -4.98863  -4.98862  -4.98680  -4.98678
 Alpha  occ. eigenvalues --   -0.71258  -0.70689  -0.45101  -0.44847  -0.36266
 Alpha  occ. eigenvalues --   -0.36016  -0.25378
 Alpha virt. eigenvalues --   -0.13974   0.01653   0.02900   0.03231   0.04055
 Alpha virt. eigenvalues --    0.04835   0.05957   0.06080   0.06093   0.06335
 Alpha virt. eigenvalues --    0.08118   0.14408   0.18619   0.28380   0.28955

  Beta  occ. eigenvalues --  -78.05068 -78.05066  -6.87438  -6.87436  -4.98990
  Beta  occ. eigenvalues --   -4.98989  -4.98863  -4.98862  -4.98680  -4.98678
  Beta  occ. eigenvalues --   -0.71258  -0.70689  -0.45101  -0.44847  -0.36266
  Beta  occ. eigenvalues --   -0.36016  -0.25378
  Beta virt. eigenvalues --   -0.13974   0.01653   0.02900   0.03231   0.04055
  Beta virt. eigenvalues --    0.04835   0.05957   0.06080   0.06093   0.06335
  Beta virt. eigenvalues --    0.08118   0.14408   0.18619   0.28380   0.28955

 Mulliken charges and spin densities:
               1          2
     1  P   -0.013111  -0.000000
     2  P   -0.013748   0.000000
     3  H    0.007223  -0.000000
     4  H    0.007283   0.000000
     5  H    0.006181  -0.000000
     6  H    0.006173   0.000000
 Sum of Mulliken charges =  -0.00000  -0.00000

 Dipole moment (field-independent basis, Debye):
    X=              0.0017    Y=             -0.0034    Z=             -0.1308  Tot=              0.1308
 Quadrupole moment (field-independent basis, Debye-Ang):
   XX=            -28.5799   YY=            -31.2385   ZZ=            -28.5405
   XY=             -4.1709   XZ=              0.1489   YZ=              0.0950

 Normal termination of Gaussian 16 at Mon Apr 21 20:55:36 2025.
