 Gaussian 16, Revision A.03,
 Gaussian 16:  ES64L-G16RevA.03 25-Dec-2016

 --------------------------------------------
 #p opt UM062X/6-311+G** nosymm int=superfine
 --------------------------------------------

 -------------------
 Title Card Required
 -------------------
 Symbolic Z-matrix:
 Charge =  0 Multiplicity = 1

 SCF Done:  E(UM062X) =  -379.570517807     A.U. after   15 cycles
 SCF Done:  E(UM062X) =  -379.571919536     A.U. after   10 cycles
 SCF Done:  E(UM062X) =  -379.571925485     A.U. after   10 cycles
 Optimization completed.
    -- Stationary point found.

                          Input orientation:
 ---------------------------------------------------------------------
 Center     Atomic      Atomic             Coordinates (Angstroms)
 Number     Number       Type             X           Y           Z
 ---------------------------------------------------------------------
      1          6           0       -1.815377    0.000000    0.000000
      2         15           0        1.815377    0.000000    0.000000
      3          1           0       -2.937709    0.000000   -0.000000
 ---------------------------------------------------------------------

 Alpha  occ. eigenvalues --  -78.07454 -10.71885  -6.89333  -5.01235  -5.00309
 Alpha  occ. eigenvalues --   -5.00309  -0.76628  -0.60628  -0.42354  -0.23935
 Alpha  occ. eigenvalues --   -0.23935
 Alpha virt. eigenvalues --   -0.15347  -0.15347  -0.11774   0.01123   0.04077
 Alpha virt. eigenvalues --    0.05984   0.05984   0.07669   0.08550   0.08550
 Alpha virt. eigenvalues --    0.13281   0.16520   0.33201   0.33201   0.33564

  Beta  occ. eigenvalues --  -78.07454 -10.71885  -6.89333  -5.01235  -5.00309
  Beta  occ. eigenvalues --   -5.00309  -0.76628  -0.60628  -0.42354  -0.23935
  Beta  occ. eigenvalues --   -0.23935
  Beta virt. eigenvalues --   -0.15347  -0.15347  -0.11774   0.01123   0.04077
  Beta virt. eigenvalues --    0.05984   0.05984   0.07669   0.08550   0.08550
  Beta virt. eigenvalues --    0.13281   0.16520   0.33201   0.33201   0.33564

 Mulliken charges and spin densities:
               1          2
     1  C   -0.116994  -0.000000
     2  P   -0.051303   0.000000
     3  H    0.168297   0.000000
 Sum of Mulliken charges =  -0.00000   0.00000

 Dipole moment (field-independent basis, Debye):
    X=             -2.9988    Y=              0.0000    Z=             -0.0000  Tot=              2.9988
 Quadrupole moment (field-independent basis, Debye-Ang):
   XX=            -10.2346   YY=            -24.1642   ZZ=            -24.1642
   XY=              0.0000   XZ=              0.0000   YZ=             -0.0000

 Normal termination of Gaussian 16 at Mon Apr 21 19:30:53 2025.
