 Gaussian 16, Revision A.03,
 Gaussian 16:  ES64L-G16RevA.03 25-Dec-2016

 ---------------------------------------------------
 #p UM062X/6-311+G** force int=superfine pop=saveNBO
 ---------------------------------------------------

 -------------------
 Title Card Required
 -------------------
 Symbolic Z-matrix:
 Charge =  0 Multiplicity = 1

                         Standard orientation:
 ---------------------------------------------------------------------
 Center     Atomic      Atomic             Coordinates (Angstroms)
 Number     Number       Type             X           Y           Z
 ---------------------------------------------------------------------
      1         16           0        0.000000    0.000000    2.025200
      2         16           0        0.000000    0.000000   -2.025200
 ---------------------------------------------------------------------

 SCF Done:  E(UM062X) =  -796.030540787     A.U. after    9 cycles

 Unable to determine electronic state:  partially filled degenerate orbitals.
 Alpha  occ. eigenvalues --  -89.98727 -89.98727  -8.34532  -8.34532  -6.26559
 Alpha  occ. eigenvalues --   -6.26559  -6.26541  -6.26541  -6.25717  -6.25717
 Alpha  occ. eigenvalues --   -0.78083  -0.77437  -0.34868  -0.34454  -0.32299
 Alpha  occ. eigenvalues --   -0.31067
 Alpha virt. eigenvalues --   -0.23819  -0.22515   0.02955   0.03864   0.04703
 Alpha virt. eigenvalues --    0.05128   0.07038   0.07225   0.07467   0.12268
 Alpha virt. eigenvalues --    0.30716   0.32467   0.33307   0.35736   0.36618

  Beta  occ. eigenvalues --  -89.98727 -89.98727  -8.34532  -8.34532  -6.26559
  Beta  occ. eigenvalues --   -6.26559  -6.26541  -6.26541  -6.25717  -6.25717
  Beta  occ. eigenvalues --   -0.78083  -0.77437  -0.34868  -0.34454  -0.32299
  Beta  occ. eigenvalues --   -0.31067
  Beta virt. eigenvalues --   -0.23819  -0.22515   0.02955   0.03864   0.04703
  Beta virt. eigenvalues --    0.05128   0.07038   0.07225   0.07467   0.12268
  Beta virt. eigenvalues --    0.30716   0.32467   0.33307   0.35736   0.36618

 Mulliken charges and spin densities:
               1          2
     1  S    0.000000   0.000000
     2  S    0.000000   0.000000
 Sum of Mulliken charges =   0.00000   0.00000

 Dipole moment (field-independent basis, Debye):
    X=              0.0000    Y=              0.0000    Z=              0.0000  Tot=              0.0000
 Quadrupole moment (field-independent basis, Debye-Ang):
   XX=            -25.3802   YY=            -30.4048   ZZ=            -22.6767
   XY=              0.0000   XZ=             -0.0000   YZ=              0.0000

 Summary of Natural Population Analysis:

                                       Natural Population
                Natural  -----------------------------------------------
    Atom  No    Charge         Core      Valence    Rydberg      Total
 -----------------------------------------------------------------------
      S    1    0.00000      5.00000     2.99925    0.00075     8.00000
      S    2    0.00000      5.00000     2.99925    0.00075     8.00000
 =======================================================================
   * Total *    0.00000      9.99999     5.99851    0.00150    16.00000

 Normal termination of Gaussian 16 at Mon Apr 21 20:03:42 2025.
