 Gaussian 16, Revision A.03,
 Gaussian 16:  ES64L-G16RevA.03 25-Dec-2016

 --------------------------------------------
 #p opt UM062X/6-311+G** nosymm int=superfine
 --------------------------------------------

 -------------------
 Title Card Required
 -------------------
 Symbolic Z-matrix:
 Charge =  1 Multiplicity = 2

 SCF Done:  E(UM062X) =  -1615.43108229     A.U. after   28 cycles
 SCF Done:  E(UM062X) =  -1615.50911120     A.U. after   26 cycles
 SCF Done:  E(UM062X) =  -1615.57552807     A.U. after   23 cycles
 SCF Done:  E(UM062X) =  -1615.56928552     A.U. after   23 cycles
 SCF Done:  E(UM062X) =  -1615.57946026     A.U. after   24 cycles
 SCF Done:  E(UM062X) =  -1615.58082778     A.U. after   23 cycles
 SCF Done:  E(UM062X) =  -1615.57756799     A.U. after   27 cycles
 SCF Done:  E(UM062X) =  -1615.56420444     A.U. after   28 cycles
 SCF Done:  E(UM062X) =  -1615.55700309     A.U. after   25 cycles
 SCF Done:  E(UM062X) =  -1615.58087820     A.U. after   20 cycles
 SCF Done:  E(UM062X) =  -1615.58105568     A.U. after   25 cycles
 SCF Done:  E(UM062X) =  -1615.58112645     A.U. after   25 cycles
 SCF Done:  E(UM062X) =  -1615.58126660     A.U. after   24 cycles
 SCF Done:  E(UM062X) =  -1615.58129731     A.U. after   22 cycles
 SCF Done:  E(UM062X) =  -1615.58130921     A.U. after   19 cycles
 SCF Done:  E(UM062X) =  -1615.58131033     A.U. after   19 cycles
 SCF Done:  E(UM062X) =  -1615.58131447     A.U. after   17 cycles
 SCF Done:  E(UM062X) =  -1615.58131532     A.U. after   18 cycles
 SCF Done:  E(UM062X) =  -1615.58131568     A.U. after   18 cycles
 SCF Done:  E(UM062X) =  -1615.58131587     A.U. after   16 cycles
 Optimization completed.
    -- Stationary point found.

                          Input orientation:
 ---------------------------------------------------------------------
 Center     Atomic      Atomic             Coordinates (Angstroms)
 Number     Number       Type             X           Y           Z
 ---------------------------------------------------------------------
      1          6           0       -1.597835   -0.000000    0.000000
      2          6           0        1.597835   -0.000000    0.000000
      3          6           0        0.000039   -2.066662   -0.003250
      4          6           0        0.000042   -3.465259   -0.005333
      5          6           0       -1.133001   -4.294299    0.198706
      6          6           0       -1.311361   -1.469369    0.172199
      7          6           0        0.664182   -5.687454   -0.131864
      8          1           0        1.294759   -6.556586   -0.253279
      9          6           0       -1.638200    0.769714    1.217155
     10          6           0       -0.664210   -5.687817    0.113996
     11          1           0       -1.294825   -6.557305    0.232636
     12          6           0        1.133071   -4.293694   -0.211887
     13          6           0        1.311440   -1.468824   -0.176835
     14          6           0        1.769842    2.198106   -1.323203
     15          6           0       -1.715454    0.402565   -1.376286
     16          6           0       -1.848355    2.778901    2.607571
     17          1           0       -1.966335    3.854674    2.667280
     18          6           0       -2.344115   -3.700560    0.426339
     19          1           0       -3.247834   -4.272868    0.600739
     20          6           0       -1.710753    1.747174   -1.877344
     21          6           0        2.404034   -2.282291   -0.405335
     22          1           0        3.371230   -1.805406   -0.529164
     23          6           0        1.715612    0.398221    1.377589
     24          6           0        1.710220    1.741192    1.882973
     25          6           0        2.344214   -3.699272   -0.437593
     26          1           0        3.247924   -4.271044   -0.613793
     27          6           0       -1.771012    2.193658    1.330403
     28          6           0       -1.508277    0.053063    2.443403
     29          1           0       -1.360117   -1.015531    2.414619
     30          6           0        1.794523   -0.641987    2.357826
     31          1           0        1.828853   -1.671418    2.035411
     32          6           0       -1.773055    2.038904    3.769175
     33          1           0       -1.845883    2.525616    4.734161
     34          6           0       -2.403942   -2.283480    0.398371
     35          1           0       -3.371114   -1.806965    0.523772
     36          6           0       -1.740284    1.963971   -3.269827
     37          1           0       -1.717975    2.988100   -3.623876
     38          6           0        1.638464    0.773637   -1.214615
     39          6           0       -1.762783    3.136191    0.243279
     40          1           0       -1.792688    4.173080    0.563711
     41          6           0       -1.816192    0.934709   -4.179726
     42          1           0       -1.856194    1.144464   -5.241739
     43          6           0       -1.704363    2.949668   -1.090453
     44          1           0       -1.684024    3.859267   -1.683196
     45          6           0        1.740914    1.953510    3.276135
     46          1           0        1.718128    2.976468    3.633519
     47          6           0       -1.580378    0.658971    3.677464
     48          1           0       -1.484684    0.057279    4.573146
     49          6           0       -1.793214   -0.634519   -2.359951
     50          1           0       -1.827388   -1.665001   -2.040888
     51          6           0        1.818369    0.921370    4.182628
     52          1           0        1.859295    1.127716    5.245274
     53          6           0        1.847897    2.787492   -2.598413
     54          1           0        1.964753    3.863578   -2.654569
     55          6           0        1.862110   -0.394456    3.706988
     56          1           0        1.944839   -1.224530    4.397946
     57          6           0        1.774652    2.051117   -3.762443
     58          1           0        1.848067    2.540963   -4.725800
     59          6           0        1.759253    3.137163   -0.233093
     60          1           0        1.787035    4.175124   -0.550230
     61          6           0       -1.859800   -0.382658   -3.708355
     62          1           0       -1.941596   -1.210543   -4.402047
     63          6           0        1.701263    2.946240    1.100028
     64          1           0        1.679067    3.853862    1.695727
     65          6           0        1.510360    0.060810   -2.443297
     66          1           0        1.363156   -1.007999   -2.418057
     67          6           0        1.583203    0.670714   -3.675334
     68          1           0        1.489010    0.071809   -4.573043
 ---------------------------------------------------------------------

 Alpha  occ. eigenvalues --  -10.70682 -10.70681 -10.68648 -10.68648 -10.68602
 Alpha  occ. eigenvalues --  -10.68602 -10.68253 -10.68253 -10.68242 -10.68241
 Alpha  occ. eigenvalues --  -10.67403 -10.67392 -10.67267 -10.66703 -10.66702
 Alpha  occ. eigenvalues --  -10.66599 -10.66598 -10.65938 -10.65937 -10.65857
 Alpha  occ. eigenvalues --  -10.65856 -10.65732 -10.65731 -10.65714 -10.65713
 Alpha  occ. eigenvalues --  -10.65613 -10.65612 -10.65600 -10.65599 -10.65453
 Alpha  occ. eigenvalues --  -10.65453 -10.65421 -10.65420 -10.65336 -10.65336
 Alpha  occ. eigenvalues --  -10.65273 -10.65273 -10.64865 -10.64864 -10.63786
 Alpha  occ. eigenvalues --  -10.63729 -10.63685  -1.11850  -1.10335  -1.10017
 Alpha  occ. eigenvalues --   -1.08293  -1.07809  -1.05266  -1.04971  -1.02513
 Alpha  occ. eigenvalues --   -1.02139  -1.01015  -1.00225  -0.97939  -0.97651
 Alpha  occ. eigenvalues --   -0.96722  -0.96301  -0.94881  -0.93544  -0.93472
 Alpha  occ. eigenvalues --   -0.92858  -0.91728  -0.87360  -0.87173  -0.84986
 Alpha  occ. eigenvalues --   -0.84812  -0.83037  -0.81519  -0.80796  -0.79765
 Alpha  occ. eigenvalues --   -0.79675  -0.79536  -0.77345  -0.76316  -0.76169
 Alpha  occ. eigenvalues --   -0.75883  -0.75332  -0.73320  -0.70159  -0.69623
 Alpha  occ. eigenvalues --   -0.68787  -0.68539  -0.67755  -0.67658  -0.66904
 Alpha  occ. eigenvalues --   -0.66889  -0.65735  -0.65355  -0.65226  -0.64690
 Alpha  occ. eigenvalues --   -0.63225  -0.62755  -0.62404  -0.62111  -0.60964
 Alpha  occ. eigenvalues --   -0.60947  -0.60522  -0.60285  -0.60096  -0.60026
 Alpha  occ. eigenvalues --   -0.59541  -0.58815  -0.58774  -0.58106  -0.57666
 Alpha  occ. eigenvalues --   -0.57430  -0.57118  -0.55953  -0.55661  -0.55658
 Alpha  occ. eigenvalues --   -0.54931  -0.54012  -0.53013  -0.52849  -0.52618
 Alpha  occ. eigenvalues --   -0.52411  -0.52357  -0.52105  -0.51031  -0.50947
 Alpha  occ. eigenvalues --   -0.50880  -0.50848  -0.49663  -0.49541  -0.49515
 Alpha  occ. eigenvalues --   -0.48503  -0.48410  -0.47916  -0.45544  -0.44731
 Alpha  occ. eigenvalues --   -0.43928  -0.42783  -0.40560  -0.40418  -0.39271
 Alpha  occ. eigenvalues --   -0.38149  -0.37531  -0.37036  -0.30405
 Alpha virt. eigenvalues --   -0.21239  -0.16046  -0.15512  -0.14345  -0.10710
 Alpha virt. eigenvalues --   -0.09986  -0.08930  -0.08566  -0.08348  -0.07563
 Alpha virt. eigenvalues --   -0.07550  -0.07441  -0.06648  -0.06315  -0.06168

  Beta  occ. eigenvalues --  -10.70525 -10.70524 -10.68696 -10.68695 -10.68644
  Beta  occ. eigenvalues --  -10.68644 -10.68213 -10.68213 -10.68196 -10.68195
  Beta  occ. eigenvalues --  -10.67420 -10.67411 -10.67241 -10.66699 -10.66698
  Beta  occ. eigenvalues --  -10.66592 -10.66590 -10.65898 -10.65897 -10.65822
  Beta  occ. eigenvalues --  -10.65821 -10.65700 -10.65700 -10.65676 -10.65675
  Beta  occ. eigenvalues --  -10.65632 -10.65632 -10.65619 -10.65618 -10.65451
  Beta  occ. eigenvalues --  -10.65451 -10.65436 -10.65435 -10.65355 -10.65354
  Beta  occ. eigenvalues --  -10.65260 -10.65260 -10.64863 -10.64863 -10.63786
  Beta  occ. eigenvalues --  -10.63726 -10.63685  -1.11703  -1.10168  -1.09940
  Beta  occ. eigenvalues --   -1.08187  -1.07719  -1.05100  -1.04829  -1.02401
  Beta  occ. eigenvalues --   -1.02044  -1.00837  -1.00060  -0.97837  -0.97557
  Beta  occ. eigenvalues --   -0.96612  -0.96208  -0.94836  -0.93476  -0.93378
  Beta  occ. eigenvalues --   -0.92793  -0.91645  -0.87061  -0.86817  -0.84920
  Beta  occ. eigenvalues --   -0.84752  -0.82960  -0.81423  -0.80697  -0.79683
  Beta  occ. eigenvalues --   -0.79608  -0.79466  -0.77241  -0.76171  -0.76013
  Beta  occ. eigenvalues --   -0.75722  -0.75293  -0.73203  -0.70043  -0.69479
  Beta  occ. eigenvalues --   -0.68669  -0.68425  -0.67711  -0.67615  -0.66785
  Beta  occ. eigenvalues --   -0.66776  -0.65649  -0.65205  -0.65084  -0.64595
  Beta  occ. eigenvalues --   -0.63049  -0.62704  -0.62324  -0.62041  -0.60818
  Beta  occ. eigenvalues --   -0.60718  -0.60400  -0.60070  -0.59996  -0.59973
  Beta  occ. eigenvalues --   -0.59402  -0.58722  -0.58646  -0.58035  -0.57541
  Beta  occ. eigenvalues --   -0.57150  -0.56805  -0.55699  -0.55616  -0.55610
  Beta  occ. eigenvalues --   -0.54903  -0.53715  -0.52912  -0.52766  -0.52558
  Beta  occ. eigenvalues --   -0.52309  -0.52243  -0.52082  -0.50968  -0.50858
  Beta  occ. eigenvalues --   -0.50797  -0.50408  -0.49470  -0.49394  -0.48877
  Beta  occ. eigenvalues --   -0.48348  -0.47908  -0.47636  -0.44822  -0.44217
  Beta  occ. eigenvalues --   -0.43213  -0.42433  -0.40356  -0.40239  -0.38684
  Beta  occ. eigenvalues --   -0.38049  -0.37212  -0.36982
  Beta virt. eigenvalues --   -0.20784  -0.18220  -0.15906  -0.15494  -0.14407
  Beta virt. eigenvalues --   -0.10367  -0.09574  -0.08552  -0.08536  -0.08049
  Beta virt. eigenvalues --   -0.07613  -0.07567  -0.07245  -0.06634  -0.06264

 Mulliken charges and spin densities:
               1          2
     1  C    0.040472   0.379088
     2  C    0.041846   0.379424
     3  C    0.343574   0.019765
     4  C    0.213908  -0.014883
     5  C    0.127291   0.006759
     6  C   -0.015057  -0.040939
     7  C   -0.312523   0.000644
     8  H    0.176021  -0.000006
     9  C    0.054702  -0.052758
    10  C   -0.312298   0.000643
    11  H    0.176020  -0.000006
    12  C    0.127555   0.006706
    13  C   -0.016052  -0.040969
    14  C    0.551034   0.026085
    15  C    0.376053  -0.086704
    16  C   -0.422495  -0.034735
    17  H    0.165375   0.001161
    18  C   -0.487496   0.002004
    19  H    0.175570   0.000129
    20  C    0.256839   0.109014
    21  C   -0.093610   0.023660
    22  H    0.176585  -0.000406
    23  C    0.376150  -0.086814
    24  C    0.255957   0.109053
    25  C   -0.487119   0.002003
    26  H    0.175564   0.000130
    27  C    0.553132   0.026192
    28  C   -0.023012   0.083072
    29  H    0.210953  -0.004575
    30  C   -0.256777   0.039601
    31  H    0.224485  -0.003368
    32  C   -0.402812   0.060407
    33  H    0.182513  -0.003449
    34  C   -0.094165   0.023567
    35  H    0.176525  -0.000405
    36  C   -0.022263  -0.063521
    37  H    0.159584   0.001503
    38  C    0.056141  -0.052602
    39  C   -0.333941   0.052613
    40  H    0.164138  -0.002677
    41  C   -0.217545   0.073443
    42  H    0.181008  -0.003849
    43  C   -0.361207   0.011101
    44  H    0.160570  -0.000463
    45  C   -0.023376  -0.063521
    46  H    0.159624   0.001506
    47  C    0.003177  -0.041201
    48  H    0.167865   0.000177
    49  C   -0.256685   0.039530
    50  H    0.224474  -0.003373
    51  C   -0.218598   0.073252
    52  H    0.181029  -0.003840
    53  C   -0.423247  -0.034687
    54  H    0.165369   0.001162
    55  C   -0.560679  -0.035702
    56  H    0.176285   0.001443
    57  C   -0.403330   0.060428
    58  H    0.182502  -0.003448
    59  C   -0.331037   0.052744
    60  H    0.164021  -0.002688
    61  C   -0.562482  -0.035727
    62  H    0.176289   0.001445
    63  C   -0.359371   0.011064
    64  H    0.160421  -0.000464
    65  C   -0.024607   0.083056
    66  H    0.210963  -0.004574
    67  C    0.002312  -0.041395
    68  H    0.167888   0.000178
 Sum of Mulliken charges =   1.00000   1.00000

 Dipole moment (field-independent basis, Debye):
    X=              0.0001    Y=              2.5113    Z=              0.0038  Tot=              2.5113
 Quadrupole moment (field-independent basis, Debye-Ang):
   XX=           -222.3826   YY=           -174.8473   ZZ=           -176.2604
   XY=             -0.0222   XZ=              0.1650   YZ=              0.0023

 Normal termination of Gaussian 16 at Fri Nov  8 14:46:37 2024.
