 Gaussian 16, Revision A.03,
 Gaussian 16:  ES64L-G16RevA.03 25-Dec-2016

 --------------------------------------------
 #p opt UM062X/6-311+G** nosymm int=superfine
 --------------------------------------------

 -------------------
 Title Card Required
 -------------------
 Symbolic Z-matrix:
 Charge =  1 Multiplicity = 2

 SCF Done:  E(UM062X) =  -79.3126486664     A.U. after   10 cycles
 SCF Done:  E(UM062X) =  -79.3144147689     A.U. after    9 cycles
 SCF Done:  E(UM062X) =  -79.3144387907     A.U. after    9 cycles
 Optimization completed.
    -- Stationary point found.

                          Input orientation:
 ---------------------------------------------------------------------
 Center     Atomic      Atomic             Coordinates (Angstroms)
 Number     Number       Type             X           Y           Z
 ---------------------------------------------------------------------
      1          6           0       -2.168541    0.000000    0.000000
      2          6           0        2.168541    0.000000    0.000000
      3          1           0        2.191048   -0.937374    0.542539
      4          1           0       -2.189082   -0.938468   -0.540716
      5          1           0        2.190197    0.938563    0.540510
      6          1           0        2.189133   -0.001172   -1.083094
      7          1           0       -2.191109    0.937483   -0.542348
      8          1           0       -2.190187    0.000951    1.083075
 ---------------------------------------------------------------------

 Alpha  occ. eigenvalues --  -10.82917 -10.82916  -1.01536  -1.01330  -0.72644
 Alpha  occ. eigenvalues --   -0.72644  -0.72591  -0.72591  -0.46150
 Alpha virt. eigenvalues --   -0.37864  -0.12351  -0.10043  -0.09054  -0.09054
 Alpha virt. eigenvalues --   -0.06192  -0.06192  -0.04439  -0.02576   0.00556
 Alpha virt. eigenvalues --    0.00558   0.01524   0.01526   0.02300   0.09140

  Beta  occ. eigenvalues --  -10.82690 -10.82690  -0.98871  -0.98772  -0.72105
  Beta  occ. eigenvalues --   -0.72105  -0.72044  -0.72043
  Beta virt. eigenvalues --   -0.31525  -0.26683  -0.17129  -0.10299  -0.10298
  Beta virt. eigenvalues --   -0.10246  -0.06134  -0.06134  -0.05745  -0.01606
  Beta virt. eigenvalues --    0.00473   0.00475   0.01771   0.01773   0.02249

 Mulliken charges and spin densities:
               1          2
     1  C   -0.236771   0.558931
     2  C   -0.236770   0.558932
     3  H    0.245604  -0.019647
     4  H    0.245569  -0.019645
     5  H    0.245589  -0.019648
     6  H    0.245577  -0.019637
     7  H    0.245605  -0.019647
     8  H    0.245596  -0.019639
 Sum of Mulliken charges =   1.00000   1.00000

 Dipole moment (field-independent basis, Debye):
    X=             -0.0000    Y=             -0.0000    Z=             -0.0000  Tot=              0.0000
 Quadrupole moment (field-independent basis, Debye-Ang):
   XX=             10.9202   YY=            -11.1219   ZZ=            -11.1220
   XY=             -0.0021   XZ=              0.0011   YZ=              0.0000

 Normal termination of Gaussian 16 at Sat Nov 16 16:11:17 2024.
