 Gaussian 16, Revision A.03,
 Gaussian 16:  ES64L-G16RevA.03 25-Dec-2016

 ---------------------------------------------------
 #p UM062X/6-311+G** force int=superfine pop=saveNBO
 ---------------------------------------------------

 -------------------
 Title Card Required
 -------------------
 Symbolic Z-matrix:
 Charge =  0 Multiplicity = 1

                         Standard orientation:
 ---------------------------------------------------------------------
 Center     Atomic      Atomic             Coordinates (Angstroms)
 Number     Number       Type             X           Y           Z
 ---------------------------------------------------------------------
      1         16           0        0.000000    0.000000    1.275200
      2         16           0        0.000000    0.000000   -1.275200
 ---------------------------------------------------------------------

 SCF Done:  E(UM062X) =  -796.206633722     A.U. after    9 cycles

 Unable to determine electronic state:  partially filled degenerate orbitals.
 Alpha  occ. eigenvalues --  -89.98672 -89.98672  -8.34370  -8.34366  -6.26425
 Alpha  occ. eigenvalues --   -6.26425  -6.26378  -6.26376  -6.25568  -6.25568
 Alpha  occ. eigenvalues --   -0.82084  -0.74549  -0.40127  -0.37031  -0.35162
 Alpha  occ. eigenvalues --   -0.32068
 Alpha virt. eigenvalues --   -0.19988  -0.11969   0.03152   0.04029   0.04902
 Alpha virt. eigenvalues --    0.05538   0.07378   0.07472   0.07994   0.14254
 Alpha virt. eigenvalues --    0.31466   0.32412   0.33474   0.36006   0.36141

  Beta  occ. eigenvalues --  -89.98672 -89.98672  -8.34370  -8.34366  -6.26425
  Beta  occ. eigenvalues --   -6.26425  -6.26378  -6.26376  -6.25568  -6.25568
  Beta  occ. eigenvalues --   -0.82084  -0.74549  -0.40127  -0.37031  -0.35162
  Beta  occ. eigenvalues --   -0.32068
  Beta virt. eigenvalues --   -0.19988  -0.11969   0.03152   0.04029   0.04902
  Beta virt. eigenvalues --    0.05538   0.07378   0.07472   0.07994   0.14254
  Beta virt. eigenvalues --    0.31466   0.32412   0.33474   0.36006   0.36141

 Mulliken charges and spin densities:
               1          2
     1  S    0.000000  -0.000000
     2  S    0.000000  -0.000000
 Sum of Mulliken charges =   0.00000  -0.00000

 Dipole moment (field-independent basis, Debye):
    X=              0.0000    Y=              0.0000    Z=             -0.0000  Tot=              0.0000
 Quadrupole moment (field-independent basis, Debye-Ang):
   XX=            -24.9922   YY=            -29.8977   ZZ=            -23.5503
   XY=              0.0000   XZ=             -0.0000   YZ=              0.0000

 Summary of Natural Population Analysis:

                                       Natural Population
                Natural  -----------------------------------------------
    Atom  No    Charge         Core      Valence    Rydberg      Total
 -----------------------------------------------------------------------
      S    1   -0.00000      4.99998     2.99643    0.00359     8.00000
      S    2    0.00000      4.99998     2.99643    0.00359     8.00000
 =======================================================================
   * Total *    0.00000      9.99996     5.99286    0.00718    16.00000

 Normal termination of Gaussian 16 at Mon Apr 21 20:02:58 2025.
