 Gaussian 16, Revision A.03,
 Gaussian 16:  ES64L-G16RevA.03 25-Dec-2016

 ---------------------------------------
 #p UM062X/6-311+G** force int=superfine
 ---------------------------------------

 -------------------
 Title Card Required
 -------------------
 Symbolic Z-matrix:
 Charge =  1 Multiplicity = 2

                         Standard orientation:
 ---------------------------------------------------------------------
 Center     Atomic      Atomic             Coordinates (Angstroms)
 Number     Number       Type             X           Y           Z
 ---------------------------------------------------------------------
      1          6           0        0.004478    0.070713   -1.110546
      2          6           0       -0.004488   -0.070706    1.110546
      3          1           0       -0.604036   -0.973496    1.157709
      4          1           0        0.483115   -0.888565   -1.276110
      5          1           0       -0.482966    0.888594    1.276443
      6          1           0        1.072367   -0.147470    1.216438
      7          1           0        0.603939    0.973559   -1.157723
      8          1           0       -1.072355    0.147337   -1.216760
 ---------------------------------------------------------------------

 SCF Done:  E(UM062X) =  -79.3653726378     A.U. after    9 cycles

 The electronic state is 2-A.
 Alpha  occ. eigenvalues --  -10.85951 -10.85943  -1.08566  -1.02028  -0.77638
 Alpha  occ. eigenvalues --   -0.77637  -0.74070  -0.74069  -0.60322
 Alpha virt. eigenvalues --   -0.27818  -0.16023  -0.10926  -0.10926  -0.09931
 Alpha virt. eigenvalues --   -0.06872  -0.06304  -0.06304  -0.04913  -0.04911
 Alpha virt. eigenvalues --   -0.02360   0.01677   0.01680   0.04819   0.07315

  Beta  occ. eigenvalues --  -10.85741 -10.85740  -1.05222  -0.99291  -0.76765
  Beta  occ. eigenvalues --   -0.76764  -0.73358  -0.73357
  Beta virt. eigenvalues --   -0.37471  -0.19951  -0.15897  -0.11083  -0.11083
  Beta virt. eigenvalues --   -0.08917  -0.06987  -0.06599  -0.06599  -0.04552
  Beta virt. eigenvalues --   -0.04550  -0.01553   0.02233   0.02235   0.05259

 Mulliken charges and spin densities:
               1          2
     1  C   -0.306839   0.561526
     2  C   -0.306838   0.561526
     3  H    0.268960  -0.020517
     4  H    0.268932  -0.020500
     5  H    0.268945  -0.020507
     6  H    0.268933  -0.020502
     7  H    0.268961  -0.020517
     8  H    0.268946  -0.020508
 Sum of Mulliken charges =   1.00000   1.00000

 Dipole moment (field-independent basis, Debye):
    X=              0.0000    Y=             -0.0000    Z=             -0.0000  Tot=              0.0000
 Quadrupole moment (field-independent basis, Debye-Ang):
   XX=            -10.8417   YY=            -10.8197   ZZ=             -5.4270
   XY=              0.0014   XZ=             -0.0222   YZ=             -0.3454

 Normal termination of Gaussian 16 at Wed Nov 13 13:44:54 2024.
