 Gaussian 16, Revision A.03,
 Gaussian 16:  ES64L-G16RevA.03 25-Dec-2016

 --------------------------------------------
 #p opt UM062X/6-311+G** nosymm int=superfine
 --------------------------------------------

 -------------------
 Title Card Required
 -------------------
 Symbolic Z-matrix:
 Charge =  0 Multiplicity = 1

 SCF Done:  E(UM062X) =  -474.562835617     A.U. after   11 cycles
 SCF Done:  E(UM062X) =  -474.562928575     A.U. after   10 cycles
 SCF Done:  E(UM062X) =  -474.562937789     A.U. after   10 cycles
 SCF Done:  E(UM062X) =  -474.562938976     A.U. after    9 cycles
 Optimization completed.
    -- Stationary point found.

                          Input orientation:
 ---------------------------------------------------------------------
 Center     Atomic      Atomic             Coordinates (Angstroms)
 Number     Number       Type             X           Y           Z
 ---------------------------------------------------------------------
      1          8           0       -0.864392    0.000000    0.000000
      2         16           0        0.864392    0.000000    0.000000
      3          1           0       -1.139268   -0.922223   -0.011071
      4          1           0        1.017840    0.099021    1.333060
 ---------------------------------------------------------------------

 Alpha  occ. eigenvalues --  -89.94536 -19.66545  -8.30771  -6.23025  -6.22618
 Alpha  occ. eigenvalues --   -6.22129  -1.15923  -0.81556  -0.58975  -0.51569
 Alpha  occ. eigenvalues --   -0.46814  -0.38776  -0.31701
 Alpha virt. eigenvalues --   -0.01802   0.01766   0.04526   0.05273   0.07466
 Alpha virt. eigenvalues --    0.09472   0.16076   0.18470   0.20034   0.22939
 Alpha virt. eigenvalues --    0.28522   0.32266   0.34247   0.35586   0.41351

  Beta  occ. eigenvalues --  -89.94536 -19.66545  -8.30771  -6.23025  -6.22618
  Beta  occ. eigenvalues --   -6.22129  -1.15923  -0.81556  -0.58975  -0.51569
  Beta  occ. eigenvalues --   -0.46814  -0.38776  -0.31701
  Beta virt. eigenvalues --   -0.01802   0.01766   0.04526   0.05273   0.07466
  Beta virt. eigenvalues --    0.09472   0.16076   0.18470   0.20034   0.22939
  Beta virt. eigenvalues --    0.28522   0.32266   0.34247   0.35586   0.41351

 Mulliken charges and spin densities:
               1          2
     1  O   -0.415079   0.000000
     2  S    0.063922  -0.000000
     3  H    0.283852   0.000000
     4  H    0.067305   0.000000
 Sum of Mulliken charges =  -0.00000  -0.00000

 Dipole moment (field-independent basis, Debye):
    X=              0.4773    Y=             -1.5891    Z=              1.0368  Tot=              1.9565
 Quadrupole moment (field-independent basis, Debye-Ang):
   XX=            -18.8745   YY=            -19.7176   ZZ=            -18.3461
   XY=              2.6272   XZ=              1.4627   YZ=              0.3310

 Normal termination of Gaussian 16 at Thu May 15 12:50:59 2025.
