 Gaussian 16, Revision A.03,
 Gaussian 16:  ES64L-G16RevA.03 25-Dec-2016

 --------------------------------------------
 #p opt UM062X/6-311+G** nosymm int=superfine
 --------------------------------------------

 -------------------
 Title Card Required
 -------------------
 Symbolic Z-matrix:
 Charge =  1 Multiplicity = 2

 SCF Done:  E(UM062X) =  -579.678109863     A.U. after   14 cycles
 SCF Done:  E(UM062X) =  -579.679612436     A.U. after   12 cycles
 SCF Done:  E(UM062X) =  -579.682202378     A.U. after   14 cycles
 SCF Done:  E(UM062X) =  -579.683419822     A.U. after   14 cycles
 SCF Done:  E(UM062X) =  -579.683868297     A.U. after   14 cycles
 SCF Done:  E(UM062X) =  -579.684015552     A.U. after   13 cycles
 SCF Done:  E(UM062X) =  -579.684032440     A.U. after   12 cycles
 SCF Done:  E(UM062X) =  -579.684039136     A.U. after   12 cycles
 SCF Done:  E(UM062X) =  -579.684044820     A.U. after   12 cycles
 SCF Done:  E(UM062X) =  -579.684053364     A.U. after   11 cycles
 SCF Done:  E(UM062X) =  -579.684062440     A.U. after   12 cycles
 SCF Done:  E(UM062X) =  -579.684062592     A.U. after    9 cycles
 Optimization completed.
    -- Stationary point found.

                          Input orientation:
 ---------------------------------------------------------------------
 Center     Atomic      Atomic             Coordinates (Angstroms)
 Number     Number       Type             X           Y           Z
 ---------------------------------------------------------------------
      1         14           0       -2.102975    0.000000    0.000000
      2         14           0        2.102975    0.000000    0.000000
      3          1           0       -2.190233   -1.505647    0.000000
      4          1           0        2.190564    1.505635    0.000000
 ---------------------------------------------------------------------

 Alpha  occ. eigenvalues --  -67.26586 -67.26586  -5.80752  -5.80750  -4.11847
 Alpha  occ. eigenvalues --   -4.11847  -4.11766  -4.11766  -4.11115  -4.11115
 Alpha  occ. eigenvalues --   -0.75765  -0.75069  -0.52354  -0.52168  -0.40864
 Alpha virt. eigenvalues --   -0.28931  -0.27735  -0.26712  -0.10890  -0.09566
 Alpha virt. eigenvalues --   -0.08586  -0.08269  -0.07763  -0.06729  -0.05605
 Alpha virt. eigenvalues --   -0.05540  -0.04958  -0.02649   0.13016   0.13524

  Beta  occ. eigenvalues --  -67.26334 -67.26334  -5.80680  -5.80677  -4.11705
  Beta  occ. eigenvalues --   -4.11705  -4.11175  -4.11174  -4.11008  -4.11008
  Beta  occ. eigenvalues --   -0.73865  -0.73460  -0.51730  -0.51449
  Beta virt. eigenvalues --   -0.27922  -0.27532  -0.26290  -0.23452  -0.13714
  Beta virt. eigenvalues --   -0.10608  -0.09054  -0.08475  -0.08392  -0.06662
  Beta virt. eigenvalues --   -0.05498  -0.05399  -0.05226  -0.02720   0.11444

 Mulliken charges and spin densities:
               1          2
     1  Si   0.581276   0.509364
     2  Si   0.581255   0.509381
     3  H   -0.081269  -0.009373
     4  H   -0.081262  -0.009372
 Sum of Mulliken charges =   1.00000   1.00000

 Dipole moment (field-independent basis, Debye):
    X=              0.0000    Y=             -0.0000    Z=              0.0000  Tot=              0.0001
 Quadrupole moment (field-independent basis, Debye-Ang):
   XX=              2.0582   YY=            -27.7125   ZZ=            -19.9424
   XY=              2.2988   XZ=             -0.0000   YZ=              0.0000

 Normal termination of Gaussian 16 at Mon Apr 21 20:42:40 2025.
