 Gaussian 16, Revision A.03,
 Gaussian 16:  ES64L-G16RevA.03 25-Dec-2016

 --------------------------------------------
 #p opt UM062X/6-311+G** nosymm int=superfine
 --------------------------------------------

 -------------------
 Title Card Required
 -------------------
 Symbolic Z-matrix:
 Charge =  0 Multiplicity = 1

 SCF Done:  E(UM062X) =  -51.9548359903     A.U. after    8 cycles
 SCF Done:  E(UM062X) =  -51.9556467902     A.U. after    8 cycles
 SCF Done:  E(UM062X) =  -51.9558924245     A.U. after    9 cycles
 SCF Done:  E(UM062X) =  -51.9558885294     A.U. after    8 cycles
 SCF Done:  E(UM062X) =  -51.9560283057     A.U. after    9 cycles
 SCF Done:  E(UM062X) =  -51.9570817511     A.U. after    9 cycles
 SCF Done:  E(UM062X) =  -51.9590582788     A.U. after   11 cycles
 SCF Done:  E(UM062X) =  -51.9600309983     A.U. after   11 cycles
 SCF Done:  E(UM062X) =  -51.9597943561     A.U. after   10 cycles
 SCF Done:  E(UM062X) =  -51.9599528684     A.U. after   10 cycles
 SCF Done:  E(UM062X) =  -51.9602620862     A.U. after    8 cycles
 SCF Done:  E(UM062X) =  -51.9603491642     A.U. after    8 cycles
 SCF Done:  E(UM062X) =  -51.9603494731     A.U. after    7 cycles
 SCF Done:  E(UM062X) =  -51.9603495056     A.U. after    6 cycles
 Optimization completed.
    -- Stationary point found.

                          Input orientation:
 ---------------------------------------------------------------------
 Center     Atomic      Atomic             Coordinates (Angstroms)
 Number     Number       Type             X           Y           Z
 ---------------------------------------------------------------------
      1          5           0       -1.095607    0.000000    0.000000
      2          5           0        1.095607    0.000000    0.000000
      3          1           0       -1.673824   -0.735256   -0.731250
      4          1           0        1.673820    0.731267   -0.735225
      5          1           0       -1.673765    0.735237    0.731318
      6          1           0        1.673555   -0.731367    0.735342
 ---------------------------------------------------------------------

 Alpha  occ. eigenvalues --   -7.07701  -7.07688  -0.58573  -0.54529  -0.41885
 Alpha  occ. eigenvalues --   -0.41883  -0.30484
 Alpha virt. eigenvalues --   -0.03493  -0.03493   0.02315   0.02817   0.04924
 Alpha virt. eigenvalues --    0.04924   0.06908   0.07647   0.07647   0.10772
 Alpha virt. eigenvalues --    0.13521   0.16163   0.19639   0.21608   0.21609

  Beta  occ. eigenvalues --   -7.07701  -7.07688  -0.58573  -0.54529  -0.41885
  Beta  occ. eigenvalues --   -0.41883  -0.30484
  Beta virt. eigenvalues --   -0.03493  -0.03493   0.02315   0.02817   0.04924
  Beta virt. eigenvalues --    0.04924   0.06908   0.07647   0.07647   0.10772
  Beta virt. eigenvalues --    0.13521   0.16163   0.19639   0.21608   0.21609

 Mulliken charges and spin densities:
               1          2
     1  B   -0.030293   0.000000
     2  B   -0.030263  -0.000000
     3  H    0.015136  -0.000000
     4  H    0.015145   0.000000
     5  H    0.015135   0.000000
     6  H    0.015140  -0.000000
 Sum of Mulliken charges =  -0.00000   0.00000

 Dipole moment (field-independent basis, Debye):
    X=              0.0002    Y=              0.0000    Z=             -0.0000  Tot=              0.0002
 Quadrupole moment (field-independent basis, Debye-Ang):
   XX=            -16.5734   YY=            -15.0263   ZZ=            -15.0263
   XY=              0.0001   XZ=             -0.0000   YZ=             -0.0002

 Normal termination of Gaussian 16 at Mon Apr 21 17:08:01 2025.
