 Gaussian 16, Revision A.03,
 Gaussian 16:  ES64L-G16RevA.03 25-Dec-2016

 --------------------------------------------
 #p opt UM062X/6-311+G** nosymm int=superfine
 --------------------------------------------

 -------------------
 Title Card Required
 -------------------
 Symbolic Z-matrix:
 Charge =  0 Multiplicity = 1

 SCF Done:  E(UM062X) =  -92.8178870482     A.U. after   13 cycles
 SCF Done:  E(UM062X) =  -92.8198391937     A.U. after   12 cycles
 SCF Done:  E(UM062X) =  -92.8198495414     A.U. after   11 cycles
 Optimization completed.
    -- Stationary point found.

                          Input orientation:
 ---------------------------------------------------------------------
 Center     Atomic      Atomic             Coordinates (Angstroms)
 Number     Number       Type             X           Y           Z
 ---------------------------------------------------------------------
      1          6           0       -1.972395    0.000000    0.000000
      2          7           0        1.972395    0.000000    0.000000
      3          1           0       -3.097626    0.000000    0.000000
 ---------------------------------------------------------------------

 Alpha  occ. eigenvalues --  -14.81175 -10.76437  -0.80436  -0.76055  -0.45616
 Alpha  occ. eigenvalues --   -0.25858  -0.25858
 Alpha virt. eigenvalues --   -0.18498  -0.18498  -0.07672  -0.00156   0.06064
 Alpha virt. eigenvalues --    0.06064   0.07871   0.12532   0.15593   0.17368
 Alpha virt. eigenvalues --    0.17368   0.23106   0.41619   0.51853   0.51853

  Beta  occ. eigenvalues --  -14.81175 -10.76437  -0.80436  -0.76055  -0.45616
  Beta  occ. eigenvalues --   -0.25858  -0.25858
  Beta virt. eigenvalues --   -0.18498  -0.18498  -0.07672  -0.00156   0.06064
  Beta virt. eigenvalues --    0.06064   0.07871   0.12532   0.15593   0.17368
  Beta virt. eigenvalues --    0.17368   0.23106   0.41619   0.51853   0.51853

 Mulliken charges and spin densities:
               1          2
     1  C    0.087640   0.000000
     2  N   -0.256779  -0.000000
     3  H    0.169139  -0.000000
 Sum of Mulliken charges =  -0.00000  -0.00000

 Dipole moment (field-independent basis, Debye):
    X=             -6.6908    Y=              0.0000    Z=              0.0000  Tot=              6.6908
 Quadrupole moment (field-independent basis, Debye-Ang):
   XX=             -4.1004   YY=            -14.2024   ZZ=            -14.2024
   XY=             -0.0000   XZ=              0.0000   YZ=             -0.0000

 Normal termination of Gaussian 16 at Mon Apr 21 18:40:16 2025.
