 Gaussian 16, Revision A.03,
 Gaussian 16:  ES64L-G16RevA.03 25-Dec-2016

 --------------------------------------------
 #p opt UM062X/6-311+G** nosymm int=superfine
 --------------------------------------------

 -------------------
 Title Card Required
 -------------------
 Symbolic Z-matrix:
 Charge =  1 Multiplicity = 2

 SCF Done:  E(UM062X) =  -79.3365755228     A.U. after   10 cycles
 SCF Done:  E(UM062X) =  -79.3366878803     A.U. after    9 cycles
 Optimization completed.
    -- Stationary point found.

                          Input orientation:
 ---------------------------------------------------------------------
 Center     Atomic      Atomic             Coordinates (Angstroms)
 Number     Number       Type             X           Y           Z
 ---------------------------------------------------------------------
      1          6           0       -1.555072    0.000000    0.000000
      2          6           0        1.555072    0.000000    0.000000
      3          1           0        1.603066   -0.937400    0.542543
      4          1           0       -1.601732   -0.938511   -0.540735
      5          1           0        1.602503    0.938601    0.540513
      6          1           0        1.601759   -0.001159   -1.083138
      7          1           0       -1.603100    0.937494   -0.542379
      8          1           0       -1.602473    0.000934    1.083108
 ---------------------------------------------------------------------

 Alpha  occ. eigenvalues --  -10.84955 -10.84953  -1.03904  -1.02555  -0.74603
 Alpha  occ. eigenvalues --   -0.74603  -0.73963  -0.73963  -0.52163
 Alpha virt. eigenvalues --   -0.35664  -0.13960  -0.10244  -0.10244  -0.10169
 Alpha virt. eigenvalues --   -0.06235  -0.06235  -0.05204  -0.03266  -0.01995
 Alpha virt. eigenvalues --   -0.01993   0.01322   0.01324   0.04817   0.07689

  Beta  occ. eigenvalues --  -10.84756 -10.84756  -1.01055  -1.00147  -0.74066
  Beta  occ. eigenvalues --   -0.74065  -0.73457  -0.73457
  Beta virt. eigenvalues --   -0.32630  -0.25690  -0.15437  -0.11133  -0.11132
  Beta virt. eigenvalues --   -0.09976  -0.06416  -0.06416  -0.05408  -0.02387
  Beta virt. eigenvalues --   -0.02270  -0.02267   0.01631   0.01633   0.05768

 Mulliken charges and spin densities:
               1          2
     1  C   -0.271688   0.566737
     2  C   -0.271690   0.566739
     3  H    0.257250  -0.022249
     4  H    0.257202  -0.022250
     5  H    0.257229  -0.022249
     6  H    0.257210  -0.022240
     7  H    0.257251  -0.022249
     8  H    0.257236  -0.022240
 Sum of Mulliken charges =   1.00000   1.00000

 Dipole moment (field-independent basis, Debye):
    X=             -0.0000    Y=             -0.0000    Z=             -0.0001  Tot=              0.0001
 Quadrupole moment (field-independent basis, Debye-Ang):
   XX=              0.5010   YY=            -11.0395   ZZ=            -11.0395
   XY=             -0.0015   XZ=              0.0008   YZ=             -0.0000

 Normal termination of Gaussian 16 at Wed Nov 13 12:36:21 2024.
