 Gaussian 16, Revision A.03,
 Gaussian 16:  ES64L-G16RevA.03 25-Dec-2016

 ---------------------------------------------------
 #p UM062X/6-311+G** force int=superfine pop=saveNBO
 ---------------------------------------------------

 -------------------
 Title Card Required
 -------------------
 Symbolic Z-matrix:
 Charge =  0 Multiplicity = 1

                         Standard orientation:
 ---------------------------------------------------------------------
 Center     Atomic      Atomic             Coordinates (Angstroms)
 Number     Number       Type             X           Y           Z
 ---------------------------------------------------------------------
      1          8           0        0.000000    0.000000    1.018562
      2          8           0        0.000000    0.000000   -1.018562
 ---------------------------------------------------------------------

 SCF Done:  E(UM062X) =  -149.973346191     A.U. after    9 cycles

 Unable to determine electronic state:  partially filled degenerate orbitals.
 Alpha  occ. eigenvalues --  -19.84047 -19.84038  -1.14397  -1.07584  -0.50809
 Alpha  occ. eigenvalues --   -0.49590  -0.47092  -0.44457
 Alpha virt. eigenvalues --   -0.27225  -0.20435   0.10348   0.12930   0.15204
 Alpha virt. eigenvalues --    0.15379   0.20569   0.20900   0.21498   0.32402
 Alpha virt. eigenvalues --    0.95532   0.96463   1.02582   1.03615   1.06341

  Beta  occ. eigenvalues --  -19.84047 -19.84038  -1.14397  -1.07584  -0.50809
  Beta  occ. eigenvalues --   -0.49590  -0.47092  -0.44457
  Beta virt. eigenvalues --   -0.27225  -0.20435   0.10348   0.12930   0.15204
  Beta virt. eigenvalues --    0.15379   0.20569   0.20900   0.21498   0.32402
  Beta virt. eigenvalues --    0.95532   0.96463   1.02582   1.03615   1.06341

 Mulliken charges and spin densities:
               1          2
     1  O   -0.000000  -0.000000
     2  O   -0.000000  -0.000000
 Sum of Mulliken charges =  -0.00000  -0.00000

 Dipole moment (field-independent basis, Debye):
    X=             -0.0000    Y=              0.0000    Z=              0.0000  Tot=              0.0000
 Quadrupole moment (field-independent basis, Debye-Ang):
   XX=            -11.8571   YY=            -10.1231   ZZ=             -9.4286
   XY=              0.0000   XZ=             -0.0000   YZ=              0.0000

 Summary of Natural Population Analysis:

                                       Natural Population
                Natural  -----------------------------------------------
    Atom  No    Charge         Core      Valence    Rydberg      Total
 -----------------------------------------------------------------------
      O    1   -0.00000      1.00000     2.99905    0.00096     4.00000
      O    2   -0.00000      1.00000     2.99905    0.00096     4.00000
 =======================================================================
   * Total *   -0.00000      2.00000     5.99809    0.00191     8.00000

 Normal termination of Gaussian 16 at Mon Apr 21 19:48:05 2025.
