 Gaussian 16, Revision A.03,
 Gaussian 16:  ES64L-G16RevA.03 25-Dec-2016

 --------------------------------------------
 #p opt UM062X/6-311+G** nosymm int=superfine
 --------------------------------------------

 -------------------
 Title Card Required
 -------------------
 Symbolic Z-matrix:
 Charge = -1 Multiplicity = 2

 SCF Done:  E(UM062X) =  -53.2348725320     A.U. after   11 cycles
 SCF Done:  E(UM062X) =  -53.2349271031     A.U. after    9 cycles
 SCF Done:  E(UM062X) =  -53.2349344244     A.U. after    8 cycles
 Optimization completed.
    -- Stationary point found.

                          Input orientation:
 ---------------------------------------------------------------------
 Center     Atomic      Atomic             Coordinates (Angstroms)
 Number     Number       Type             X           Y           Z
 ---------------------------------------------------------------------
      1          5           0       -1.140672    0.000000    0.000000
      2          5           0        1.140672    0.000000    0.000000
      3          1           0        1.333485   -1.189619   -0.000000
      4          1           0       -1.333510   -0.594806    1.030238
      5          1           0        1.333618    0.594808   -1.030218
      6          1           0        1.333463    0.594792    1.030254
      7          1           0       -1.333490    1.189618    0.000010
      8          1           0       -1.333565   -0.594796   -1.030235
 ---------------------------------------------------------------------

 Alpha  occ. eigenvalues --   -6.80602  -6.80593  -0.40252  -0.34112  -0.20326
 Alpha  occ. eigenvalues --   -0.20326  -0.16672  -0.16672  -0.03624
 Alpha virt. eigenvalues --    0.16055   0.17218   0.17655   0.17655   0.19308
 Alpha virt. eigenvalues --    0.19308   0.20605   0.23475   0.30017   0.33169
 Alpha virt. eigenvalues --    0.33169   0.37840   0.37840   0.38880   0.42093

  Beta  occ. eigenvalues --   -6.80506  -6.80506  -0.37584  -0.32338  -0.19703
  Beta  occ. eigenvalues --   -0.19703  -0.16301  -0.16300
  Beta virt. eigenvalues --    0.13031   0.15215   0.17610   0.17610   0.18051
  Beta virt. eigenvalues --    0.18845   0.18845   0.21906   0.24429   0.33220
  Beta virt. eigenvalues --    0.33220   0.34523   0.38162   0.38162   0.39269

 Mulliken charges and spin densities:
               1          2
     1  B   -0.267549   0.576780
     2  B   -0.267549   0.576780
     3  H   -0.077473  -0.025581
     4  H   -0.077487  -0.025600
     5  H   -0.077494  -0.025602
     6  H   -0.077484  -0.025598
     7  H   -0.077474  -0.025581
     8  H   -0.077491  -0.025600
 Sum of Mulliken charges =  -1.00000   1.00000

 Dipole moment (field-independent basis, Debye):
    X=             -0.0000    Y=              0.0000    Z=             -0.0000  Tot=              0.0000
 Quadrupole moment (field-independent basis, Debye-Ang):
   XX=            -31.5460   YY=            -23.9547   ZZ=            -23.9549
   XY=             -0.0002   XZ=              0.0000   YZ=              0.0000

 Normal termination of Gaussian 16 at Mon Apr 21 16:46:47 2025.
