 Gaussian 16, Revision A.03,
 Gaussian 16:  ES64L-G16RevA.03 25-Dec-2016

 ----------------------------------------------------------------------
 #p opt UM062X/6-311+G** nosymm int=superfine SCF=(MaxCycle=200,NoVarAc
 c,noincfock) guess=read
 ----------------------------------------------------------------------

 -------------------
 Title Card Required
 -------------------
 Symbolic Z-matrix:
 Charge =  1 Multiplicity = 2

 SCF Done:  E(UM062X) =  -92.6583236590     A.U. after   10 cycles
 SCF Done:  E(UM062X) =  -92.6586479751     A.U. after   11 cycles
 SCF Done:  E(UM062X) =  -92.6586504884     A.U. after    9 cycles
 Optimization completed.
    -- Stationary point found.

                          Input orientation:
 ---------------------------------------------------------------------
 Center     Atomic      Atomic             Coordinates (Angstroms)
 Number     Number       Type             X           Y           Z
 ---------------------------------------------------------------------
      1          6           0       -1.301539    0.000000    0.000000
      2          7           0        1.301539    0.000000    0.000000
      3          1           0       -2.420237    0.000000   -0.000000
 ---------------------------------------------------------------------

 Alpha  occ. eigenvalues --  -15.15599 -11.01644  -1.18072  -0.99386  -0.69922
 Alpha  occ. eigenvalues --   -0.69885  -0.67440
 Alpha virt. eigenvalues --   -0.45228  -0.36954  -0.33235  -0.15483  -0.10288
 Alpha virt. eigenvalues --   -0.09211  -0.08210  -0.04372  -0.01887  -0.01679
 Alpha virt. eigenvalues --    0.01159   0.08525   0.24309   0.30546   0.30567

  Beta  occ. eigenvalues --  -15.11872 -11.04066  -1.08398  -0.96900  -0.77774
  Beta  occ. eigenvalues --   -0.66859
  Beta virt. eigenvalues --   -0.42667  -0.30962  -0.30412  -0.30404  -0.15372
  Beta virt. eigenvalues --   -0.11526  -0.09315  -0.09186  -0.06183  -0.00403
  Beta virt. eigenvalues --   -0.00302   0.00198   0.05272   0.23611   0.29741

 Mulliken charges and spin densities:
               1          2
     1  C    0.322255  -1.579577
     2  N    0.320003   2.673485
     3  H    0.357742  -0.093908
 Sum of Mulliken charges =   1.00000   1.00000

 Dipole moment (field-independent basis, Debye):
    X=             -4.2969    Y=              0.0000    Z=             -0.0000  Tot=              4.2969
 Quadrupole moment (field-independent basis, Debye-Ang):
   XX=              5.4158   YY=            -10.2349   ZZ=             -9.7992
   XY=             -0.0000   XZ=              0.0000   YZ=             -0.7902

 Normal termination of Gaussian 16 at Mon Apr 21 23:05:26 2025.
