 Gaussian 16, Revision A.03,
 Gaussian 16:  ES64L-G16RevA.03 25-Dec-2016

 --------------------------------------------
 #p opt UM062X/6-311+G** nosymm int=superfine
 --------------------------------------------

 -------------------
 Title Card Required
 -------------------
 Symbolic Z-matrix:
 Charge =  1 Multiplicity = 2

 SCF Done:  E(UM062X) =  -379.486315479     A.U. after   73 cycles
 SCF Done:  E(UM062X) =  -379.486434237     A.U. after   30 cycles
 Optimization completed.
    -- Stationary point found.

                          Input orientation:
 ---------------------------------------------------------------------
 Center     Atomic      Atomic             Coordinates (Angstroms)
 Number     Number       Type             X           Y           Z
 ---------------------------------------------------------------------
      1          6           0       -1.019427    0.000000    0.000000
      2         15           0        1.019427    0.000000    0.000000
      3          1           0       -2.118022    0.000000   -0.000000
 ---------------------------------------------------------------------

 Alpha  occ. eigenvalues --  -78.40572 -10.95414  -7.21653  -5.33619  -5.32907
 Alpha  occ. eigenvalues --   -5.32801  -1.03765  -0.91635  -0.70711  -0.58747
 Alpha  occ. eigenvalues --   -0.56785
 Alpha virt. eigenvalues --   -0.36680  -0.34810  -0.25899  -0.13949  -0.10404
 Alpha virt. eigenvalues --   -0.09717  -0.09405  -0.09124  -0.05304  -0.05135
 Alpha virt. eigenvalues --   -0.00186   0.04453   0.11735   0.13930   0.13974

  Beta  occ. eigenvalues --  -78.40101 -10.95301  -7.21542  -5.32805  -5.32528
  Beta  occ. eigenvalues --   -5.32416  -1.00886  -0.89368  -0.69503  -0.55484
  Beta virt. eigenvalues --   -0.39636  -0.33831  -0.29984  -0.24483  -0.15105
  Beta virt. eigenvalues --   -0.10824  -0.09490  -0.09468  -0.09129  -0.05248
  Beta virt. eigenvalues --   -0.05241  -0.00854   0.04634   0.11146   0.11755

 Mulliken charges and spin densities:
               1          2
     1  C   -0.012144   0.374962
     2  P    0.690713   0.639254
     3  H    0.321431  -0.014215
 Sum of Mulliken charges =   1.00000   1.00000

 Dipole moment (field-independent basis, Debye):
    X=              0.2627    Y=             -0.0000    Z=             -0.0000  Tot=              0.2627
 Quadrupole moment (field-independent basis, Debye-Ang):
   XX=             -4.4980   YY=            -16.3392   ZZ=            -17.5593
   XY=              0.0000   XZ=              0.0000   YZ=             -1.2226

 Normal termination of Gaussian 16 at Mon Apr 21 19:22:06 2025.
