 Gaussian 16, Revision A.03,
 Gaussian 16:  ES64L-G16RevA.03 25-Dec-2016

 --------------------------------------------
 #p opt UM062X/6-311+G** nosymm int=superfine
 --------------------------------------------

 -------------------
 Title Card Required
 -------------------
 Symbolic Z-matrix:
 Charge =  0 Multiplicity = 1

 SCF Done:  E(UM062X) =  -78.2009764300     A.U. after    9 cycles
 SCF Done:  E(UM062X) =  -78.2178616588     A.U. after    9 cycles
 SCF Done:  E(UM062X) =  -78.2331550281     A.U. after    8 cycles
 SCF Done:  E(UM062X) =  -78.2334953179     A.U. after    8 cycles
 SCF Done:  E(UM062X) =  -78.2334967046     A.U. after    7 cycles
 Optimization completed.
    -- Stationary point found.

                          Input orientation:
 ---------------------------------------------------------------------
 Center     Atomic      Atomic             Coordinates (Angstroms)
 Number     Number       Type             X           Y           Z
 ---------------------------------------------------------------------
      1          6           0       -2.035595    0.000000    0.000000
      2          6           0        2.035595    0.000000    0.000000
      3          1           0       -2.741202   -0.858569    0.000000
      4          1           0       -2.741171    0.858597    0.000000
      5          1           0        2.741202    0.858569   -0.000000
      6          1           0        2.741171   -0.858597   -0.000000
 ---------------------------------------------------------------------

 Alpha  occ. eigenvalues --  -10.59519 -10.59519  -0.74511  -0.74477  -0.46230
 Alpha  occ. eigenvalues --   -0.46198  -0.30722  -0.29221
 Alpha virt. eigenvalues --   -0.07257  -0.06847   0.02516   0.03145   0.06578
 Alpha virt. eigenvalues --    0.08616   0.08651   0.10387   0.12226   0.15475
 Alpha virt. eigenvalues --    0.17523   0.19944   0.20737   0.21645   0.45503

  Beta  occ. eigenvalues --  -10.59519 -10.59519  -0.74511  -0.74477  -0.46230
  Beta  occ. eigenvalues --   -0.46198  -0.30722  -0.29221
  Beta virt. eigenvalues --   -0.07257  -0.06847   0.02516   0.03145   0.06578
  Beta virt. eigenvalues --    0.08616   0.08651   0.10387   0.12226   0.15475
  Beta virt. eigenvalues --    0.17523   0.19944   0.20737   0.21645   0.45503

 Mulliken charges and spin densities:
               1          2
     1  C   -0.238951   0.000000
     2  C   -0.238951  -0.000000
     3  H    0.119476  -0.000000
     4  H    0.119476  -0.000000
     5  H    0.119476   0.000000
     6  H    0.119476  -0.000000
 Sum of Mulliken charges =  -0.00000   0.00000

 Dipole moment (field-independent basis, Debye):
    X=              0.0000    Y=              0.0000    Z=             -0.0000  Tot=              0.0000
 Quadrupole moment (field-independent basis, Debye-Ang):
   XX=             -2.8207   YY=            -14.6398   ZZ=            -12.9241
   XY=             -0.0001   XZ=             -0.0000   YZ=             -0.0000

 Normal termination of Gaussian 16 at Tue Dec  3 11:19:08 2024.
