 Gaussian 16, Revision A.03,
 Gaussian 16:  ES64L-G16RevA.03 25-Dec-2016

 --------------------------------------------
 #p opt UM062X/6-311+G** nosymm int=superfine
 --------------------------------------------

 -------------------
 Title Card Required
 -------------------
 Symbolic Z-matrix:
 Charge =  1 Multiplicity = 2

 SCF Done:  E(UM062X) =  -579.675715846     A.U. after   14 cycles
 SCF Done:  E(UM062X) =  -579.676857165     A.U. after   12 cycles
 SCF Done:  E(UM062X) =  -579.678498903     A.U. after   14 cycles
 SCF Done:  E(UM062X) =  -579.679828393     A.U. after   14 cycles
 SCF Done:  E(UM062X) =  -579.680355685     A.U. after   14 cycles
 SCF Done:  E(UM062X) =  -579.680629135     A.U. after   14 cycles
 SCF Done:  E(UM062X) =  -579.680690395     A.U. after   12 cycles
 SCF Done:  E(UM062X) =  -579.680698614     A.U. after   10 cycles
 SCF Done:  E(UM062X) =  -579.680702214     A.U. after   11 cycles
 SCF Done:  E(UM062X) =  -579.680709236     A.U. after   12 cycles
 SCF Done:  E(UM062X) =  -579.680715088     A.U. after   10 cycles
 SCF Done:  E(UM062X) =  -579.680717621     A.U. after   12 cycles
 Optimization completed.
    -- Stationary point found.

                          Input orientation:
 ---------------------------------------------------------------------
 Center     Atomic      Atomic             Coordinates (Angstroms)
 Number     Number       Type             X           Y           Z
 ---------------------------------------------------------------------
      1         14           0       -2.202975    0.000000    0.000000
      2         14           0        2.202975    0.000000    0.000000
      3          1           0       -2.293876   -1.505618    0.000000
      4          1           0        2.293020    1.505678    0.000000
 ---------------------------------------------------------------------

 Alpha  occ. eigenvalues --  -67.26403 -67.26403  -5.80569  -5.80568  -4.11666
 Alpha  occ. eigenvalues --   -4.11665  -4.11583  -4.11583  -4.10933  -4.10933
 Alpha  occ. eigenvalues --   -0.75479  -0.74938  -0.52136  -0.51960  -0.40135
 Alpha virt. eigenvalues --   -0.29297  -0.27414  -0.26619  -0.10735  -0.09414
 Alpha virt. eigenvalues --   -0.08482  -0.08081  -0.07660  -0.06612  -0.05569
 Alpha virt. eigenvalues --   -0.05484  -0.04863  -0.02544   0.12697   0.13869

  Beta  occ. eigenvalues --  -67.26151 -67.26150  -5.80498  -5.80496  -4.11522
  Beta  occ. eigenvalues --   -4.11521  -4.10989  -4.10989  -4.10831  -4.10830
  Beta  occ. eigenvalues --   -0.73617  -0.73332  -0.51505  -0.51284
  Beta virt. eigenvalues --   -0.27784  -0.27246  -0.26212  -0.23680  -0.13977
  Beta virt. eigenvalues --   -0.10732  -0.09078  -0.08372  -0.08273  -0.06598
  Beta virt. eigenvalues --   -0.05489  -0.05402  -0.05155  -0.02650   0.10337

 Mulliken charges and spin densities:
               1          2
     1  Si   0.582293   0.508669
     2  Si   0.582339   0.508633
     3  H   -0.082307  -0.008650
     4  H   -0.082325  -0.008652
 Sum of Mulliken charges =   1.00000   1.00000

 Dipole moment (field-independent basis, Debye):
    X=             -0.0001    Y=              0.0001    Z=              0.0000  Tot=              0.0001
 Quadrupole moment (field-independent basis, Debye-Ang):
   XX=              4.2134   YY=            -27.7652   ZZ=            -19.9817
   XY=              2.3755   XZ=             -0.0000   YZ=              0.0000

 Normal termination of Gaussian 16 at Mon Apr 21 20:43:32 2025.
