 Gaussian 16, Revision A.03,
 Gaussian 16:  ES64L-G16RevA.03 25-Dec-2016

 ---------------------------------------------------
 #p UM062X/6-311+G** force int=superfine pop=saveNBO
 ---------------------------------------------------

 -------------------
 Title Card Required
 -------------------
 Symbolic Z-matrix:
 Charge =  0 Multiplicity = 1

                         Standard orientation:
 ---------------------------------------------------------------------
 Center     Atomic      Atomic             Coordinates (Angstroms)
 Number     Number       Type             X           Y           Z
 ---------------------------------------------------------------------
      1          8           0        0.000000    0.000000   -1.526757
      2         16           0        0.000000    0.000000    0.763379
 ---------------------------------------------------------------------

 SCF Done:  E(UM062X) =  -473.101956091     A.U. after   16 cycles

 Unable to determine electronic state:  an orbital has unidentified symmetry.
 Alpha  occ. eigenvalues --  -90.03452 -19.75425  -8.38933  -6.31002  -6.30951
 Alpha  occ. eigenvalues --   -6.30062  -1.05206  -0.80805  -0.43494  -0.43433
 Alpha  occ. eigenvalues --   -0.38341  -0.36618
 Alpha virt. eigenvalues --   -0.22359  -0.14947   0.02602   0.04688   0.05241
 Alpha virt. eigenvalues --    0.05660   0.18285   0.20200   0.20490   0.26902
 Alpha virt. eigenvalues --    0.32848   0.33714   0.33787   0.59216   0.74431

  Beta  occ. eigenvalues --  -90.03452 -19.75425  -8.38933  -6.31002  -6.30951
  Beta  occ. eigenvalues --   -6.30062  -1.05206  -0.80805  -0.43494  -0.43433
  Beta  occ. eigenvalues --   -0.38341  -0.36618
  Beta virt. eigenvalues --   -0.22359  -0.14947   0.02602   0.04688   0.05241
  Beta virt. eigenvalues --    0.05660   0.18285   0.20200   0.20490   0.26902
  Beta virt. eigenvalues --    0.32848   0.33714   0.33787   0.59216   0.74431

 Mulliken charges and spin densities:
               1          2
     1  O   -0.235113   0.000000
     2  S    0.235113   0.000000
 Sum of Mulliken charges =  -0.00000   0.00000

 Dipole moment (field-independent basis, Debye):
    X=              0.0000    Y=              0.0000    Z=              2.6117  Tot=              2.6117
 Quadrupole moment (field-independent basis, Debye-Ang):
   XX=            -17.1045   YY=            -20.5820   ZZ=            -18.4084
   XY=              0.0000   XZ=              0.0000   YZ=              0.0000

 Summary of Natural Population Analysis:

                                       Natural Population
                Natural  -----------------------------------------------
    Atom  No    Charge         Core      Valence    Rydberg      Total
 -----------------------------------------------------------------------
      O    1   -0.16826      1.00000     3.16678    0.00148     4.16826
      S    2    0.16826      4.99999     2.82909    0.00267     7.83174
 =======================================================================
   * Total *    0.00000      5.99998     5.99587    0.00415    12.00000

 Normal termination of Gaussian 16 at Mon Apr 21 19:59:52 2025.
