 Gaussian 16, Revision A.03,
 Gaussian 16:  ES64L-G16RevA.03 25-Dec-2016

 --------------------------------------------
 #p opt UM062X/6-311+G** nosymm int=superfine
 --------------------------------------------

 -------------------
 Title Card Required
 -------------------
 Symbolic Z-matrix:
 Charge =  0 Multiplicity = 1

 SCF Done:  E(UM062X) =  -79.7362423494     A.U. after    8 cycles
 SCF Done:  E(UM062X) =  -79.7499217153     A.U. after    8 cycles
 SCF Done:  E(UM062X) =  -79.7509528150     A.U. after    8 cycles
 Optimization completed.
    -- Stationary point found.

                          Input orientation:
 ---------------------------------------------------------------------
 Center     Atomic      Atomic             Coordinates (Angstroms)
 Number     Number       Type             X           Y           Z
 ---------------------------------------------------------------------
      1          6           0       -0.641379    0.000000    0.000000
      2          6           0        0.641445    0.000000    0.000000
      3          1           0        1.094472   -0.866298    0.501304
      4          1           0       -1.094381   -0.867309   -0.499601
      5          1           0        1.094448    0.867310    0.499596
      6          1           0        1.094488   -0.000948   -1.000898
      7          1           0       -1.094406    0.866296   -0.501309
      8          1           0       -1.094424    0.000946    1.000895
 ---------------------------------------------------------------------

 Alpha  occ. eigenvalues --  -10.50597 -10.50454  -0.90606  -0.68608  -0.52679
 Alpha  occ. eigenvalues --   -0.52678  -0.48319  -0.37194  -0.37193
 Alpha virt. eigenvalues --    0.02117   0.04198   0.05114   0.05114   0.08719
 Alpha virt. eigenvalues --    0.08908   0.08908   0.14181   0.19406   0.19407
 Alpha virt. eigenvalues --    0.19915   0.19915   0.24076   0.27943   0.36330

  Beta  occ. eigenvalues --  -10.50597 -10.50454  -0.90606  -0.68608  -0.52679
  Beta  occ. eigenvalues --   -0.52678  -0.48319  -0.37194  -0.37193
  Beta virt. eigenvalues --    0.02117   0.04198   0.05114   0.05114   0.08719
  Beta virt. eigenvalues --    0.08908   0.08908   0.14181   0.19406   0.19407
  Beta virt. eigenvalues --    0.19915   0.19915   0.24076   0.27943   0.36330

 Mulliken charges and spin densities:
               1          2
     1  C   -0.443865   0.000000
     2  C   -0.443865  -0.000000
     3  H    0.147956   0.000000
     4  H    0.147954  -0.000000
     5  H    0.147955   0.000000
     6  H    0.147954   0.000000
     7  H    0.147956  -0.000000
     8  H    0.147954  -0.000000
 Sum of Mulliken charges =  -0.00000  -0.00000

 Dipole moment (field-independent basis, Debye):
    X=              0.0000    Y=             -0.0000    Z=             -0.0000  Tot=              0.0000
 Quadrupole moment (field-independent basis, Debye-Ang):
   XX=            -15.6268   YY=            -14.9607   ZZ=            -14.9607
   XY=             -0.0000   XZ=             -0.0000   YZ=             -0.0001

 Normal termination of Gaussian 16 at Tue Nov 19 11:47:30 2024.
