 Gaussian 16, Revision A.03,
 Gaussian 16:  ES64L-G16RevA.03 25-Dec-2016

 ---------------------------------------------------
 #p UM062X/6-311+G** force int=superfine pop=saveNBO
 ---------------------------------------------------

 -------------------
 Title Card Required
 -------------------
 Symbolic Z-matrix:
 Charge =  0 Multiplicity = 1

                         Standard orientation:
 ---------------------------------------------------------------------
 Center     Atomic      Atomic             Coordinates (Angstroms)
 Number     Number       Type             X           Y           Z
 ---------------------------------------------------------------------
      1          6           0        0.000000    0.000000   -1.841237
      2          8           0        0.000000    0.000000    1.380927
 ---------------------------------------------------------------------

 SCF Done:  E(UM062X) =  -112.758338280     A.U. after   27 cycles

 The electronic state is 1-SG.
 Alpha  occ. eigenvalues --  -19.71426 -10.75514  -1.01802  -0.67599  -0.40551
 Alpha  occ. eigenvalues --   -0.40551  -0.31516
 Alpha virt. eigenvalues --   -0.15805  -0.13802  -0.13802   0.03766   0.06818
 Alpha virt. eigenvalues --    0.06818   0.07712   0.17543   0.20354   0.20354
 Alpha virt. eigenvalues --    0.26728   0.54481   0.54481   0.55951   0.64073

  Beta  occ. eigenvalues --  -19.71426 -10.75514  -1.01802  -0.67599  -0.40551
  Beta  occ. eigenvalues --   -0.40551  -0.31516
  Beta virt. eigenvalues --   -0.15805  -0.13802  -0.13802   0.03766   0.06818
  Beta virt. eigenvalues --    0.06818   0.07712   0.17543   0.20354   0.20354
  Beta virt. eigenvalues --    0.26728   0.54481   0.54481   0.55951   0.64073

 Mulliken charges and spin densities:
               1          2
     1  C    0.149070   0.000000
     2  O   -0.149070  -0.000000
 Sum of Mulliken charges =  -0.00000   0.00000

 Dipole moment (field-independent basis, Debye):
    X=              0.0000    Y=              0.0000    Z=             -2.3672  Tot=              2.3672
 Quadrupole moment (field-independent basis, Debye-Ang):
   XX=            -11.1612   YY=            -11.1612   ZZ=            -11.4413
   XY=              0.0000   XZ=              0.0000   YZ=              0.0000

 Summary of Natural Population Analysis:

                                       Natural Population
                Natural  -----------------------------------------------
    Atom  No    Charge         Core      Valence    Rydberg      Total
 -----------------------------------------------------------------------
      C    1    0.08762      1.00000     1.91205    0.00032     2.91238
      O    2   -0.08762      1.00000     3.08728    0.00035     4.08762
 =======================================================================
   * Total *   -0.00000      2.00000     4.99933    0.00067     7.00000

 Normal termination of Gaussian 16 at Mon Apr 21 19:26:08 2025.
