 Gaussian 16, Revision A.03,
 Gaussian 16:  ES64L-G16RevA.03 25-Dec-2016

 --------------------------------------------
 #p opt UM062X/6-311+G** nosymm int=superfine
 --------------------------------------------

 -------------------
 Title Card Required
 -------------------
 Symbolic Z-matrix:
 Charge =  0 Multiplicity = 1

 SCF Done:  E(UM062X) =  -379.551398748     A.U. after   15 cycles
 SCF Done:  E(UM062X) =  -379.552846107     A.U. after   12 cycles
 SCF Done:  E(UM062X) =  -379.552852543     A.U. after   11 cycles
 Optimization completed.
    -- Stationary point found.

                          Input orientation:
 ---------------------------------------------------------------------
 Center     Atomic      Atomic             Coordinates (Angstroms)
 Number     Number       Type             X           Y           Z
 ---------------------------------------------------------------------
      1          6           0       -2.115377    0.000000    0.000000
      2         15           0        2.115377    0.000000    0.000000
      3          1           0       -3.238561    0.000000    0.000000
 ---------------------------------------------------------------------

 Alpha  occ. eigenvalues --  -78.06355 -10.72294  -6.88299  -5.00225  -4.99272
 Alpha  occ. eigenvalues --   -4.99272  -0.77077  -0.59919  -0.42692  -0.23022
 Alpha  occ. eigenvalues --   -0.23022
 Alpha virt. eigenvalues --   -0.16056  -0.16056  -0.11456   0.01011   0.04274
 Alpha virt. eigenvalues --    0.05946   0.05946   0.07592   0.08246   0.08246
 Alpha virt. eigenvalues --    0.12637   0.15571   0.32952   0.33813   0.33813

  Beta  occ. eigenvalues --  -78.06355 -10.72294  -6.88299  -5.00225  -4.99272
  Beta  occ. eigenvalues --   -4.99272  -0.77077  -0.59919  -0.42692  -0.23022
  Beta  occ. eigenvalues --   -0.23022
  Beta virt. eigenvalues --   -0.16056  -0.16056  -0.11456   0.01011   0.04274
  Beta virt. eigenvalues --    0.05946   0.05946   0.07592   0.08246   0.08246
  Beta virt. eigenvalues --    0.12637   0.15571   0.32952   0.33813   0.33813

 Mulliken charges and spin densities:
               1          2
     1  C   -0.059548  -0.000000
     2  P   -0.098364   0.000000
     3  H    0.157913   0.000000
 Sum of Mulliken charges =  -0.00000  -0.00000

 Dipole moment (field-independent basis, Debye):
    X=             -3.9305    Y=              0.0000    Z=              0.0000  Tot=              3.9305
 Quadrupole moment (field-independent basis, Debye-Ang):
   XX=             -9.7536   YY=            -24.1461   ZZ=            -24.1461
   XY=             -0.0000   XZ=             -0.0000   YZ=             -0.0000

 Normal termination of Gaussian 16 at Mon Apr 21 19:31:10 2025.
