 Gaussian 16, Revision A.03,
 Gaussian 16:  ES64L-G16RevA.03 25-Dec-2016

 ---------------------------------------------------------
 #p opt UM062X/6-311+G** nosymm int=superfine SCF=NoVarAcc
 ---------------------------------------------------------

 -------------------
 Title Card Required
 -------------------
 Symbolic Z-matrix:
 Charge =  1 Multiplicity = 2

 SCF Done:  E(UM062X) =  -77.9158694485     A.U. after    9 cycles
 SCF Done:  E(UM062X) =  -77.9164319930     A.U. after    9 cycles
 SCF Done:  E(UM062X) =  -77.9167112858     A.U. after    9 cycles
 Optimization completed.
    -- Stationary point found.

                          Input orientation:
 ---------------------------------------------------------------------
 Center     Atomic      Atomic             Coordinates (Angstroms)
 Number     Number       Type             X           Y           Z
 ---------------------------------------------------------------------
      1          6           0       -1.406027    0.000000    0.000000
      2          6           0        1.406027    0.000000    0.000000
      3          1           0       -1.793975   -1.014478    0.000000
      4          1           0       -1.793959    1.014493    0.000000
      5          1           0        1.793975    1.014478   -0.000000
      6          1           0        1.793959   -1.014493   -0.000000
 ---------------------------------------------------------------------

 Alpha  occ. eigenvalues --  -10.91982 -10.91976  -1.02603  -1.00902  -0.79368
 Alpha  occ. eigenvalues --   -0.78771  -0.56888  -0.50954
 Alpha virt. eigenvalues --   -0.39425  -0.35602  -0.13259  -0.10648  -0.10493
 Alpha virt. eigenvalues --   -0.07678  -0.07506  -0.06434  -0.04584  -0.04543
 Alpha virt. eigenvalues --   -0.03111   0.01560   0.01615   0.09265   0.19973

  Beta  occ. eigenvalues --  -10.91719 -10.91716  -0.99805  -0.98406  -0.78997
  Beta  occ. eigenvalues --   -0.78421  -0.54958
  Beta virt. eigenvalues --   -0.33417  -0.31900  -0.29419  -0.14314  -0.10935
  Beta virt. eigenvalues --   -0.10822  -0.07435  -0.07355  -0.06503  -0.04122
  Beta virt. eigenvalues --   -0.03835  -0.03598   0.00050   0.01831   0.10208

 Mulliken charges and spin densities:
               1          2
     1  C   -0.064273   0.541189
     2  C   -0.064271   0.541171
     3  H    0.282135  -0.020590
     4  H    0.282137  -0.020590
     5  H    0.282135  -0.020590
     6  H    0.282136  -0.020590
 Sum of Mulliken charges =   1.00000   1.00000

 Dipole moment (field-independent basis, Debye):
    X=              0.0000    Y=             -0.0000    Z=              0.0000  Tot=              0.0000
 Quadrupole moment (field-independent basis, Debye-Ang):
   XX=              4.1906   YY=             -7.7926   ZZ=            -12.9818
   XY=             -0.0000   XZ=             -0.0000   YZ=             -0.0000

 Normal termination of Gaussian 16 at Tue Dec  3 13:24:30 2024.
