 Gaussian 16, Revision A.03,
 Gaussian 16:  ES64L-G16RevA.03 25-Dec-2016

 --------------------------------------------
 #p opt UM062X/6-311+G** nosymm int=superfine
 --------------------------------------------

 -------------------
 Title Card Required
 -------------------
 Symbolic Z-matrix:
 Charge =  0 Multiplicity = 1

 SCF Done:  E(UM062X) =  -79.6451455872     A.U. after    9 cycles
 SCF Done:  E(UM062X) =  -79.6708148032     A.U. after    8 cycles
 SCF Done:  E(UM062X) =  -79.6786712991     A.U. after    8 cycles
 SCF Done:  E(UM062X) =  -79.6786944958     A.U. after    7 cycles
 Optimization completed.
    -- Stationary point found.

                          Input orientation:
 ---------------------------------------------------------------------
 Center     Atomic      Atomic             Coordinates (Angstroms)
 Number     Number       Type             X           Y           Z
 ---------------------------------------------------------------------
      1          6           0       -0.587931    0.000000    0.000000
      2          6           0        0.587991    0.000000    0.000000
      3          1           0        1.068201   -0.859940    0.497607
      4          1           0       -1.068139   -0.860928   -0.495919
      5          1           0        1.068200    0.860928    0.495916
      6          1           0        1.068208   -0.000951   -0.993540
      7          1           0       -1.068141    0.859939   -0.497609
      8          1           0       -1.068149    0.000949    0.993539
 ---------------------------------------------------------------------

 Alpha  occ. eigenvalues --  -10.50055 -10.49742  -0.93759  -0.67951  -0.54307
 Alpha  occ. eigenvalues --   -0.54306  -0.50708  -0.35540  -0.35539
 Alpha virt. eigenvalues --    0.02069   0.04194   0.04836   0.04836   0.08645
 Alpha virt. eigenvalues --    0.08963   0.08963   0.14246   0.19134   0.19134
 Alpha virt. eigenvalues --    0.19814   0.19815   0.24024   0.27905   0.38537

  Beta  occ. eigenvalues --  -10.50055 -10.49742  -0.93759  -0.67951  -0.54307
  Beta  occ. eigenvalues --   -0.54306  -0.50708  -0.35540  -0.35539
  Beta virt. eigenvalues --    0.02069   0.04194   0.04836   0.04836   0.08645
  Beta virt. eigenvalues --    0.08963   0.08963   0.14246   0.19134   0.19134
  Beta virt. eigenvalues --    0.19814   0.19815   0.24024   0.27905   0.38537

 Mulliken charges and spin densities:
               1          2
     1  C   -0.430346  -0.000000
     2  C   -0.430346   0.000000
     3  H    0.143449  -0.000000
     4  H    0.143449  -0.000000
     5  H    0.143449  -0.000000
     6  H    0.143448  -0.000000
     7  H    0.143449  -0.000000
     8  H    0.143448  -0.000000
 Sum of Mulliken charges =  -0.00000   0.00000

 Dipole moment (field-independent basis, Debye):
    X=              0.0000    Y=             -0.0000    Z=             -0.0000  Tot=              0.0000
 Quadrupole moment (field-independent basis, Debye-Ang):
   XX=            -15.6451   YY=            -14.9477   ZZ=            -14.9478
   XY=              0.0000   XZ=             -0.0000   YZ=             -0.0001

 Normal termination of Gaussian 16 at Tue Nov 19 11:43:42 2024.
