 Gaussian 16, Revision A.03,
 Gaussian 16:  ES64L-G16RevA.03 25-Dec-2016

 --------------------------------------------
 #p opt UM062X/6-311+G** nosymm int=superfine
 --------------------------------------------

 -------------------
 Title Card Required
 -------------------
 Symbolic Z-matrix:
 Charge =  1 Multiplicity = 2

 SCF Done:  E(UM062X) =  -76.6499259876     A.U. after   13 cycles
 SCF Done:  E(UM062X) =  -76.6499297722     A.U. after   17 cycles
 Optimization completed.
    -- Stationary point found.

                          Input orientation:
 ---------------------------------------------------------------------
 Center     Atomic      Atomic             Coordinates (Angstroms)
 Number     Number       Type             X           Y           Z
 ---------------------------------------------------------------------
      1          6           0       -0.932160    0.000000    0.000000
      2          6           0        0.932160    0.000000    0.000000
      3          1           0       -2.034870   -0.000000    0.000000
      4          1           0        2.034870    0.000000    0.000000
 ---------------------------------------------------------------------

 Alpha  occ. eigenvalues --  -11.00950 -11.00924  -1.07469  -0.99619  -0.81435
 Alpha  occ. eigenvalues --   -0.61257  -0.59232
 Alpha virt. eigenvalues --   -0.38311  -0.36337  -0.34036  -0.14106  -0.11789
 Alpha virt. eigenvalues --   -0.10133  -0.08778  -0.08551  -0.05366  -0.05079
 Alpha virt. eigenvalues --    0.00629   0.03230   0.06225   0.23704   0.31016

  Beta  occ. eigenvalues --  -11.00685 -11.00668  -1.04017  -0.97763  -0.80380
  Beta  occ. eigenvalues --   -0.57370
  Beta virt. eigenvalues --   -0.39333  -0.34592  -0.32011  -0.29686  -0.15041
  Beta virt. eigenvalues --   -0.12108  -0.10710  -0.09138  -0.08992  -0.05385
  Beta virt. eigenvalues --   -0.05154  -0.00341   0.03318   0.06357   0.24032

 Mulliken charges and spin densities:
               1          2
     1  C    0.126001   0.522751
     2  C    0.126001   0.522751
     3  H    0.373999  -0.022751
     4  H    0.373999  -0.022751
 Sum of Mulliken charges =   1.00000   1.00000

 Dipole moment (field-independent basis, Debye):
    X=             -0.0000    Y=             -0.0000    Z=              0.0000  Tot=              0.0000
 Quadrupole moment (field-independent basis, Debye-Ang):
   XX=              4.7602   YY=            -12.9976   ZZ=            -11.1123
   XY=              0.0000   XZ=              0.0000   YZ=              0.5151

 Normal termination of Gaussian 16 at Tue Dec  3 11:21:38 2024.
