 Gaussian 16, Revision A.03,
 Gaussian 16:  ES64L-G16RevA.03 25-Dec-2016

 --------------------------------------------
 #p opt UM062X/6-311+G** nosymm int=superfine
 --------------------------------------------

 -------------------
 Title Card Required
 -------------------
 Symbolic Z-matrix:
 Charge =  0 Multiplicity = 1

 SCF Done:  E(UM062X) =  -78.1958325182     A.U. after    9 cycles
 SCF Done:  E(UM062X) =  -78.2131463027     A.U. after    9 cycles
 SCF Done:  E(UM062X) =  -78.2293952876     A.U. after    8 cycles
 SCF Done:  E(UM062X) =  -78.2297950782     A.U. after    8 cycles
 SCF Done:  E(UM062X) =  -78.2297968003     A.U. after    7 cycles
 Optimization completed.
    -- Stationary point found.

                          Input orientation:
 ---------------------------------------------------------------------
 Center     Atomic      Atomic             Coordinates (Angstroms)
 Number     Number       Type             X           Y           Z
 ---------------------------------------------------------------------
      1          6           0       -1.710595    0.000000    0.000000
      2          6           0        1.710595    0.000000    0.000000
      3          1           0       -2.421192   -0.856509   -0.000000
      4          1           0       -2.421155    0.856540    0.000000
      5          1           0        2.421192    0.856509   -0.000000
      6          1           0        2.421155   -0.856540   -0.000000
 ---------------------------------------------------------------------

 Alpha  occ. eigenvalues --  -10.58994 -10.58994  -0.74111  -0.73971  -0.45710
 Alpha  occ. eigenvalues --   -0.45589  -0.31315  -0.27648
 Alpha virt. eigenvalues --   -0.07190  -0.06238   0.02567   0.03512   0.06702
 Alpha virt. eigenvalues --    0.08586   0.08886   0.10481   0.12563   0.15435
 Alpha virt. eigenvalues --    0.17625   0.20003   0.21126   0.23177   0.44931

  Beta  occ. eigenvalues --  -10.58994 -10.58994  -0.74111  -0.73971  -0.45710
  Beta  occ. eigenvalues --   -0.45589  -0.31315  -0.27648
  Beta virt. eigenvalues --   -0.07190  -0.06238   0.02567   0.03512   0.06702
  Beta virt. eigenvalues --    0.08586   0.08886   0.10481   0.12563   0.15435
  Beta virt. eigenvalues --    0.17625   0.20003   0.21126   0.23177   0.44931

 Mulliken charges and spin densities:
               1          2
     1  C   -0.236606   0.000000
     2  C   -0.236606  -0.000000
     3  H    0.118303  -0.000000
     4  H    0.118303  -0.000000
     5  H    0.118303   0.000000
     6  H    0.118303   0.000000
 Sum of Mulliken charges =  -0.00000  -0.00000

 Dipole moment (field-independent basis, Debye):
    X=             -0.0000    Y=              0.0000    Z=             -0.0000  Tot=              0.0000
 Quadrupole moment (field-independent basis, Debye-Ang):
   XX=             -6.3590   YY=            -14.7820   ZZ=            -12.9933
   XY=             -0.0001   XZ=             -0.0000   YZ=             -0.0000

 Normal termination of Gaussian 16 at Tue Dec  3 11:13:19 2024.
