 Gaussian 16, Revision A.03,
 Gaussian 16:  ES64L-G16RevA.03 25-Dec-2016

 ---------------------------------------------------
 #p UM062X/6-311+G** force int=superfine pop=saveNBO
 ---------------------------------------------------

 -------------------
 Title Card Required
 -------------------
 Symbolic Z-matrix:
 Charge =  0 Multiplicity = 1

                         Standard orientation:
 ---------------------------------------------------------------------
 Center     Atomic      Atomic             Coordinates (Angstroms)
 Number     Number       Type             X           Y           Z
 ---------------------------------------------------------------------
      1          6           0        0.000000    0.000000   -1.212665
      2          8           0        0.000000    0.000000    0.909499
 ---------------------------------------------------------------------

 SCF Done:  E(UM062X) =  -112.875087865     A.U. after   16 cycles

 The electronic state is 1-SG.
 Alpha  occ. eigenvalues --  -19.70368 -10.84999  -1.00708  -0.72053  -0.39481
 Alpha  occ. eigenvalues --   -0.37028  -0.37028
 Alpha virt. eigenvalues --   -0.17741  -0.17741  -0.09741   0.03119   0.06247
 Alpha virt. eigenvalues --    0.06247   0.06902   0.20083   0.22601   0.22601
 Alpha virt. eigenvalues --    0.32146   0.51271   0.51271   0.53108   0.67331

  Beta  occ. eigenvalues --  -19.70368 -10.84999  -1.00708  -0.72053  -0.39481
  Beta  occ. eigenvalues --   -0.37028  -0.37028
  Beta virt. eigenvalues --   -0.17741  -0.17741  -0.09741   0.03119   0.06247
  Beta virt. eigenvalues --    0.06247   0.06902   0.20083   0.22601   0.22601
  Beta virt. eigenvalues --    0.32146   0.51271   0.51271   0.53108   0.67331

 Mulliken charges and spin densities:
               1          2
     1  C    0.338892  -0.000000
     2  O   -0.338892   0.000000
 Sum of Mulliken charges =  -0.00000  -0.00000

 Dipole moment (field-independent basis, Debye):
    X=              0.0000    Y=              0.0000    Z=             -3.5939  Tot=              3.5939
 Quadrupole moment (field-independent basis, Debye-Ang):
   XX=            -11.5831   YY=            -11.5831   ZZ=            -10.7045
   XY=              0.0000   XZ=              0.0000   YZ=              0.0000

 Summary of Natural Population Analysis:

                                       Natural Population
                Natural  -----------------------------------------------
    Atom  No    Charge         Core      Valence    Rydberg      Total
 -----------------------------------------------------------------------
      C    1    0.29187      1.00000     1.70684    0.00129     2.70813
      O    2   -0.29187      1.00000     3.29076    0.00112     4.29187
 =======================================================================
   * Total *   -0.00000      1.99999     4.99759    0.00241     7.00000

 Normal termination of Gaussian 16 at Mon Apr 21 19:30:47 2025.
