 Gaussian 16, Revision A.03,
 Gaussian 16:  ES64L-G16RevA.03 25-Dec-2016

 --------------------------------------------
 #p opt UM062X/6-311+G** nosymm int=superfine
 --------------------------------------------

 -------------------
 Title Card Required
 -------------------
 Symbolic Z-matrix:
 Charge =  0 Multiplicity = 1

 SCF Done:  E(UM062X) =  -438.469446421     A.U. after   15 cycles
 SCF Done:  E(UM062X) =  -438.483211757     A.U. after   13 cycles
 SCF Done:  E(UM062X) =  -438.490596795     A.U. after   12 cycles
 SCF Done:  E(UM062X) =  -438.490669952     A.U. after   11 cycles
 SCF Done:  E(UM062X) =  -438.490683545     A.U. after   11 cycles
 SCF Done:  E(UM062X) =  -438.490730234     A.U. after   12 cycles
 SCF Done:  E(UM062X) =  -438.490734362     A.U. after   11 cycles
 SCF Done:  E(UM062X) =  -438.490734910     A.U. after    9 cycles
 SCF Done:  E(UM062X) =  -438.490735004     A.U. after    9 cycles
 SCF Done:  E(UM062X) =  -438.490735189     A.U. after   10 cycles
 SCF Done:  E(UM062X) =  -438.490736014     A.U. after    9 cycles
 SCF Done:  E(UM062X) =  -438.490736321     A.U. after   16 cycles
 SCF Done:  E(UM062X) =  -438.490736189     A.U. after   12 cycles
 SCF Done:  E(UM062X) =  -438.490736705     A.U. after   13 cycles
 SCF Done:  E(UM062X) =  -438.490735957     A.U. after   14 cycles
 SCF Done:  E(UM062X) =  -438.490732940     A.U. after   17 cycles
 SCF Done:  E(UM062X) =  -438.490736406     A.U. after   12 cycles
 SCF Done:  E(UM062X) =  -438.490736699     A.U. after   14 cycles
 SCF Done:  E(UM062X) =  -438.490736847     A.U. after   12 cycles
 SCF Done:  E(UM062X) =  -438.490736859     A.U. after    9 cycles
 Optimization completed.
    -- Stationary point found.

                          Input orientation:
 ---------------------------------------------------------------------
 Center     Atomic      Atomic             Coordinates (Angstroms)
 Number     Number       Type             X           Y           Z
 ---------------------------------------------------------------------
      1          6           0       -2.135220    0.000000    0.000000
      2         16           0        2.135220    0.000000    0.000000
      3          1           0        2.098043   -1.342602   -0.067554
      4          1           0       -2.107796    1.080702   -0.013659
      5          1           0       -2.169843   -0.550411   -0.929909
      6          1           0       -2.167181   -0.526897    0.943530
 ---------------------------------------------------------------------

 Alpha  occ. eigenvalues --  -89.87403 -10.65170  -8.23725  -6.15764  -6.15707
 Alpha  occ. eigenvalues --   -6.15154  -0.83623  -0.75319  -0.55684  -0.55617
 Alpha  occ. eigenvalues --   -0.41867  -0.27810  -0.25965
 Alpha virt. eigenvalues --   -0.17119   0.00854   0.03619   0.03930   0.05520
 Alpha virt. eigenvalues --    0.07477   0.08369   0.08427   0.10679   0.13337
 Alpha virt. eigenvalues --    0.15355   0.15447   0.20119   0.34850   0.36285

  Beta  occ. eigenvalues --  -89.87403 -10.65170  -8.23725  -6.15764  -6.15707
  Beta  occ. eigenvalues --   -6.15154  -0.83623  -0.75319  -0.55684  -0.55617
  Beta  occ. eigenvalues --   -0.41867  -0.27810  -0.25965
  Beta virt. eigenvalues --   -0.17119   0.00854   0.03619   0.03930   0.05520
  Beta virt. eigenvalues --    0.07477   0.08369   0.08427   0.10679   0.13337
  Beta virt. eigenvalues --    0.15355   0.15447   0.20119   0.34850   0.36285

 Mulliken charges and spin densities:
               1          2
     1  C   -0.367347   0.000000
     2  S   -0.297177  -0.000000
     3  H    0.050179   0.000000
     4  H    0.206687   0.000000
     5  H    0.203625   0.000000
     6  H    0.204032  -0.000000
 Sum of Mulliken charges =  -0.00000   0.00000

 Dipole moment (field-independent basis, Debye):
    X=             -5.4672    Y=             -0.9567    Z=             -0.0483  Tot=              5.5505
 Quadrupole moment (field-independent basis, Debye-Ang):
   XX=            -21.0266   YY=            -19.6358   ZZ=            -23.6667
   XY=             -2.0708   XZ=             -0.1065   YZ=              0.2032

 Normal termination of Gaussian 16 at Mon Apr 21 19:43:00 2025.
