 Gaussian 16, Revision A.03,
 Gaussian 16:  ES64L-G16RevA.03 25-Dec-2016

 --------------------------------------------
 #p opt UM062X/6-311+G** nosymm int=superfine
 --------------------------------------------

 -------------------
 Title Card Required
 -------------------
 Symbolic Z-matrix:
 Charge =  0 Multiplicity = 1

 SCF Done:  E(UM062X) =  -76.9078645023     A.U. after   14 cycles
 SCF Done:  E(UM062X) =  -76.9090503313     A.U. after   13 cycles
 SCF Done:  E(UM062X) =  -76.9102000024     A.U. after   14 cycles
 SCF Done:  E(UM062X) =  -76.9103061940     A.U. after   15 cycles
 SCF Done:  E(UM062X) =  -76.9103319228     A.U. after   13 cycles
 SCF Done:  E(UM062X) =  -76.9103376949     A.U. after   17 cycles
 SCF Done:  E(UM062X) =  -76.9103378881     A.U. after   13 cycles
 SCF Done:  E(UM062X) =  -76.9103381193     A.U. after   11 cycles
 SCF Done:  E(UM062X) =  -76.9103381366     A.U. after   12 cycles
 Optimization completed.
    -- Stationary point found.

                          Input orientation:
 ---------------------------------------------------------------------
 Center     Atomic      Atomic             Coordinates (Angstroms)
 Number     Number       Type             X           Y           Z
 ---------------------------------------------------------------------
      1          6           0       -1.532625    0.000000    0.000000
      2          6           0        1.532625    0.000000    0.000000
      3          1           0       -1.417409   -0.441566    1.019417
      4          1           0        1.417236    0.792115   -0.778905
 ---------------------------------------------------------------------

 Alpha  occ. eigenvalues --  -10.67291 -10.67289  -0.73077  -0.71561  -0.38983
 Alpha  occ. eigenvalues --   -0.38426  -0.25695
 Alpha virt. eigenvalues --   -0.10551  -0.09661  -0.08681   0.03356   0.04983
 Alpha virt. eigenvalues --    0.07307   0.07474   0.09558   0.10005   0.10761
 Alpha virt. eigenvalues --    0.14528   0.18015   0.19818   0.44453   0.45370

  Beta  occ. eigenvalues --  -10.67291 -10.67289  -0.73077  -0.71561  -0.38983
  Beta  occ. eigenvalues --   -0.38426  -0.25695
  Beta virt. eigenvalues --   -0.10551  -0.09661  -0.08681   0.03356   0.04983
  Beta virt. eigenvalues --    0.07307   0.07474   0.09558   0.10005   0.10761
  Beta virt. eigenvalues --    0.14528   0.18015   0.19818   0.44453   0.45370

 Mulliken charges and spin densities:
               1          2
     1  C   -0.146242   0.000000
     2  C   -0.146215  -0.000000
     3  H    0.146227   0.000000
     4  H    0.146230  -0.000000
 Sum of Mulliken charges =  -0.00000  -0.00000

 Dipole moment (field-independent basis, Debye):
    X=             -0.0001    Y=              0.5161    Z=              0.3541  Tot=              0.6259
 Quadrupole moment (field-independent basis, Debye-Ang):
   XX=            -16.9810   YY=            -12.7430   ZZ=            -13.6399
   XY=              2.8735   XZ=             -4.1886   YZ=              1.1623

 Normal termination of Gaussian 16 at Tue Dec  3 22:47:42 2024.
