 Gaussian 16, Revision A.03,
 Gaussian 16:  ES64L-G16RevA.03 25-Dec-2016

 ---------------------------------------
 #p UM062X/6-311+G** force int=superfine
 ---------------------------------------

 -------------------
 Title Card Required
 -------------------
 Symbolic Z-matrix:
 Charge =  0 Multiplicity = 1

                         Standard orientation:
 ---------------------------------------------------------------------
 Center     Atomic      Atomic             Coordinates (Angstroms)
 Number     Number       Type             X           Y           Z
 ---------------------------------------------------------------------
      1          6           0        0.051480    0.199380    0.822186
      2          6           0       -0.051480   -0.199380   -0.822186
      3          1           0        0.209564   -1.248197   -0.953270
      4          1           0       -0.639743   -0.424905    1.385938
      5          1           0        0.639742    0.424905   -1.385939
      6          1           0       -1.069016   -0.027489   -1.169184
      7          1           0       -0.209563    1.248197    0.953270
      8          1           0        1.069016    0.027489    1.169186
 ---------------------------------------------------------------------

 SCF Done:  E(UM062X) =  -79.7866017772     A.U. after    8 cycles

 The electronic state is 1-A.
 Alpha  occ. eigenvalues --  -10.53129 -10.53109  -0.82164  -0.70955  -0.49290
 Alpha  occ. eigenvalues --   -0.49290  -0.41932  -0.41932  -0.39104
 Alpha virt. eigenvalues --    0.02223   0.03877   0.05592   0.05592   0.08680
 Alpha virt. eigenvalues --    0.08680   0.09097   0.13676   0.18478   0.18479
 Alpha virt. eigenvalues --    0.21552   0.21552   0.21813   0.24191   0.27751

  Beta  occ. eigenvalues --  -10.53129 -10.53109  -0.82164  -0.70955  -0.49290
  Beta  occ. eigenvalues --   -0.49290  -0.41932  -0.41932  -0.39104
  Beta virt. eigenvalues --    0.02223   0.03877   0.05592   0.05592   0.08680
  Beta virt. eigenvalues --    0.08680   0.09097   0.13676   0.18478   0.18479
  Beta virt. eigenvalues --    0.21552   0.21552   0.21813   0.24191   0.27751

 Mulliken charges and spin densities:
               1          2
     1  C   -0.482480   0.000000
     2  C   -0.482480  -0.000000
     3  H    0.160826   0.000000
     4  H    0.160827   0.000000
     5  H    0.160827   0.000000
     6  H    0.160827   0.000000
     7  H    0.160826  -0.000000
     8  H    0.160827   0.000000
 Sum of Mulliken charges =  -0.00000  -0.00000

 Dipole moment (field-independent basis, Debye):
    X=             -0.0000    Y=             -0.0000    Z=             -0.0000  Tot=              0.0000
 Quadrupole moment (field-independent basis, Debye-Ang):
   XX=            -14.9513   YY=            -14.9860   ZZ=            -15.5828
   XY=             -0.0096   XZ=             -0.0398   YZ=             -0.1538

 Normal termination of Gaussian 16 at Tue Nov 19 12:45:59 2024.
