 Gaussian 16, Revision A.03,
 Gaussian 16:  ES64L-G16RevA.03 25-Dec-2016

 --------------------------------------------
 #p opt UM062X/6-311+G** nosymm int=superfine
 --------------------------------------------

 -------------------
 Title Card Required
 -------------------
 Symbolic Z-matrix:
 Charge =  0 Multiplicity = 1

 SCF Done:  E(UM062X) =  -683.587895973     A.U. after   11 cycles
 SCF Done:  E(UM062X) =  -683.588186353     A.U. after   12 cycles
 SCF Done:  E(UM062X) =  -683.588668788     A.U. after   13 cycles
 SCF Done:  E(UM062X) =  -683.588768314     A.U. after   13 cycles
 SCF Done:  E(UM062X) =  -683.588768722     A.U. after    9 cycles
 Optimization completed.
    -- Stationary point found.

                          Input orientation:
 ---------------------------------------------------------------------
 Center     Atomic      Atomic             Coordinates (Angstroms)
 Number     Number       Type             X           Y           Z
 ---------------------------------------------------------------------
      1         15           0       -2.184490    0.000000    0.000000
      2         15           0        2.184490    0.000000    0.000000
      3          1           0       -2.040607   -1.416418   -0.000000
      4          1           0        2.040607    1.416418   -0.000000
 ---------------------------------------------------------------------

 Alpha  occ. eigenvalues --  -78.08363 -78.08363  -6.90413  -6.90413  -5.01822
 Alpha  occ. eigenvalues --   -5.01822  -5.01804  -5.01804  -5.01626  -5.01626
 Alpha  occ. eigenvalues --   -0.68624  -0.68112  -0.40570  -0.40466  -0.25285
 Alpha  occ. eigenvalues --   -0.23945
 Alpha virt. eigenvalues --   -0.17164  -0.15726   0.01907   0.03038   0.03709
 Alpha virt. eigenvalues --    0.04475   0.05556   0.05986   0.06409   0.07503
 Alpha virt. eigenvalues --    0.08327   0.11467   0.28489   0.29134   0.30517

  Beta  occ. eigenvalues --  -78.08363 -78.08363  -6.90413  -6.90413  -5.01822
  Beta  occ. eigenvalues --   -5.01822  -5.01804  -5.01804  -5.01626  -5.01626
  Beta  occ. eigenvalues --   -0.68624  -0.68112  -0.40570  -0.40466  -0.25285
  Beta  occ. eigenvalues --   -0.23945
  Beta virt. eigenvalues --   -0.17164  -0.15726   0.01907   0.03038   0.03709
  Beta virt. eigenvalues --    0.04475   0.05556   0.05986   0.06409   0.07503
  Beta virt. eigenvalues --    0.08327   0.11467   0.28489   0.29134   0.30517

 Mulliken charges and spin densities:
               1          2
     1  P    0.010849   0.000027
     2  P    0.010850  -0.000027
     3  H   -0.010850  -0.000000
     4  H   -0.010850   0.000000
 Sum of Mulliken charges =  -0.00000  -0.00000

 Dipole moment (field-independent basis, Debye):
    X=              0.0000    Y=              0.0000    Z=             -0.0000  Tot=              0.0000
 Quadrupole moment (field-independent basis, Debye-Ang):
   XX=            -26.9798   YY=            -28.5060   ZZ=            -30.7894
   XY=              3.3523   XZ=              0.0000   YZ=              0.0000

 Normal termination of Gaussian 16 at Mon Apr 21 21:13:37 2025.
