 Gaussian 16, Revision A.03,
 Gaussian 16:  ES64L-G16RevA.03 25-Dec-2016

 --------------------------------------------
 #p opt UM062X/6-311+G** nosymm int=superfine
 --------------------------------------------

 -------------------
 Title Card Required
 -------------------
 Symbolic Z-matrix:
 Charge = -1 Multiplicity = 2

 SCF Done:  E(UM062X) =  -51.8694560085     A.U. after   11 cycles
 SCF Done:  E(UM062X) =  -51.8744416874     A.U. after   10 cycles
 SCF Done:  E(UM062X) =  -51.8769366027     A.U. after   11 cycles
 SCF Done:  E(UM062X) =  -51.8769640739     A.U. after   16 cycles
 SCF Done:  E(UM062X) =  -51.8769622956     A.U. after   11 cycles
 SCF Done:  E(UM062X) =  -51.8769613148     A.U. after   13 cycles
 SCF Done:  E(UM062X) =  -51.8769639212     A.U. after   16 cycles
 SCF Done:  E(UM062X) =  -51.8769641317     A.U. after   13 cycles
 Optimization completed.
    -- Stationary point found.

                          Input orientation:
 ---------------------------------------------------------------------
 Center     Atomic      Atomic             Coordinates (Angstroms)
 Number     Number       Type             X           Y           Z
 ---------------------------------------------------------------------
      1          5           0       -1.572274    0.000000    0.000000
      2          5           0        1.572274    0.000000    0.000000
      3          1           0       -2.089213   -1.072776    0.000096
      4          1           0        2.089215    1.072775   -0.000099
      5          1           0       -2.089213    1.072775   -0.000417
      6          1           0        2.089215   -1.072774    0.000428
 ---------------------------------------------------------------------

 Alpha  occ. eigenvalues --   -6.88780  -6.88777  -0.38083  -0.37010  -0.23908
 Alpha  occ. eigenvalues --   -0.23446  -0.03480   0.01453
 Alpha virt. eigenvalues --    0.11858   0.14354   0.16369   0.18566   0.19048
 Alpha virt. eigenvalues --    0.19206   0.22174   0.22495   0.23579   0.25518
 Alpha virt. eigenvalues --    0.32179   0.33853   0.33980   0.41079   0.49151

  Beta  occ. eigenvalues --   -6.88741  -6.88739  -0.36516  -0.35680  -0.23828
  Beta  occ. eigenvalues --   -0.23410  -0.02180
  Beta virt. eigenvalues --    0.10743   0.12906   0.13716   0.13722   0.16074
  Beta virt. eigenvalues --    0.17140   0.17977   0.19996   0.21482   0.21643
  Beta virt. eigenvalues --    0.23651   0.31328   0.32715   0.34051   0.40725

 Mulliken charges and spin densities:
               1          2
     1  B   -0.427666   0.546500
     2  B   -0.427664   0.546486
     3  H   -0.036167  -0.023247
     4  H   -0.036168  -0.023246
     5  H   -0.036167  -0.023247
     6  H   -0.036168  -0.023246
 Sum of Mulliken charges =  -1.00000   1.00000

 Dipole moment (field-independent basis, Debye):
    X=              0.0000    Y=              0.0000    Z=              0.0000  Tot=              0.0000
 Quadrupole moment (field-independent basis, Debye-Ang):
   XX=            -33.3423   YY=            -23.6121   ZZ=            -26.2381
   XY=             -0.0000   XZ=             -0.0007   YZ=             -0.0006

 Normal termination of Gaussian 16 at Mon Apr 21 17:24:23 2025.
