 Gaussian 16, Revision A.03,
 Gaussian 16:  ES64L-G16RevA.03 25-Dec-2016

 ---------------------------------------
 #p UM062X/6-311+G** force int=superfine
 ---------------------------------------

 -------------------
 Title Card Required
 -------------------
 Symbolic Z-matrix:
 Charge =  1 Multiplicity = 2

                         Standard orientation:
 ---------------------------------------------------------------------
 Center     Atomic      Atomic             Coordinates (Angstroms)
 Number     Number       Type             X           Y           Z
 ---------------------------------------------------------------------
      1          6           0        0.898803   -0.000005   -0.000111
      2          6           0       -0.898803    0.000007    0.000111
      3          1           0       -1.075020   -0.043775   -1.072242
      4          1           0        1.073737   -0.950747   -0.498580
      5          1           0       -1.073779    0.950754    0.498555
      6          1           0       -1.073747   -0.906957    0.574387
      7          1           0        1.075023    0.043745    1.072243
      8          1           0        1.073786    0.906967   -0.574361
 ---------------------------------------------------------------------

 SCF Done:  E(UM062X) =  -79.3658069225     A.U. after   11 cycles

 The electronic state is 2-A.
 Alpha  occ. eigenvalues --  -10.86172 -10.86155  -1.14113  -1.00522  -0.80508
 Alpha  occ. eigenvalues --   -0.80502  -0.72780  -0.72779  -0.67325
 Alpha virt. eigenvalues --   -0.17385  -0.16932  -0.11566  -0.11565  -0.09359
 Alpha virt. eigenvalues --   -0.07741  -0.06692  -0.06686  -0.05848  -0.05847
 Alpha virt. eigenvalues --   -0.01173   0.01249   0.01256   0.03692   0.07665

  Beta  occ. eigenvalues --  -10.85936 -10.85936  -1.10533  -0.97052  -0.79332
  Beta  occ. eigenvalues --   -0.79327  -0.71809  -0.71807
  Beta virt. eigenvalues --   -0.43410  -0.16349  -0.14439  -0.11348  -0.11348
  Beta virt. eigenvalues --   -0.08039  -0.06772  -0.06769  -0.05847  -0.05457
  Beta virt. eigenvalues --   -0.05452   0.00168   0.02002   0.02010   0.04291

 Mulliken charges and spin densities:
               1          2
     1  C   -0.328030   0.525170
     2  C   -0.328030   0.525170
     3  H    0.275999  -0.008515
     4  H    0.276015  -0.008326
     5  H    0.276016  -0.008328
     6  H    0.276015  -0.008327
     7  H    0.275999  -0.008515
     8  H    0.276016  -0.008328
 Sum of Mulliken charges =   1.00000   1.00000

 Dipole moment (field-independent basis, Debye):
    X=              0.0000    Y=             -0.0000    Z=              0.0000  Tot=              0.0000
 Quadrupole moment (field-independent basis, Debye-Ang):
   XX=             -7.3311   YY=            -10.6526   ZZ=            -10.6543
   XY=             -0.0000   XZ=             -0.0006   YZ=             -0.0000

 Normal termination of Gaussian 16 at Tue Nov 19 08:44:30 2024.
