 Gaussian 16, Revision A.03,
 Gaussian 16:  ES64L-G16RevA.03 25-Dec-2016

 --------------------------------------------
 #p opt UM062X/6-311+G** nosymm int=superfine
 --------------------------------------------

 -------------------
 Title Card Required
 -------------------
 Symbolic Z-matrix:
 Charge =  0 Multiplicity = 1

 SCF Done:  E(UM062X) =  -582.505527899     A.U. after    9 cycles
 SCF Done:  E(UM062X) =  -582.505785973     A.U. after    7 cycles
 SCF Done:  E(UM062X) =  -582.505812812     A.U. after    7 cycles
 Optimization completed.
    -- Stationary point found.

                          Input orientation:
 ---------------------------------------------------------------------
 Center     Atomic      Atomic             Coordinates (Angstroms)
 Number     Number       Type             X           Y           Z
 ---------------------------------------------------------------------
      1         14           0       -1.369819    0.000000    0.000000
      2         14           0        1.369819    0.000000    0.000000
      3          1           0        1.852702   -1.397808   -0.000041
      4          1           0       -1.852755   -0.698750    1.210614
      5          1           0        1.852836    0.698896   -1.210497
      6          1           0        1.852759    0.698801    1.210583
      7          1           0       -1.852704    1.397808   -0.000102
      8          1           0       -1.852837   -0.698948   -1.210466
 ---------------------------------------------------------------------

 Alpha  occ. eigenvalues --  -67.00063 -67.00063  -5.54999  -5.54998  -3.86161
 Alpha  occ. eigenvalues --   -3.86149  -3.86092  -3.86092  -3.86090  -3.86090
 Alpha  occ. eigenvalues --   -0.62317  -0.58718  -0.41660  -0.41660  -0.40285
 Alpha  occ. eigenvalues --   -0.40285  -0.30920
 Alpha virt. eigenvalues --   -0.00386   0.01976   0.03080   0.03080   0.04494
 Alpha virt. eigenvalues --    0.05552   0.05646   0.05646   0.06054   0.06054
 Alpha virt. eigenvalues --    0.08849   0.09088   0.09089   0.15578   0.17791

  Beta  occ. eigenvalues --  -67.00063 -67.00063  -5.54999  -5.54998  -3.86161
  Beta  occ. eigenvalues --   -3.86149  -3.86092  -3.86092  -3.86090  -3.86090
  Beta  occ. eigenvalues --   -0.62317  -0.58718  -0.41660  -0.41660  -0.40285
  Beta  occ. eigenvalues --   -0.40285  -0.30920
  Beta virt. eigenvalues --   -0.00386   0.01976   0.03080   0.03080   0.04494
  Beta virt. eigenvalues --    0.05552   0.05646   0.05646   0.06054   0.06054
  Beta virt. eigenvalues --    0.08849   0.09088   0.09089   0.15578   0.17791

 Mulliken charges and spin densities:
               1          2
     1  Si   0.298662   0.000000
     2  Si   0.298662  -0.000000
     3  H   -0.099556   0.000000
     4  H   -0.099553  -0.000000
     5  H   -0.099553   0.000000
     6  H   -0.099553  -0.000000
     7  H   -0.099556  -0.000000
     8  H   -0.099553   0.000000
 Sum of Mulliken charges =  -0.00000  -0.00000

 Dipole moment (field-independent basis, Debye):
    X=              0.0000    Y=              0.0000    Z=             -0.0000  Tot=              0.0000
 Quadrupole moment (field-independent basis, Debye-Ang):
   XX=            -31.6695   YY=            -31.5270   ZZ=            -31.5269
   XY=              0.0004   XZ=              0.0000   YZ=             -0.0000

 Normal termination of Gaussian 16 at Mon Apr 21 20:17:45 2025.
