 Gaussian 16, Revision A.03,
 Gaussian 16:  ES64L-G16RevA.03 25-Dec-2016

 --------------------------------------------
 #p opt UM062X/6-311+G** nosymm int=superfine
 --------------------------------------------

 -------------------
 Title Card Required
 -------------------
 Symbolic Z-matrix:
 Charge =  0 Multiplicity = 1

 SCF Done:  E(UM062X) =  -382.379458104     A.U. after   11 cycles
 SCF Done:  E(UM062X) =  -382.382948744     A.U. after   10 cycles
 SCF Done:  E(UM062X) =  -382.383543565     A.U. after   10 cycles
 SCF Done:  E(UM062X) =  -382.383554888     A.U. after    8 cycles
 SCF Done:  E(UM062X) =  -382.383556607     A.U. after    8 cycles
 Optimization completed.
    -- Stationary point found.

                          Input orientation:
 ---------------------------------------------------------------------
 Center     Atomic      Atomic             Coordinates (Angstroms)
 Number     Number       Type             X           Y           Z
 ---------------------------------------------------------------------
      1          6           0       -1.181264    0.000000    0.000000
      2         15           0        1.181264    0.000000    0.000000
      3          1           0        1.231318   -1.416466    0.022241
      4          1           0       -1.443509    1.027503    0.224974
      5          1           0        1.231296    0.089341    1.413807
      6          1           0       -1.443495   -0.303920   -1.006985
      7          1           0       -1.470600   -0.709323    0.766577
 ---------------------------------------------------------------------

 Alpha  occ. eigenvalues --  -78.02721 -10.55947  -6.85080  -4.96617  -4.96592
 Alpha  occ. eigenvalues --   -4.96376  -0.78023  -0.68812  -0.48340  -0.48154
 Alpha  occ. eigenvalues --   -0.43220  -0.35810  -0.30618
 Alpha virt. eigenvalues --   -0.01364   0.01467   0.03991   0.04519   0.05744
 Alpha virt. eigenvalues --    0.06444   0.06641   0.07815   0.07921   0.13388
 Alpha virt. eigenvalues --    0.17723   0.18841   0.19118   0.26585   0.30264

  Beta  occ. eigenvalues --  -78.02721 -10.55947  -6.85080  -4.96617  -4.96592
  Beta  occ. eigenvalues --   -4.96376  -0.78023  -0.68812  -0.48340  -0.48154
  Beta  occ. eigenvalues --   -0.43220  -0.35810  -0.30618
  Beta virt. eigenvalues --   -0.01364   0.01467   0.03991   0.04519   0.05744
  Beta virt. eigenvalues --    0.06444   0.06641   0.07815   0.07921   0.13388
  Beta virt. eigenvalues --    0.17723   0.18841   0.19118   0.26585   0.30264

 Mulliken charges and spin densities:
               1          2
     1  C   -0.564334   0.000000
     2  P   -0.002270  -0.000000
     3  H    0.014105   0.000000
     4  H    0.179394  -0.000000
     5  H    0.014110   0.000000
     6  H    0.179402  -0.000000
     7  H    0.179593  -0.000000
 Sum of Mulliken charges =  -0.00000   0.00000

 Dipole moment (field-independent basis, Debye):
    X=             -0.6689    Y=             -0.4970    Z=              0.5378  Tot=              0.9918
 Quadrupole moment (field-independent basis, Debye-Ang):
   XX=            -23.1075   YY=            -22.0541   ZZ=            -22.1693
   XY=             -1.0896   XZ=              1.1790   YZ=              0.7291

 Normal termination of Gaussian 16 at Mon Apr 21 19:03:01 2025.
