 Gaussian 16, Revision A.03,
 Gaussian 16:  ES64L-G16RevA.03 25-Dec-2016

 --------------------------------------------
 #p opt UM062X/6-311+G** nosymm int=superfine
 --------------------------------------------

 -------------------
 Title Card Required
 -------------------
 Symbolic Z-matrix:
 Charge = -1 Multiplicity = 2

 SCF Done:  E(UM062X) =  -53.2321323656     A.U. after   11 cycles
 SCF Done:  E(UM062X) =  -53.2324687884     A.U. after   10 cycles
 SCF Done:  E(UM062X) =  -53.2325290919     A.U. after    9 cycles
 Optimization completed.
    -- Stationary point found.

                          Input orientation:
 ---------------------------------------------------------------------
 Center     Atomic      Atomic             Coordinates (Angstroms)
 Number     Number       Type             X           Y           Z
 ---------------------------------------------------------------------
      1          5           0       -1.240672    0.000000    0.000000
      2          5           0        1.240672    0.000000    0.000000
      3          1           0        1.409897   -1.191169   -0.000004
      4          1           0       -1.409728   -0.595603    1.031598
      5          1           0        1.409863    0.595613   -1.031572
      6          1           0        1.409688    0.595590    1.031613
      7          1           0       -1.409904    1.191168    0.000007
      8          1           0       -1.409816   -0.595601   -1.031587
 ---------------------------------------------------------------------

 Alpha  occ. eigenvalues --   -6.81175  -6.81169  -0.39682  -0.35023  -0.20271
 Alpha  occ. eigenvalues --   -0.20271  -0.17537  -0.17536  -0.02437
 Alpha virt. eigenvalues --    0.16044   0.17235   0.17631   0.17631   0.19243
 Alpha virt. eigenvalues --    0.19243   0.20989   0.23255   0.27268   0.33068
 Alpha virt. eigenvalues --    0.33068   0.37484   0.37485   0.38985   0.41540

  Beta  occ. eigenvalues --   -6.81095  -6.81094  -0.37070  -0.33369  -0.19744
  Beta  occ. eigenvalues --   -0.19744  -0.17240  -0.17239
  Beta virt. eigenvalues --    0.13467   0.15121   0.17459   0.17459   0.18005
  Beta virt. eigenvalues --    0.18764   0.18764   0.22927   0.24328   0.32620
  Beta virt. eigenvalues --    0.33060   0.33061   0.37736   0.37737   0.39469

 Mulliken charges and spin densities:
               1          2
     1  B   -0.274015   0.591036
     2  B   -0.274015   0.591036
     3  H   -0.075337  -0.030353
     4  H   -0.075321  -0.030340
     5  H   -0.075330  -0.030344
     6  H   -0.075318  -0.030340
     7  H   -0.075338  -0.030353
     8  H   -0.075327  -0.030343
 Sum of Mulliken charges =  -1.00000   1.00000

 Dipole moment (field-independent basis, Debye):
    X=             -0.0000    Y=              0.0000    Z=             -0.0000  Tot=              0.0000
 Quadrupole moment (field-independent basis, Debye-Ang):
   XX=            -32.7503   YY=            -23.9883   ZZ=            -23.9882
   XY=              0.0001   XZ=              0.0000   YZ=              0.0000

 Normal termination of Gaussian 16 at Mon Apr 21 16:51:52 2025.
