 Gaussian 16, Revision A.03,
 Gaussian 16:  ES64L-G16RevA.03 25-Dec-2016

 --------------------------------------------
 #p opt UM062X/6-311+G** nosymm int=superfine
 --------------------------------------------

 -------------------
 Title Card Required
 -------------------
 Symbolic Z-matrix:
 Charge =  0 Multiplicity = 1

 SCF Done:  E(UM062X) =  -474.549935343     A.U. after   12 cycles
 SCF Done:  E(UM062X) =  -474.551063603     A.U. after   11 cycles
 SCF Done:  E(UM062X) =  -474.550785431     A.U. after   11 cycles
 SCF Done:  E(UM062X) =  -474.551144710     A.U. after   10 cycles
 SCF Done:  E(UM062X) =  -474.551144833     A.U. after    9 cycles
 Optimization completed.
    -- Stationary point found.

                          Input orientation:
 ---------------------------------------------------------------------
 Center     Atomic      Atomic             Coordinates (Angstroms)
 Number     Number       Type             X           Y           Z
 ---------------------------------------------------------------------
      1          8           0       -0.939392    0.000000    0.000000
      2         16           0        0.939392    0.000000    0.000000
      3          1           0       -1.144476   -0.941387   -0.031035
      4          1           0        1.026927    0.168433    1.330058
 ---------------------------------------------------------------------

 Alpha  occ. eigenvalues --  -89.95371 -19.66689  -8.31501  -6.23736  -6.23354
 Alpha  occ. eigenvalues --   -6.22847  -1.13003  -0.81915  -0.56524  -0.50539
 Alpha  occ. eigenvalues --   -0.45089  -0.39403  -0.32794
 Alpha virt. eigenvalues --   -0.04616   0.01526   0.04365   0.05158   0.06616
 Alpha virt. eigenvalues --    0.08499   0.16043   0.18844   0.20066   0.22654
 Alpha virt. eigenvalues --    0.28414   0.32027   0.33851   0.35184   0.41137

  Beta  occ. eigenvalues --  -89.95371 -19.66689  -8.31501  -6.23736  -6.23354
  Beta  occ. eigenvalues --   -6.22847  -1.13003  -0.81915  -0.56524  -0.50539
  Beta  occ. eigenvalues --   -0.45089  -0.39403  -0.32794
  Beta virt. eigenvalues --   -0.04616   0.01526   0.04365   0.05158   0.06616
  Beta virt. eigenvalues --    0.08499   0.16043   0.18844   0.20066   0.22654
  Beta virt. eigenvalues --    0.28414   0.32027   0.33851   0.35184   0.41137

 Mulliken charges and spin densities:
               1          2
     1  O   -0.429499   0.000000
     2  S    0.075120  -0.000000
     3  H    0.271196   0.000000
     4  H    0.083184   0.000000
 Sum of Mulliken charges =  -0.00000  -0.00000

 Dipole moment (field-independent basis, Debye):
    X=              0.9137    Y=             -1.5163    Z=              1.0233  Tot=              2.0448
 Quadrupole moment (field-independent basis, Debye-Ang):
   XX=            -18.8440   YY=            -19.7192   ZZ=            -18.3690
   XY=              2.6488   XZ=              1.5313   YZ=              0.5893

 Normal termination of Gaussian 16 at Thu May 15 12:52:10 2025.
