 Gaussian 16, Revision A.03,
 Gaussian 16:  ES64L-G16RevA.03 25-Dec-2016

 ---------------------------------------
 #p UM062X/6-311+G** force int=superfine
 ---------------------------------------

 -------------------
 Title Card Required
 -------------------
 Symbolic Z-matrix:
 Charge =  1 Multiplicity = 2

                         Standard orientation:
 ---------------------------------------------------------------------
 Center     Atomic      Atomic             Coordinates (Angstroms)
 Number     Number       Type             X           Y           Z
 ---------------------------------------------------------------------
      1          6           0        0.942264    0.973871   -1.765515
      2          6           0       -0.942266   -0.973868    1.765516
      3          1           0       -1.858347   -1.140423    1.211978
      4          1           0        0.821466    0.071505   -2.352441
      5          1           0       -0.821754   -0.072092    2.353411
      6          1           0       -0.172933   -1.736258    1.780392
      7          1           0        1.858294    1.140651   -1.211960
      8          1           0        0.173283    1.736598   -1.781386
 ---------------------------------------------------------------------

 SCF Done:  E(UM062X) =  -79.3137126514     A.U. after   10 cycles

 The electronic state is 2-A.
 Alpha  occ. eigenvalues --  -10.82749 -10.82748  -1.01383  -1.01202  -0.72503
 Alpha  occ. eigenvalues --   -0.72502  -0.72461  -0.72460  -0.45816
 Alpha virt. eigenvalues --   -0.37909  -0.12238  -0.10003  -0.08951  -0.08951
 Alpha virt. eigenvalues --   -0.06187  -0.06187  -0.04465  -0.02465   0.00725
 Alpha virt. eigenvalues --    0.00727   0.01576   0.01578   0.02226   0.09220

  Beta  occ. eigenvalues --  -10.82520 -10.82520  -0.98715  -0.98638  -0.71960
  Beta  occ. eigenvalues --   -0.71960  -0.71913  -0.71912
  Beta virt. eigenvalues --   -0.30991  -0.26683  -0.17044  -0.10250  -0.10053
  Beta virt. eigenvalues --   -0.10049  -0.06111  -0.06110  -0.05815  -0.01491
  Beta virt. eigenvalues --    0.00689   0.00692   0.01822   0.01825   0.02273

 Mulliken charges and spin densities:
               1          2
     1  C   -0.232692   0.560017
     2  C   -0.232693   0.560017
     3  H    0.244243  -0.020009
     4  H    0.244198  -0.020021
     5  H    0.244217  -0.020023
     6  H    0.244232  -0.019984
     7  H    0.244244  -0.020010
     8  H    0.244251  -0.019987
 Sum of Mulliken charges =   1.00000   1.00000

 Dipole moment (field-independent basis, Debye):
    X=              0.0000    Y=             -0.0000    Z=             -0.0000  Tot=              0.0000
 Quadrupole moment (field-independent basis, Debye-Ang):
   XX=             -6.9685   YY=             -6.6865   ZZ=              3.4537
   XY=              4.2930   XZ=             -7.7818   YZ=             -8.0415

 Normal termination of Gaussian 16 at Tue Nov 19 08:46:54 2024.
