 Gaussian 16, Revision A.03,
 Gaussian 16:  ES64L-G16RevA.03 25-Dec-2016

 --------------------------------------------
 #p opt UM062X/6-311+G** nosymm int=superfine
 --------------------------------------------

 -------------------
 Title Card Required
 -------------------
 Symbolic Z-matrix:
 Charge =  0 Multiplicity = 1

 SCF Done:  E(UM062X) =  -51.8130830300     A.U. after   10 cycles
 SCF Done:  E(UM062X) =  -51.8180594113     A.U. after    9 cycles
 SCF Done:  E(UM062X) =  -51.8208010009     A.U. after   11 cycles
 SCF Done:  E(UM062X) =  -51.8208032006     A.U. after    9 cycles
 SCF Done:  E(UM062X) =  -51.8207879357     A.U. after    9 cycles
 SCF Done:  E(UM062X) =  -51.8208029804     A.U. after    9 cycles
 SCF Done:  E(UM062X) =  -51.8208024552     A.U. after   13 cycles
 SCF Done:  E(UM062X) =  -51.8208033271     A.U. after    7 cycles
 Optimization completed.
    -- Stationary point found.

                          Input orientation:
 ---------------------------------------------------------------------
 Center     Atomic      Atomic             Coordinates (Angstroms)
 Number     Number       Type             X           Y           Z
 ---------------------------------------------------------------------
      1          5           0       -1.845607    0.000000    0.000000
      2          5           0        1.845607    0.000000    0.000000
      3          1           0       -2.317271   -1.081316   -0.000648
      4          1           0        2.317271    1.081297   -0.006438
      5          1           0       -2.317273    1.081316   -0.000276
      6          1           0        2.317273   -1.081302    0.005516
 ---------------------------------------------------------------------

 Alpha  occ. eigenvalues --   -7.11242  -7.11241  -0.57773  -0.57321  -0.44843
 Alpha  occ. eigenvalues --   -0.44688  -0.21000
 Alpha virt. eigenvalues --   -0.05798  -0.05198  -0.03638   0.02298   0.03359
 Alpha virt. eigenvalues --    0.03852   0.05526   0.06265   0.07335   0.08130
 Alpha virt. eigenvalues --    0.10131   0.15560   0.16338   0.17144   0.24709

  Beta  occ. eigenvalues --   -7.11242  -7.11241  -0.57773  -0.57321  -0.44843
  Beta  occ. eigenvalues --   -0.44688  -0.21000
  Beta virt. eigenvalues --   -0.05798  -0.05198  -0.03638   0.02298   0.03359
  Beta virt. eigenvalues --    0.03852   0.05526   0.06265   0.07335   0.08130
  Beta virt. eigenvalues --    0.10131   0.15560   0.16338   0.17144   0.24709

 Mulliken charges and spin densities:
               1          2
     1  B   -0.055238  -0.000000
     2  B   -0.055239   0.000000
     3  H    0.027619  -0.000000
     4  H    0.027619   0.000000
     5  H    0.027619  -0.000000
     6  H    0.027619   0.000000
 Sum of Mulliken charges =  -0.00000   0.00000

 Dipole moment (field-independent basis, Debye):
    X=             -0.0000    Y=             -0.0000    Z=             -0.0007  Tot=              0.0007
 Quadrupole moment (field-independent basis, Debye-Ang):
   XX=            -12.0403   YY=            -16.9356   ZZ=            -14.4310
   XY=              0.0000   XZ=             -0.0000   YZ=              0.0067

 Normal termination of Gaussian 16 at Mon Apr 21 17:17:19 2025.
