 Gaussian 16, Revision A.03,
 Gaussian 16:  ES64L-G16RevA.03 25-Dec-2016

 --------------------------------------------
 #p opt UM062X/6-311+G** nosymm int=superfine
 --------------------------------------------

 -------------------
 Title Card Required
 -------------------
 Symbolic Z-matrix:
 Charge =  0 Multiplicity = 1

 SCF Done:  E(UM062X) =  -437.188753502     A.U. after   18 cycles
 SCF Done:  E(UM062X) =  -437.189467074     A.U. after   14 cycles
 SCF Done:  E(UM062X) =  -437.189726051     A.U. after   14 cycles
 SCF Done:  E(UM062X) =  -437.189722183     A.U. after   11 cycles
 SCF Done:  E(UM062X) =  -437.189726345     A.U. after   14 cycles
 Optimization completed.
    -- Stationary point found.

                          Input orientation:
 ---------------------------------------------------------------------
 Center     Atomic      Atomic             Coordinates (Angstroms)
 Number     Number       Type             X           Y           Z
 ---------------------------------------------------------------------
      1          6           0       -1.527140    0.000000    0.000000
      2         16           0        1.527140    0.000000    0.000000
      3          1           0       -2.164087   -0.895285    0.000068
      4          1           0       -2.164851    0.894742   -0.000074
 ---------------------------------------------------------------------

 Alpha  occ. eigenvalues --  -89.91397 -10.67383  -8.27373  -6.20053  -6.18655
 Alpha  occ. eigenvalues --   -6.18629  -0.80434  -0.71759  -0.53829  -0.36438
 Alpha  occ. eigenvalues --   -0.29238  -0.29198
 Alpha virt. eigenvalues --   -0.12965  -0.12645   0.00609   0.05165   0.05726
 Alpha virt. eigenvalues --    0.06595   0.08517   0.08966   0.09189   0.14195
 Alpha virt. eigenvalues --    0.16662   0.16875   0.36225   0.37274   0.37404

  Beta  occ. eigenvalues --  -89.91397 -10.67383  -8.27373  -6.20053  -6.18655
  Beta  occ. eigenvalues --   -6.18629  -0.80434  -0.71759  -0.53829  -0.36438
  Beta  occ. eigenvalues --   -0.29238  -0.29198
  Beta virt. eigenvalues --   -0.12965  -0.12645   0.00609   0.05165   0.05726
  Beta virt. eigenvalues --    0.06595   0.08517   0.08966   0.09189   0.14195
  Beta virt. eigenvalues --    0.16662   0.16875   0.36225   0.37274   0.37404

 Mulliken charges and spin densities:
               1          2
     1  C   -0.247531   0.000000
     2  S   -0.103215  -0.000000
     3  H    0.175368  -0.000000
     4  H    0.175378   0.000000
 Sum of Mulliken charges =  -0.00000  -0.00000

 Dipole moment (field-independent basis, Debye):
    X=             -4.2102    Y=             -0.0007    Z=             -0.0000  Tot=              4.2102
 Quadrupole moment (field-independent basis, Debye-Ang):
   XX=            -12.6105   YY=            -22.2119   ZZ=            -22.0833
   XY=             -0.0002   XZ=             -0.0000   YZ=              0.0000

 Normal termination of Gaussian 16 at Mon Apr 21 19:44:38 2025.
