 Gaussian 16, Revision A.03,
 Gaussian 16:  ES64L-G16RevA.03 25-Dec-2016

 --------------------------------------------
 #p opt UM062X/6-311+G** nosymm int=superfine
 --------------------------------------------

 -------------------
 Title Card Required
 -------------------
 Symbolic Z-matrix:
 Charge =  1 Multiplicity = 2

 SCF Done:  E(UM062X) =  -582.155997898     A.U. after   11 cycles
 SCF Done:  E(UM062X) =  -582.156407613     A.U. after    9 cycles
 SCF Done:  E(UM062X) =  -582.156453750     A.U. after    8 cycles
 Optimization completed.
    -- Stationary point found.

                          Input orientation:
 ---------------------------------------------------------------------
 Center     Atomic      Atomic             Coordinates (Angstroms)
 Number     Number       Type             X           Y           Z
 ---------------------------------------------------------------------
      1         14           0       -1.851292    0.000000    0.000000
      2         14           0        1.851292    0.000000    0.000000
      3          1           0        1.999024   -1.457439    0.000001
      4          1           0       -1.998714   -0.728607    1.262272
      5          1           0        1.999208    0.728751   -1.262130
      6          1           0        1.998544    0.728698    1.262240
      7          1           0       -1.999049    1.457437   -0.000108
      8          1           0       -1.999013   -0.728847   -1.262098
 ---------------------------------------------------------------------

 Alpha  occ. eigenvalues --  -67.23385 -67.23385  -5.78211  -5.78210  -4.09891
 Alpha  occ. eigenvalues --   -4.09891  -4.09085  -4.09085  -4.09085  -4.09085
 Alpha  occ. eigenvalues --   -0.82463  -0.81226  -0.62449  -0.62449  -0.62011
 Alpha  occ. eigenvalues --   -0.62011  -0.45053
 Alpha virt. eigenvalues --   -0.27638  -0.13724  -0.12025  -0.10797  -0.10796
 Alpha virt. eigenvalues --   -0.09886  -0.09541  -0.09541  -0.08091  -0.08089
 Alpha virt. eigenvalues --   -0.07840  -0.06389  -0.06385  -0.04167   0.00831

  Beta  occ. eigenvalues --  -67.23127 -67.23127  -5.78138  -5.78136  -4.09275
  Beta  occ. eigenvalues --   -4.09275  -4.08997  -4.08997  -4.08997  -4.08997
  Beta  occ. eigenvalues --   -0.80429  -0.79729  -0.62226  -0.62226  -0.61824
  Beta  occ. eigenvalues --   -0.61824
  Beta virt. eigenvalues --   -0.29842  -0.21856  -0.14400  -0.12238  -0.12237
  Beta virt. eigenvalues --   -0.11021  -0.10023  -0.09912  -0.09911  -0.07578
  Beta virt. eigenvalues --   -0.07578  -0.06746  -0.06117  -0.06117  -0.04316

 Mulliken charges and spin densities:
               1          2
     1  Si   0.498002   0.550834
     2  Si   0.498003   0.550834
     3  H    0.000670  -0.016948
     4  H    0.000660  -0.016943
     5  H    0.000673  -0.016946
     6  H    0.000655  -0.016941
     7  H    0.000670  -0.016948
     8  H    0.000667  -0.016943
 Sum of Mulliken charges =   1.00000   1.00000

 Dipole moment (field-independent basis, Debye):
    X=              0.0000    Y=             -0.0000    Z=              0.0000  Tot=              0.0000
 Quadrupole moment (field-independent basis, Debye-Ang):
   XX=             -4.2494   YY=            -26.0479   ZZ=            -26.0480
   XY=              0.0001   XZ=              0.0000   YZ=              0.0000

 Normal termination of Gaussian 16 at Mon Apr 21 20:12:00 2025.
