 Gaussian 16, Revision A.03,
 Gaussian 16:  ES64L-G16RevA.03 25-Dec-2016

 --------------------------------------------
 #p opt UM062X/6-311+G** nosymm int=superfine
 --------------------------------------------

 -------------------
 Title Card Required
 -------------------
 Symbolic Z-matrix:
 Charge =  1 Multiplicity = 2

 SCF Done:  E(UM062X) =  -579.732389639     A.U. after   28 cycles
 SCF Done:  E(UM062X) =  -579.732413955     A.U. after   14 cycles
 SCF Done:  E(UM062X) =  -579.732418544     A.U. after   15 cycles
 SCF Done:  E(UM062X) =  -579.732420263     A.U. after   13 cycles
 SCF Done:  E(UM062X) =  -579.732427544     A.U. after   15 cycles
 SCF Done:  E(UM062X) =  -579.732436063     A.U. after   15 cycles
 SCF Done:  E(UM062X) =  -579.732444178     A.U. after   15 cycles
 SCF Done:  E(UM062X) =  -579.732444771     A.U. after   15 cycles
 SCF Done:  E(UM062X) =  -579.732445063     A.U. after   14 cycles
 Optimization completed.
    -- Stationary point found.

                          Input orientation:
 ---------------------------------------------------------------------
 Center     Atomic      Atomic             Coordinates (Angstroms)
 Number     Number       Type             X           Y           Z
 ---------------------------------------------------------------------
      1         14           0       -1.127975    0.000000    0.000000
      2         14           0        1.127975    0.000000    0.000000
      3          1           0       -1.557260   -1.429899    0.000000
      4          1           0        2.201565    1.020597    0.000000
 ---------------------------------------------------------------------

 Alpha  occ. eigenvalues --  -67.28721 -67.27313  -5.83200  -5.81830  -4.14603
 Alpha  occ. eigenvalues --   -4.14391  -4.13767  -4.13137  -4.12694  -4.12359
 Alpha  occ. eigenvalues --   -0.85850  -0.75539  -0.61680  -0.52531  -0.48798
 Alpha virt. eigenvalues --   -0.32605  -0.27312  -0.19538  -0.13040  -0.11496
 Alpha virt. eigenvalues --   -0.09293  -0.08881  -0.08740  -0.07747  -0.06055
 Alpha virt. eigenvalues --   -0.05777  -0.04991  -0.00957   0.07031   0.12001

  Beta  occ. eigenvalues --  -67.28227 -67.27249  -5.83011  -5.81873  -4.14055
  Beta  occ. eigenvalues --   -4.13571  -4.13566  -4.12924  -4.12628  -4.12413
  Beta  occ. eigenvalues --   -0.83020  -0.74436  -0.61370  -0.51923
  Beta virt. eigenvalues --   -0.32906  -0.30815  -0.23283  -0.17860  -0.14935
  Beta virt. eigenvalues --   -0.11953  -0.09721  -0.08715  -0.08384  -0.08119
  Beta virt. eigenvalues --   -0.05846  -0.05088  -0.04392  -0.01821   0.06964

 Mulliken charges and spin densities:
               1          2
     1  Si   0.486328   0.210843
     2  Si   0.451527   0.852020
     3  H    0.016303  -0.050010
     4  H    0.045842  -0.012853
 Sum of Mulliken charges =   1.00000   1.00000

 Dipole moment (field-independent basis, Debye):
    X=              0.6878    Y=             -0.1710    Z=              0.0000  Tot=              0.7087
 Quadrupole moment (field-independent basis, Debye-Ang):
   XX=            -11.5153   YY=            -23.5746   ZZ=            -22.5284
   XY=              1.0292   XZ=             -0.0000   YZ=              0.0000

 Normal termination of Gaussian 16 at Mon Apr 21 20:33:06 2025.
