 Gaussian 16, Revision A.03,
 Gaussian 16:  ES64L-G16RevA.03 25-Dec-2016

 --------------------------------------------
 #p opt UM062X/6-311+G** nosymm int=superfine
 --------------------------------------------

 -------------------
 Title Card Required
 -------------------
 Symbolic Z-matrix:
 Charge =  1 Multiplicity = 2

 SCF Done:  E(UM062X) =  -79.3254517504     A.U. after   10 cycles
 SCF Done:  E(UM062X) =  -79.3259927224     A.U. after    9 cycles
 SCF Done:  E(UM062X) =  -79.3259936729     A.U. after    8 cycles
 Optimization completed.
    -- Stationary point found.

                          Input orientation:
 ---------------------------------------------------------------------
 Center     Atomic      Atomic             Coordinates (Angstroms)
 Number     Number       Type             X           Y           Z
 ---------------------------------------------------------------------
      1          6           0       -1.754807    0.000000    0.000000
      2          6           0        1.754807    0.000000    0.000000
      3          1           0        1.791022   -0.937638    0.542677
      4          1           0       -1.789578   -0.938742   -0.540859
      5          1           0        1.790411    0.938833    0.540648
      6          1           0        1.789584   -0.001162   -1.083404
      7          1           0       -1.791066    0.937736   -0.542506
      8          1           0       -1.790371    0.000938    1.083379
 ---------------------------------------------------------------------

 Alpha  occ. eigenvalues --  -10.84330 -10.84328  -1.02932  -1.02253  -0.73852
 Alpha  occ. eigenvalues --   -0.73852  -0.73568  -0.73567  -0.49701
 Alpha virt. eigenvalues --   -0.36903  -0.13300  -0.10216  -0.09899  -0.09899
 Alpha virt. eigenvalues --   -0.06245  -0.06245  -0.04609  -0.03214  -0.00983
 Alpha virt. eigenvalues --   -0.00981   0.01273   0.01275   0.03669   0.08113

  Beta  occ. eigenvalues --  -10.84122 -10.84122  -1.00235  -0.99783  -0.73346
  Beta  occ. eigenvalues --   -0.73346  -0.73047  -0.73046
  Beta virt. eigenvalues --   -0.32731  -0.26377  -0.15748  -0.11127  -0.11126
  Beta virt. eigenvalues --   -0.10134  -0.06309  -0.06309  -0.05023  -0.02290
  Beta virt. eigenvalues --   -0.01331  -0.01328   0.01558   0.01560   0.03984

 Mulliken charges and spin densities:
               1          2
     1  C   -0.263695   0.560522
     2  C   -0.263695   0.560523
     3  H    0.254582  -0.020175
     4  H    0.254540  -0.020180
     5  H    0.254563  -0.020179
     6  H    0.254550  -0.020168
     7  H    0.254583  -0.020175
     8  H    0.254572  -0.020167
 Sum of Mulliken charges =   1.00000   1.00000

 Dipole moment (field-independent basis, Debye):
    X=             -0.0000    Y=             -0.0000    Z=             -0.0001  Tot=              0.0001
 Quadrupole moment (field-independent basis, Debye-Ang):
   XX=              3.6709   YY=            -11.0855   ZZ=            -11.0857
   XY=             -0.0015   XZ=              0.0009   YZ=             -0.0000

 Normal termination of Gaussian 16 at Wed Nov 13 12:48:35 2024.
