 Gaussian 16, Revision A.03,
 Gaussian 16:  ES64L-G16RevA.03 25-Dec-2016

 --------------------------------------------
 #p opt UM062X/6-311+G** nosymm int=superfine
 --------------------------------------------

 -------------------
 Title Card Required
 -------------------
 Symbolic Z-matrix:
 Charge =  1 Multiplicity = 2

 SCF Done:  E(UM062X) =  -76.5773578519     A.U. after   11 cycles
 SCF Done:  E(UM062X) =  -76.6154616567     A.U. after   13 cycles
 SCF Done:  E(UM062X) =  -76.6717925737     A.U. after   15 cycles
 SCF Done:  E(UM062X) =  -76.6914314490     A.U. after   99 cycles
 SCF Done:  E(UM062X) =  -76.6915504454     A.U. after   16 cycles
 Optimization completed.
    -- Stationary point found.

                          Input orientation:
 ---------------------------------------------------------------------
 Center     Atomic      Atomic             Coordinates (Angstroms)
 Number     Number       Type             X           Y           Z
 ---------------------------------------------------------------------
      1          6           0       -0.888520    0.000000    0.000000
      2          6           0        0.888520    0.000000    0.000000
      3          1           0       -1.987969   -0.000004    0.000002
      4          1           0        1.987952    0.000014    0.000017
 ---------------------------------------------------------------------

 Alpha  occ. eigenvalues --  -11.00518 -11.00488  -1.08722  -0.99433  -0.82882
 Alpha  occ. eigenvalues --   -0.62357  -0.60292
 Alpha virt. eigenvalues --   -0.37366  -0.35383  -0.31045  -0.14148  -0.11566
 Alpha virt. eigenvalues --   -0.10358  -0.08920  -0.08689  -0.05346  -0.05046
 Alpha virt. eigenvalues --    0.01023   0.03506   0.06786   0.23217   0.31262

  Beta  occ. eigenvalues --  -11.00260 -11.00240  -1.05082  -0.97620  -0.81905
  Beta  occ. eigenvalues --   -0.58385
  Beta virt. eigenvalues --   -0.40034  -0.33651  -0.28977  -0.28965  -0.15136
  Beta virt. eigenvalues --   -0.11891  -0.10871  -0.09292  -0.09133  -0.05332
  Beta virt. eigenvalues --   -0.05073   0.00079   0.03599   0.07004   0.23756

 Mulliken charges and spin densities:
               1          2
     1  C    0.131657   0.522280
     2  C    0.131655   0.522279
     3  H    0.368347  -0.022280
     4  H    0.368340  -0.022279
 Sum of Mulliken charges =   1.00000   1.00000

 Dipole moment (field-independent basis, Debye):
    X=             -0.0001    Y=              0.0000    Z=              0.0000  Tot=              0.0001
 Quadrupole moment (field-independent basis, Debye-Ang):
   XX=              3.9324   YY=            -12.7130   ZZ=            -11.0772
   XY=              0.0001   XZ=              0.0000   YZ=              0.6725

 Normal termination of Gaussian 16 at Tue Nov 19 13:19:03 2024.
