 Gaussian 16, Revision A.03,
 Gaussian 16:  ES64L-G16RevA.03 25-Dec-2016

 --------------------------------------------
 #p opt UM062X/6-311+G** nosymm int=superfine
 --------------------------------------------

 -------------------
 Title Card Required
 -------------------
 Symbolic Z-matrix:
 Charge =  0 Multiplicity = 1

 SCF Done:  E(UM062X) =  -581.141191061     A.U. after    9 cycles
 SCF Done:  E(UM062X) =  -581.161102140     A.U. after    8 cycles
 SCF Done:  E(UM062X) =  -581.173435876     A.U. after    8 cycles
 SCF Done:  E(UM062X) =  -581.173455886     A.U. after    7 cycles
 Optimization completed.
    -- Stationary point found.

                          Input orientation:
 ---------------------------------------------------------------------
 Center     Atomic      Atomic             Coordinates (Angstroms)
 Number     Number       Type             X           Y           Z
 ---------------------------------------------------------------------
      1         14           0       -2.162518    0.000000    0.000000
      2         14           0        2.162518    0.000000    0.000000
      3          1           0       -3.227933   -1.083100    0.000105
      4          1           0        3.227933    1.083100   -0.000480
      5          1           0       -3.227938    1.083096    0.000333
      6          1           0        3.227938   -1.083095    0.000918
 ---------------------------------------------------------------------

 Alpha  occ. eigenvalues --  -67.01169 -67.01169  -5.55896  -5.55895  -3.87139
 Alpha  occ. eigenvalues --   -3.87138  -3.86598  -3.86598  -3.86460  -3.86460
 Alpha  occ. eigenvalues --   -0.57196  -0.57058  -0.37725  -0.37672  -0.29529
 Alpha  occ. eigenvalues --   -0.26657
 Alpha virt. eigenvalues --   -0.08293  -0.07361   0.02093   0.02308   0.03105
 Alpha virt. eigenvalues --    0.04574   0.05790   0.06116   0.06394   0.06853
 Alpha virt. eigenvalues --    0.08699   0.09255   0.11498   0.14136   0.29012

  Beta  occ. eigenvalues --  -67.01169 -67.01169  -5.55896  -5.55895  -3.87139
  Beta  occ. eigenvalues --   -3.87138  -3.86598  -3.86598  -3.86460  -3.86460
  Beta  occ. eigenvalues --   -0.57196  -0.57058  -0.37725  -0.37672  -0.29529
  Beta  occ. eigenvalues --   -0.26657
  Beta virt. eigenvalues --   -0.08293  -0.07361   0.02093   0.02308   0.03105
  Beta virt. eigenvalues --    0.04574   0.05790   0.06116   0.06394   0.06853
  Beta virt. eigenvalues --    0.08699   0.09255   0.11498   0.14136   0.29012

 Mulliken charges and spin densities:
               1          2
     1  Si   0.320916   0.000000
     2  Si   0.320916  -0.000000
     3  H   -0.160458  -0.000000
     4  H   -0.160458   0.000000
     5  H   -0.160458  -0.000000
     6  H   -0.160458   0.000000
 Sum of Mulliken charges =  -0.00000  -0.00000

 Dipole moment (field-independent basis, Debye):
    X=              0.0000    Y=              0.0000    Z=              0.0001  Tot=              0.0001
 Quadrupole moment (field-independent basis, Debye-Ang):
   XX=            -36.1405   YY=            -32.7766   ZZ=            -24.4009
   XY=             -0.0000   XZ=              0.0000   YZ=              0.0023

 Normal termination of Gaussian 16 at Mon Apr 21 20:34:13 2025.
