 Gaussian 16, Revision A.03,
 Gaussian 16:  ES64L-G16RevA.03 25-Dec-2016

 ---------------------------------------------------
 #p UM062X/6-311+G** force int=superfine pop=saveNBO
 ---------------------------------------------------

 -------------------
 Title Card Required
 -------------------
 Symbolic Z-matrix:
 Charge =  0 Multiplicity = 1

                         Standard orientation:
 ---------------------------------------------------------------------
 Center     Atomic      Atomic             Coordinates (Angstroms)
 Number     Number       Type             X           Y           Z
 ---------------------------------------------------------------------
      1          6           0        0.000000    0.000000   -0.841237
      2          8           0        0.000000    0.000000    0.630927
 ---------------------------------------------------------------------

 SCF Done:  E(UM062X) =  -113.165723396     A.U. after   11 cycles

 The electronic state is 1-SG.
 Alpha  occ. eigenvalues --  -19.73634 -10.76921  -1.13092  -0.67673  -0.46286
 Alpha  occ. eigenvalues --   -0.45713  -0.45713
 Alpha virt. eigenvalues --   -0.08806  -0.08806   0.03665   0.04889   0.06835
 Alpha virt. eigenvalues --    0.06835   0.18549   0.20497   0.22486   0.22486
 Alpha virt. eigenvalues --    0.31449   0.54477   0.54477   0.55391   0.75887

  Beta  occ. eigenvalues --  -19.73634 -10.76921  -1.13092  -0.67673  -0.46286
  Beta  occ. eigenvalues --   -0.45713  -0.45713
  Beta virt. eigenvalues --   -0.08806  -0.08806   0.03665   0.04889   0.06835
  Beta virt. eigenvalues --    0.06835   0.18549   0.20497   0.22486   0.22486
  Beta virt. eigenvalues --    0.31449   0.54477   0.54477   0.55391   0.75887

 Mulliken charges and spin densities:
               1          2
     1  C    0.213743  -0.000000
     2  O   -0.213743   0.000000
 Sum of Mulliken charges =  -0.00000   0.00000

 Dipole moment (field-independent basis, Debye):
    X=              0.0000    Y=              0.0000    Z=             -1.4924  Tot=              1.4924
 Quadrupole moment (field-independent basis, Debye-Ang):
   XX=            -10.9779   YY=            -10.9779   ZZ=            -12.0873
   XY=              0.0000   XZ=              0.0000   YZ=              0.0000

 Summary of Natural Population Analysis:

                                       Natural Population
                Natural  -----------------------------------------------
    Atom  No    Charge         Core      Valence    Rydberg      Total
 -----------------------------------------------------------------------
      C    1    0.31133      0.99997     1.67400    0.01470     2.68867
      O    2   -0.31133      0.99997     3.30658    0.00478     4.31133
 =======================================================================
   * Total *   -0.00000      1.99994     4.98058    0.01949     7.00000

 Normal termination of Gaussian 16 at Mon Apr 21 19:30:29 2025.
