 Gaussian 16, Revision A.03,
 Gaussian 16:  ES64L-G16RevA.03 25-Dec-2016

 --------------------------------------------
 #p opt UM062X/6-311+G** nosymm int=superfine
 --------------------------------------------

 -------------------
 Title Card Required
 -------------------
 Symbolic Z-matrix:
 Charge =  1 Multiplicity = 2

 SCF Done:  E(UM062X) =  -79.3479012013     A.U. after   10 cycles
 SCF Done:  E(UM062X) =  -79.3479188525     A.U. after    8 cycles
 Optimization completed.
    -- Stationary point found.

                          Input orientation:
 ---------------------------------------------------------------------
 Center     Atomic      Atomic             Coordinates (Angstroms)
 Number     Number       Type             X           Y           Z
 ---------------------------------------------------------------------
      1          6           0       -1.383872    0.000000    0.000000
      2          6           0        1.383872    0.000000    0.000000
      3          1           0        1.447520   -0.936573    0.542054
      4          1           0       -1.446412   -0.937688   -0.540251
      5          1           0        1.447063    0.937774    0.540028
      6          1           0        1.446541   -0.001147   -1.082175
      7          1           0       -1.447553    0.936654   -0.541912
      8          1           0       -1.447157    0.000922    1.082140
 ---------------------------------------------------------------------

 Alpha  occ. eigenvalues --  -10.85392 -10.85388  -1.05115  -1.02635  -0.75469
 Alpha  occ. eigenvalues --   -0.75469  -0.74203  -0.74203  -0.54745
 Alpha virt. eigenvalues --   -0.33826  -0.14654  -0.10443  -0.10443  -0.10071
 Alpha virt. eigenvalues --   -0.06206  -0.06206  -0.05829  -0.03087  -0.03035
 Alpha virt. eigenvalues --   -0.03032   0.01477   0.01479   0.05404   0.07482

  Beta  occ. eigenvalues --  -10.85197 -10.85196  -1.02030  -1.00246  -0.74838
  Beta  occ. eigenvalues --   -0.74837  -0.73685  -0.73684
  Beta virt. eigenvalues --   -0.33196  -0.24450  -0.15487  -0.11119  -0.11118
  Beta virt. eigenvalues --   -0.09755  -0.06516  -0.06516  -0.05835  -0.03096
  Beta virt. eigenvalues --   -0.03093  -0.02297   0.01832   0.01834   0.06069

 Mulliken charges and spin densities:
               1          2
     1  C   -0.277533   0.572885
     2  C   -0.277534   0.572885
     3  H    0.259205  -0.024290
     4  H    0.259158  -0.024283
     5  H    0.259184  -0.024288
     6  H    0.259144  -0.024306
     7  H    0.259206  -0.024291
     8  H    0.259169  -0.024311
 Sum of Mulliken charges =   1.00000   1.00000

 Dipole moment (field-independent basis, Debye):
    X=              0.0000    Y=             -0.0000    Z=             -0.0001  Tot=              0.0001
 Quadrupole moment (field-independent basis, Debye-Ang):
   XX=             -2.0227   YY=            -10.9857   ZZ=            -10.9859
   XY=             -0.0012   XZ=              0.0006   YZ=             -0.0001

 Normal termination of Gaussian 16 at Wed Nov 13 12:44:46 2024.
