 Gaussian 16, Revision A.03,
 Gaussian 16:  ES64L-G16RevA.03 25-Dec-2016

 --------------------------------------------
 #p opt UM062X/6-311+G** nosymm int=superfine
 --------------------------------------------

 -------------------
 Title Card Required
 -------------------
 Symbolic Z-matrix:
 Charge =  0 Multiplicity = 1

 SCF Done:  E(UM062X) =  -579.883722707     A.U. after   10 cycles
 SCF Done:  E(UM062X) =  -579.886551717     A.U. after   10 cycles
 SCF Done:  E(UM062X) =  -579.886556861     A.U. after    7 cycles
 Optimization completed.
    -- Stationary point found.

                          Input orientation:
 ---------------------------------------------------------------------
 Center     Atomic      Atomic             Coordinates (Angstroms)
 Number     Number       Type             X           Y           Z
 ---------------------------------------------------------------------
      1         14           0       -2.078705    0.000000    0.000000
      2         14           0        2.078705    0.000000    0.000000
      3          1           0       -3.604183   -0.000027   -0.000000
      4          1           0        3.604183    0.000041   -0.000000
 ---------------------------------------------------------------------

 Alpha  occ. eigenvalues --  -67.04542 -67.04542  -5.58964  -5.58962  -3.90072
 Alpha  occ. eigenvalues --   -3.90071  -3.89621  -3.89621  -3.89480  -3.89480
 Alpha  occ. eigenvalues --   -0.55017  -0.54656  -0.33881  -0.31284  -0.18033
 Alpha virt. eigenvalues --   -0.10575  -0.09297  -0.08167   0.02281   0.02926
 Alpha virt. eigenvalues --    0.04537   0.05712   0.05951   0.05983   0.06705
 Alpha virt. eigenvalues --    0.07070   0.08720   0.16936   0.29376   0.29524

  Beta  occ. eigenvalues --  -67.04542 -67.04542  -5.58964  -5.58962  -3.90072
  Beta  occ. eigenvalues --   -3.90071  -3.89621  -3.89621  -3.89480  -3.89480
  Beta  occ. eigenvalues --   -0.55017  -0.54656  -0.33881  -0.31284  -0.18033
  Beta virt. eigenvalues --   -0.10575  -0.09297  -0.08167   0.02281   0.02926
  Beta virt. eigenvalues --    0.04537   0.05712   0.05951   0.05983   0.06705
  Beta virt. eigenvalues --    0.07070   0.08720   0.16936   0.29376   0.29524

 Mulliken charges and spin densities:
               1          2
     1  Si   0.147908  -0.000001
     2  Si   0.147908   0.000001
     3  H   -0.147908   0.000000
     4  H   -0.147908  -0.000000
 Sum of Mulliken charges =  -0.00000   0.00000

 Dipole moment (field-independent basis, Debye):
    X=             -0.0000    Y=              0.0000    Z=             -0.0000  Tot=              0.0000
 Quadrupole moment (field-independent basis, Debye-Ang):
   XX=            -30.5550   YY=            -24.2751   ZZ=            -35.6768
   XY=             -0.0002   XZ=              0.0000   YZ=             -0.0065

 Normal termination of Gaussian 16 at Mon Apr 21 21:25:42 2025.
