 Gaussian 16, Revision A.03,
 Gaussian 16:  ES64L-G16RevA.03 25-Dec-2016

 ---------------------------------------
 #p UM062X/6-311+G** force int=superfine
 ---------------------------------------

 -------------------
 Title Card Required
 -------------------
 Symbolic Z-matrix:
 Charge =  1 Multiplicity = 2

                         Standard orientation:
 ---------------------------------------------------------------------
 Center     Atomic      Atomic             Coordinates (Angstroms)
 Number     Number       Type             X           Y           Z
 ---------------------------------------------------------------------
      1          6           0        0.050639    0.286814   -1.672571
      2          6           0       -0.050646   -0.286808    1.672572
      3          1           0       -0.746983   -1.108522    1.550132
      4          1           0        0.423344   -0.711654   -1.870664
      5          1           0       -0.423150    0.711576    1.871470
      6          1           0        1.014847   -0.482886    1.709410
      7          1           0        0.746829    1.108656   -1.550157
      8          1           0       -1.014846    0.482797   -1.710195
 ---------------------------------------------------------------------

 SCF Done:  E(UM062X) =  -79.3287072682     A.U. after   10 cycles

 The electronic state is 2-A.
 Alpha  occ. eigenvalues --  -10.84520 -10.84518  -1.03180  -1.02357  -0.74050
 Alpha  occ. eigenvalues --   -0.74050  -0.73691  -0.73691  -0.50354
 Alpha virt. eigenvalues --   -0.36623  -0.13470  -0.10212  -0.10010  -0.10010
 Alpha virt. eigenvalues --   -0.06246  -0.06246  -0.04748  -0.03253  -0.01251
 Alpha virt. eigenvalues --   -0.01248   0.01273   0.01275   0.04002   0.07975

  Beta  occ. eigenvalues --  -10.84315 -10.84314  -1.00452  -0.99906  -0.73542
  Beta  occ. eigenvalues --   -0.73541  -0.73175  -0.73175
  Beta virt. eigenvalues --   -0.32666  -0.26243  -0.15607  -0.11140  -0.11139
  Beta virt. eigenvalues --   -0.10097  -0.06337  -0.06337  -0.05101  -0.02338
  Beta virt. eigenvalues --   -0.01599  -0.01596   0.01562   0.01564   0.04595

 Mulliken charges and spin densities:
               1          2
     1  C   -0.266401   0.562032
     2  C   -0.266400   0.562033
     3  H    0.255489  -0.020672
     4  H    0.255443  -0.020682
     5  H    0.255466  -0.020681
     6  H    0.255445  -0.020680
     7  H    0.255490  -0.020672
     8  H    0.255468  -0.020678
 Sum of Mulliken charges =   1.00000   1.00000

 Dipole moment (field-independent basis, Debye):
    X=              0.0001    Y=             -0.0000    Z=             -0.0000  Tot=              0.0001
 Quadrupole moment (field-independent basis, Debye-Ang):
   XX=            -11.0619   YY=            -10.6793   ZZ=              2.3385
   XY=              0.0699   XZ=             -0.4071   YZ=             -2.3013

 Normal termination of Gaussian 16 at Wed Nov 13 13:03:30 2024.
