 Gaussian 16, Revision A.03,
 Gaussian 16:  ES64L-G16RevA.03 25-Dec-2016

 ---------------------------------------------------
 #p UM062X/6-311+G** force int=superfine pop=saveNBO
 ---------------------------------------------------

 -------------------
 Title Card Required
 -------------------
 Symbolic Z-matrix:
 Charge =  0 Multiplicity = 1

                         Standard orientation:
 ---------------------------------------------------------------------
 Center     Atomic      Atomic             Coordinates (Angstroms)
 Number     Number       Type             X           Y           Z
 ---------------------------------------------------------------------
      1         15           0        0.000000    0.000000    1.588495
      2         15           0        0.000000    0.000000   -1.588495
 ---------------------------------------------------------------------

 SCF Done:  E(UM062X) =  -682.389876629     A.U. after    9 cycles

 The electronic state is 1-SGG.
 Alpha  occ. eigenvalues --  -78.12039 -78.12039  -6.93576  -6.93575  -5.04884
 Alpha  occ. eigenvalues --   -5.04884  -5.04884  -5.04884  -5.04848  -5.04847
 Alpha  occ. eigenvalues --   -0.65620  -0.61929  -0.29983  -0.26644  -0.26644
 Alpha virt. eigenvalues --   -0.15788  -0.15788  -0.11229   0.02426   0.03330
 Alpha virt. eigenvalues --    0.04599   0.04599   0.06179   0.06526   0.06526
 Alpha virt. eigenvalues --    0.11332   0.28799   0.29820   0.29820   0.33205

  Beta  occ. eigenvalues --  -78.12039 -78.12039  -6.93576  -6.93575  -5.04884
  Beta  occ. eigenvalues --   -5.04884  -5.04884  -5.04884  -5.04848  -5.04847
  Beta  occ. eigenvalues --   -0.65620  -0.61929  -0.29983  -0.26644  -0.26644
  Beta virt. eigenvalues --   -0.15788  -0.15788  -0.11229   0.02426   0.03330
  Beta virt. eigenvalues --    0.04599   0.04599   0.06179   0.06526   0.06526
  Beta virt. eigenvalues --    0.11332   0.28799   0.29820   0.29820   0.33205

 Mulliken charges and spin densities:
               1          2
     1  P   -0.000000   0.000000
     2  P   -0.000000   0.000000
 Sum of Mulliken charges =  -0.00000   0.00000

 Dipole moment (field-independent basis, Debye):
    X=             -0.0000    Y=              0.0000    Z=             -0.0000  Tot=              0.0000
 Quadrupole moment (field-independent basis, Debye-Ang):
   XX=            -29.2905   YY=            -29.2905   ZZ=            -24.6126
   XY=              0.0000   XZ=             -0.0000   YZ=              0.0000

 Summary of Natural Population Analysis:

                                       Natural Population
                Natural  -----------------------------------------------
    Atom  No    Charge         Core      Valence    Rydberg      Total
 -----------------------------------------------------------------------
      P    1    0.00000      4.99999     2.49916    0.00085     7.50000
      P    2   -0.00000      4.99999     2.49916    0.00085     7.50000
 =======================================================================
   * Total *   -0.00000      9.99998     4.99832    0.00171    15.00000

 Normal termination of Gaussian 16 at Mon Apr 21 21:21:50 2025.
