 Gaussian 16, Revision A.03,
 Gaussian 16:  ES64L-G16RevA.03 25-Dec-2016

 --------------------------------------------
 #p opt UM062X/6-311+G** nosymm int=superfine
 --------------------------------------------

 -------------------
 Title Card Required
 -------------------
 Symbolic Z-matrix:
 Charge =  0 Multiplicity = 1

 SCF Done:  E(UM062X) =  -80.4215762769     A.U. after   22 cycles
 SCF Done:  E(UM062X) =  -80.4218937544     A.U. after   15 cycles
 SCF Done:  E(UM062X) =  -80.4219677745     A.U. after   16 cycles
 SCF Done:  E(UM062X) =  -80.4220349979     A.U. after   17 cycles
 SCF Done:  E(UM062X) =  -80.4220429631     A.U. after   16 cycles
 SCF Done:  E(UM062X) =  -80.4220735152     A.U. after   16 cycles
 SCF Done:  E(UM062X) =  -80.4221191486     A.U. after   15 cycles
 SCF Done:  E(UM062X) =  -80.4221497952     A.U. after   16 cycles
 SCF Done:  E(UM062X) =  -80.4221836651     A.U. after   14 cycles
 SCF Done:  E(UM062X) =  -80.4222028138     A.U. after   16 cycles
 SCF Done:  E(UM062X) =  -80.4222077817     A.U. after   14 cycles
 SCF Done:  E(UM062X) =  -80.4222082566     A.U. after   15 cycles
 SCF Done:  E(UM062X) =  -80.4222083236     A.U. after   13 cycles
 SCF Done:  E(UM062X) =  -80.4222083516     A.U. after   14 cycles
 SCF Done:  E(UM062X) =  -80.4222083576     A.U. after   13 cycles
 Optimization completed.
    -- Stationary point found.

                          Input orientation:
 ---------------------------------------------------------------------
 Center     Atomic      Atomic             Coordinates (Angstroms)
 Number     Number       Type             X           Y           Z
 ---------------------------------------------------------------------
      1          5           0       -1.792124   -0.000180   -0.000008
      2          7           0        1.792009    0.000079    0.000035
      3          1           0       -2.971389   -0.268681   -0.183068
      4          1           0        1.408879    0.798617    0.538503
 ---------------------------------------------------------------------

 Alpha  occ. eigenvalues --  -14.81123  -7.15224  -0.87537  -0.57001  -0.44396
 Alpha  occ. eigenvalues --   -0.31864  -0.30318
 Alpha virt. eigenvalues --   -0.10788  -0.06165  -0.06116   0.01515   0.04334
 Alpha virt. eigenvalues --    0.05633   0.05637   0.11054   0.14548   0.15819
 Alpha virt. eigenvalues --    0.16257   0.20701   0.23093   0.35422   0.40392

  Beta  occ. eigenvalues --  -14.81123  -7.15224  -0.87537  -0.57001  -0.44396
  Beta  occ. eigenvalues --   -0.31864  -0.30318
  Beta virt. eigenvalues --   -0.10788  -0.06165  -0.06116   0.01515   0.04334
  Beta virt. eigenvalues --    0.05633   0.05637   0.11054   0.14548   0.15819
  Beta virt. eigenvalues --    0.16257   0.20701   0.23093   0.35422   0.40392

 Mulliken charges and spin densities:
               1          2
     1  B    0.010416  -0.000000
     2  N   -0.225174   0.000000
     3  H    0.012068  -0.000000
     4  H    0.202690  -0.000000
 Sum of Mulliken charges =  -0.00000   0.00000

 Dipole moment (field-independent basis, Debye):
    X=             -3.0377    Y=              0.9337    Z=              0.6270  Tot=              3.2392
 Quadrupole moment (field-independent basis, Debye-Ang):
   XX=            -10.6385   YY=            -13.3219   ZZ=            -14.3096
   XY=              2.6819   XZ=              1.8068   YZ=              1.2167

 Normal termination of Gaussian 16 at Mon Apr 21 21:09:05 2025.
