 Gaussian 16, Revision A.03,
 Gaussian 16:  ES64L-G16RevA.03 25-Dec-2016

 --------------------------------------------
 #p opt UM062X/6-311+G** nosymm int=superfine
 --------------------------------------------

 -------------------
 Title Card Required
 -------------------
 Symbolic Z-matrix:
 Charge =  0 Multiplicity = 1

 SCF Done:  E(UM062X) =  -151.420681053     A.U. after   14 cycles
 SCF Done:  E(UM062X) =  -151.426281527     A.U. after   18 cycles
 SCF Done:  E(UM062X) =  -151.428365730     A.U. after   16 cycles
 SCF Done:  E(UM062X) =  -151.428436083     A.U. after   13 cycles
 SCF Done:  E(UM062X) =  -151.428448658     A.U. after   13 cycles
 SCF Done:  E(UM062X) =  -151.428455578     A.U. after   13 cycles
 SCF Done:  E(UM062X) =  -151.428458300     A.U. after   14 cycles
 SCF Done:  E(UM062X) =  -151.428458303     A.U. after   10 cycles
 Optimization completed.
    -- Stationary point found.

                          Input orientation:
 ---------------------------------------------------------------------
 Center     Atomic      Atomic             Coordinates (Angstroms)
 Number     Number       Type             X           Y           Z
 ---------------------------------------------------------------------
      1          8           0       -1.086938    0.000000    0.000000
      2          8           0        1.086938    0.000000    0.000000
      3          1           0       -1.013876   -0.779022   -0.576800
      4          1           0        1.013923    0.779627    0.575988
 ---------------------------------------------------------------------

 Alpha  occ. eigenvalues --  -19.72406 -19.72401  -1.14736  -1.10409  -0.57762
 Alpha  occ. eigenvalues --   -0.55128  -0.45183  -0.43596  -0.42074
 Alpha virt. eigenvalues --   -0.17845   0.05600   0.09696   0.14751   0.16137
 Alpha virt. eigenvalues --    0.17495   0.19682   0.21652   0.23363   0.25456
 Alpha virt. eigenvalues --    0.34089   0.49204   0.53762   0.96125   0.99738

  Beta  occ. eigenvalues --  -19.72406 -19.72401  -1.14736  -1.10409  -0.57762
  Beta  occ. eigenvalues --   -0.55128  -0.45183  -0.43596  -0.42074
  Beta virt. eigenvalues --   -0.17845   0.05600   0.09696   0.14751   0.16137
  Beta virt. eigenvalues --    0.17495   0.19682   0.21652   0.23363   0.25456
  Beta virt. eigenvalues --    0.34089   0.49204   0.53762   0.96125   0.99738

 Mulliken charges and spin densities:
               1          2
     1  O   -0.272291   0.000000
     2  O   -0.272299  -0.000000
     3  H    0.272296  -0.000000
     4  H    0.272295   0.000000
 Sum of Mulliken charges =  -0.00000   0.00000

 Dipole moment (field-independent basis, Debye):
    X=              0.0001    Y=              0.0012    Z=             -0.0016  Tot=              0.0019
 Quadrupole moment (field-independent basis, Debye-Ang):
   XX=            -11.8232   YY=            -10.2438   ZZ=            -11.7680
   XY=              3.2997   XZ=              2.4405   YZ=              2.4887

 Normal termination of Gaussian 16 at Mon Apr 21 21:36:01 2025.
