 Gaussian 16, Revision A.03,
 Gaussian 16:  ES64L-G16RevA.03 25-Dec-2016

 --------------------------------------------
 #p opt UM062X/6-311+G** nosymm int=superfine
 --------------------------------------------

 -------------------
 Title Card Required
 -------------------
 Symbolic Z-matrix:
 Charge =  0 Multiplicity = 1

 SCF Done:  E(UM062X) =  -582.524519955     A.U. after    9 cycles
 SCF Done:  E(UM062X) =  -582.524537498     A.U. after    6 cycles
 SCF Done:  E(UM062X) =  -582.524538961     A.U. after    6 cycles
 Optimization completed.
    -- Stationary point found.

                          Input orientation:
 ---------------------------------------------------------------------
 Center     Atomic      Atomic             Coordinates (Angstroms)
 Number     Number       Type             X           Y           Z
 ---------------------------------------------------------------------
      1         14           0       -1.219819    0.000000    0.000000
      2         14           0        1.219819    0.000000    0.000000
      3          1           0        1.724458   -1.392223   -0.000007
      4          1           0       -1.724471   -0.695996    1.205765
      5          1           0        1.724553    0.696087   -1.205676
      6          1           0        1.724473    0.696046    1.205735
      7          1           0       -1.724460    1.392223   -0.000068
      8          1           0       -1.724554   -0.696139   -1.205646
 ---------------------------------------------------------------------

 Alpha  occ. eigenvalues --  -66.99180 -66.99180  -5.54331  -5.54326  -3.85476
 Alpha  occ. eigenvalues --   -3.85439  -3.85435  -3.85435  -3.85431  -3.85431
 Alpha  occ. eigenvalues --   -0.63768  -0.58011  -0.42005  -0.42004  -0.39761
 Alpha  occ. eigenvalues --   -0.39761  -0.33547
 Alpha virt. eigenvalues --    0.01072   0.01866   0.03237   0.03237   0.04334
 Alpha virt. eigenvalues --    0.05382   0.05383   0.05711   0.05711   0.07306
 Alpha virt. eigenvalues --    0.08923   0.08924   0.10036   0.15848   0.18131

  Beta  occ. eigenvalues --  -66.99180 -66.99180  -5.54331  -5.54326  -3.85476
  Beta  occ. eigenvalues --   -3.85439  -3.85435  -3.85435  -3.85431  -3.85431
  Beta  occ. eigenvalues --   -0.63768  -0.58011  -0.42005  -0.42004  -0.39761
  Beta  occ. eigenvalues --   -0.39761  -0.33547
  Beta virt. eigenvalues --    0.01072   0.01866   0.03237   0.03237   0.04334
  Beta virt. eigenvalues --    0.05382   0.05383   0.05711   0.05711   0.07306
  Beta virt. eigenvalues --    0.08923   0.08924   0.10036   0.15848   0.18131

 Mulliken charges and spin densities:
               1          2
     1  Si   0.300356   0.000000
     2  Si   0.300356  -0.000000
     3  H   -0.100120   0.000000
     4  H   -0.100119  -0.000000
     5  H   -0.100118   0.000000
     6  H   -0.100118   0.000000
     7  H   -0.100120  -0.000000
     8  H   -0.100118  -0.000000
 Sum of Mulliken charges =  -0.00000   0.00000

 Dipole moment (field-independent basis, Debye):
    X=              0.0000    Y=              0.0000    Z=             -0.0001  Tot=              0.0001
 Quadrupole moment (field-independent basis, Debye-Ang):
   XX=            -32.1723   YY=            -31.3554   ZZ=            -31.3553
   XY=              0.0003   XZ=             -0.0000   YZ=             -0.0000

 Normal termination of Gaussian 16 at Mon Apr 21 20:18:26 2025.
