 Gaussian 16, Revision A.03,
 Gaussian 16:  ES64L-G16RevA.03 25-Dec-2016

 --------------------------------------------
 #p opt UM062X/6-311+G** nosymm int=superfine
 --------------------------------------------

 -------------------
 Title Card Required
 -------------------
 Symbolic Z-matrix:
 Charge =  0 Multiplicity = 1

 SCF Done:  E(UM062X) =  -797.376994626     A.U. after   15 cycles
 SCF Done:  E(UM062X) =  -797.377049013     A.U. after   13 cycles
 SCF Done:  E(UM062X) =  -797.377174175     A.U. after   15 cycles
 SCF Done:  E(UM062X) =  -797.377305690     A.U. after   15 cycles
 SCF Done:  E(UM062X) =  -797.377447207     A.U. after   21 cycles
 SCF Done:  E(UM062X) =  -797.377561900     A.U. after   21 cycles
 SCF Done:  E(UM062X) =  -797.377561262     A.U. after   14 cycles
 SCF Done:  E(UM062X) =  -797.377568265     A.U. after   13 cycles
 SCF Done:  E(UM062X) =  -797.377568496     A.U. after   12 cycles
 SCF Done:  E(UM062X) =  -797.377568906     A.U. after   13 cycles
 SCF Done:  E(UM062X) =  -797.377568992     A.U. after   13 cycles
 Optimization completed.
    -- Stationary point found.

                          Input orientation:
 ---------------------------------------------------------------------
 Center     Atomic      Atomic             Coordinates (Angstroms)
 Number     Number       Type             X           Y           Z
 ---------------------------------------------------------------------
      1         16           0       -2.468191    0.000000    0.000000
      2         16           0        2.468191    0.000000    0.000000
      3          1           0       -2.312387   -1.309370   -0.271217
      4          1           0        2.310345    0.310342    1.300455
 ---------------------------------------------------------------------

 Alpha  occ. eigenvalues --  -89.94266 -89.94265  -8.30536  -8.30535  -6.22676
 Alpha  occ. eigenvalues --   -6.22675  -6.22436  -6.22435  -6.21866  -6.21866
 Alpha  occ. eigenvalues --   -0.81319  -0.81155  -0.47320  -0.47317  -0.33346
 Alpha  occ. eigenvalues --   -0.33301  -0.29698
 Alpha virt. eigenvalues --   -0.22825   0.01771   0.02975   0.04433   0.04733
 Alpha virt. eigenvalues --    0.06449   0.06631   0.07058   0.07347   0.08212
 Alpha virt. eigenvalues --    0.12689   0.31867   0.31960   0.32412   0.35242

  Beta  occ. eigenvalues --  -89.94266 -89.94265  -8.30536  -8.30535  -6.22676
  Beta  occ. eigenvalues --   -6.22675  -6.22436  -6.22435  -6.21866  -6.21866
  Beta  occ. eigenvalues --   -0.81319  -0.81155  -0.47320  -0.47317  -0.33346
  Beta  occ. eigenvalues --   -0.33301  -0.29698
  Beta virt. eigenvalues --   -0.22825   0.01771   0.02975   0.04433   0.04733
  Beta virt. eigenvalues --    0.06449   0.06631   0.07058   0.07347   0.08212
  Beta virt. eigenvalues --    0.12689   0.31867   0.31960   0.32412   0.35242

 Mulliken charges and spin densities:
               1          2
     1  S   -0.080107   0.000000
     2  S   -0.080017   0.000000
     3  H    0.080052   0.000000
     4  H    0.080071   0.000000
 Sum of Mulliken charges =  -0.00000   0.00000

 Dipole moment (field-independent basis, Debye):
    X=             -0.0008    Y=             -0.8274    Z=              0.8526  Tot=              1.1881
 Quadrupole moment (field-independent basis, Debye-Ang):
   XX=            -26.2401   YY=            -28.0519   ZZ=            -28.1541
   XY=              3.1552   XZ=              3.0572   YZ=              1.6962

 Normal termination of Gaussian 16 at Mon Apr 21 21:21:57 2025.
