 Gaussian 16, Revision A.03,
 Gaussian 16:  ES64L-G16RevA.03 25-Dec-2016

 --------------------------------------------
 #p opt UM062X/6-311+G** nosymm int=superfine
 --------------------------------------------

 -------------------
 Title Card Required
 -------------------
 Symbolic Z-matrix:
 Charge =  0 Multiplicity = 1

 SCF Done:  E(UM062X) =  -94.5720973403     A.U. after   11 cycles
 SCF Done:  E(UM062X) =  -94.5739171030     A.U. after   10 cycles
 SCF Done:  E(UM062X) =  -94.5740216036     A.U. after    9 cycles
 SCF Done:  E(UM062X) =  -94.5737250730     A.U. after   10 cycles
 SCF Done:  E(UM062X) =  -94.5740293687     A.U. after    9 cycles
 SCF Done:  E(UM062X) =  -94.5740169141     A.U. after    9 cycles
 SCF Done:  E(UM062X) =  -94.5740306744     A.U. after    9 cycles
 SCF Done:  E(UM062X) =  -94.5740311249     A.U. after    8 cycles
 Optimization completed.
    -- Stationary point found.

                          Input orientation:
 ---------------------------------------------------------------------
 Center     Atomic      Atomic             Coordinates (Angstroms)
 Number     Number       Type             X           Y           Z
 ---------------------------------------------------------------------
      1          6           0       -0.731637    0.000000    0.000000
      2          7           0        0.731637    0.000000    0.000000
      3          1           0       -1.307829   -0.919711   -0.000338
      4          1           0        0.985660   -0.993110   -0.000366
      5          1           0       -1.210273    0.970528    0.000357
 ---------------------------------------------------------------------

 Alpha  occ. eigenvalues --  -14.77715 -10.61739  -0.96085  -0.72991  -0.55900
 Alpha  occ. eigenvalues --   -0.48714  -0.36715  -0.36193
 Alpha virt. eigenvalues --   -0.02870   0.01847   0.03552   0.04962   0.07479
 Alpha virt. eigenvalues --    0.12790   0.15977   0.16281   0.18008   0.21211
 Alpha virt. eigenvalues --    0.24059   0.25651   0.28821   0.45699   0.47488

  Beta  occ. eigenvalues --  -14.77715 -10.61739  -0.96085  -0.72991  -0.55900
  Beta  occ. eigenvalues --   -0.48714  -0.36715  -0.36193
  Beta virt. eigenvalues --   -0.02870   0.01847   0.03552   0.04962   0.07479
  Beta virt. eigenvalues --    0.12790   0.15977   0.16281   0.18008   0.21211
  Beta virt. eigenvalues --    0.24059   0.25651   0.28821   0.45699   0.47488

 Mulliken charges and spin densities:
               1          2
     1  C   -0.253571   0.000000
     2  N   -0.276818  -0.000000
     3  H    0.158669  -0.000000
     4  H    0.195962   0.000000
     5  H    0.175758  -0.000000
 Sum of Mulliken charges =  -0.00000   0.00000

 Dipole moment (field-independent basis, Debye):
    X=             -2.0202    Y=             -1.4994    Z=             -0.0006  Tot=              2.5159
 Quadrupole moment (field-independent basis, Debye-Ang):
   XX=            -12.7501   YY=            -11.4262   ZZ=            -14.4871
   XY=             -1.9464   XZ=             -0.0007   YZ=              0.0011

 Normal termination of Gaussian 16 at Mon Apr 21 18:20:07 2025.
