 Gaussian 16, Revision A.03,
 Gaussian 16:  ES64L-G16RevA.03 25-Dec-2016

 ---------------------------------------
 #p UM062X/6-311+G** force int=superfine
 ---------------------------------------

 -------------------
 Title Card Required
 -------------------
 Symbolic Z-matrix:
 Charge =  1 Multiplicity = 2

                         Standard orientation:
 ---------------------------------------------------------------------
 Center     Atomic      Atomic             Coordinates (Angstroms)
 Number     Number       Type             X           Y           Z
 ---------------------------------------------------------------------
      1          6           0        0.000000    0.883615    0.000000
      2          6           0       -0.000000   -0.883615    0.000000
      3          1           0        0.964078    1.380936    0.000000
      4          1           0       -0.964038    1.380960    0.000000
      5          1           0       -0.964078   -1.380936    0.000000
      6          1           0        0.964038   -1.380960    0.000000
 ---------------------------------------------------------------------

 SCF Done:  E(UM062X) =  -78.1258201103     A.U. after    9 cycles

 The electronic state is 2-AU.
 Alpha  occ. eigenvalues --  -10.91547 -10.91522  -1.10193  -0.99253  -0.81809
 Alpha  occ. eigenvalues --   -0.76119  -0.72264  -0.59712
 Alpha virt. eigenvalues --   -0.34288  -0.16765  -0.14401  -0.11337  -0.08822
 Alpha virt. eigenvalues --   -0.08318  -0.07405  -0.07292  -0.04692  -0.04472
 Alpha virt. eigenvalues --   -0.01739  -0.01426   0.02648   0.09731   0.18571

  Beta  occ. eigenvalues --  -10.91319 -10.91302  -1.06832  -0.97143  -0.81086
  Beta  occ. eigenvalues --   -0.75767  -0.71016
  Beta virt. eigenvalues --   -0.37639  -0.26153  -0.15963  -0.15055  -0.11704
  Beta virt. eigenvalues --   -0.08712  -0.08040  -0.07396  -0.07296  -0.04505
  Beta virt. eigenvalues --   -0.04020  -0.01329  -0.00812   0.02040   0.10294

 Mulliken charges and spin densities:
               1          2
     1  C   -0.063192   0.539981
     2  C   -0.063192   0.539981
     3  H    0.281597  -0.019991
     4  H    0.281596  -0.019990
     5  H    0.281597  -0.019991
     6  H    0.281596  -0.019990
 Sum of Mulliken charges =   1.00000   1.00000

 Dipole moment (field-independent basis, Debye):
    X=             -0.0000    Y=              0.0000    Z=              0.0000  Tot=              0.0000
 Quadrupole moment (field-independent basis, Debye-Ang):
   XX=             -8.2986   YY=             -3.7112   ZZ=            -12.1573
   XY=              0.0000   XZ=              0.0000   YZ=              0.0000

 Normal termination of Gaussian 16 at Tue Nov 19 11:55:28 2024.
