 Gaussian 16, Revision A.03,
 Gaussian 16:  ES64L-G16RevA.03 25-Dec-2016

 ---------------------------------------
 #p UM062X/6-311+G** force int=superfine
 ---------------------------------------

 -------------------
 Title Card Required
 -------------------
 Symbolic Z-matrix:
 Charge =  1 Multiplicity = 2

                         Standard orientation:
 ---------------------------------------------------------------------
 Center     Atomic      Atomic             Coordinates (Angstroms)
 Number     Number       Type             X           Y           Z
 ---------------------------------------------------------------------
      1          6           0        0.000000    0.000000   -0.795318
      2          6           0        0.000000    0.000000    0.795318
      3          1           0        0.000000    0.000000   -1.887913
      4          1           0        0.000000    0.000000    1.887917
 ---------------------------------------------------------------------

 SCF Done:  E(UM062X) =  -76.7841113487     A.U. after   10 cycles

 Unable to determine electronic state:  an orbital has unidentified symmetry.
 Alpha  occ. eigenvalues --  -10.99066 -10.99020  -1.12286  -0.98869  -0.85753
 Alpha  occ. eigenvalues --   -0.65179  -0.62982
 Alpha virt. eigenvalues --   -0.34779  -0.32775  -0.24122  -0.14255  -0.10811
 Alpha virt. eigenvalues --   -0.10737  -0.09303  -0.09062  -0.05260  -0.04927
 Alpha virt. eigenvalues --    0.01717   0.04021   0.08842   0.21808   0.31409

  Beta  occ. eigenvalues --  -10.98823 -10.98790  -1.08216  -0.97146  -0.85006
  Beta  occ. eigenvalues --   -0.60900
  Beta virt. eigenvalues --   -0.41757  -0.31066  -0.26922  -0.22011  -0.15344
  Beta virt. eigenvalues --   -0.11187  -0.10996  -0.09664  -0.09473  -0.05125
  Beta virt. eigenvalues --   -0.04779   0.00942   0.04138   0.09264   0.22647

 Mulliken charges and spin densities:
               1          2
     1  C    0.146711   0.521161
     2  C    0.146711   0.521160
     3  H    0.353288  -0.021161
     4  H    0.353290  -0.021161
 Sum of Mulliken charges =   1.00000   1.00000

 Dipole moment (field-independent basis, Debye):
    X=              0.0000    Y=              0.0000    Z=              0.0000  Tot=              0.0000
 Quadrupole moment (field-independent basis, Debye-Ang):
   XX=            -10.4746   YY=            -12.5103   ZZ=              2.2431
   XY=              0.0000   XZ=              0.0000   YZ=              0.0000

 Normal termination of Gaussian 16 at Tue Nov 19 13:35:45 2024.
