 Gaussian 16, Revision A.03,
 Gaussian 16:  ES64L-G16RevA.03 25-Dec-2016

 --------------------------------------------
 #p opt UM062X/6-311+G** nosymm int=superfine
 --------------------------------------------

 -------------------
 Title Card Required
 -------------------
 Symbolic Z-matrix:
 Charge =  0 Multiplicity = 1

 SCF Done:  E(UM062X) =  -78.2122042739     A.U. after    8 cycles
 SCF Done:  E(UM062X) =  -78.2631141172     A.U. after    8 cycles
 SCF Done:  E(UM062X) =  -78.3275647785     A.U. after   10 cycles
 SCF Done:  E(UM062X) =  -78.3436169982     A.U. after    9 cycles
 SCF Done:  E(UM062X) =  -78.3463912149     A.U. after    9 cycles
 SCF Done:  E(UM062X) =  -78.3464072715     A.U. after    8 cycles
 SCF Done:  E(UM062X) =  -78.3464097724     A.U. after    7 cycles
 Optimization completed.
    -- Stationary point found.

                          Input orientation:
 ---------------------------------------------------------------------
 Center     Atomic      Atomic             Coordinates (Angstroms)
 Number     Number       Type             X           Y           Z
 ---------------------------------------------------------------------
      1          6           0       -1.053966    0.000000    0.000000
      2          6           0        1.053966    0.000000    0.000000
      3          1           0       -1.507226   -0.977993   -0.000000
      4          1           0       -1.507158    0.977914   -0.000000
      5          1           0        1.507226    0.977993    0.000000
      6          1           0        1.507158   -0.977914    0.000000
 ---------------------------------------------------------------------

 Alpha  occ. eigenvalues --  -10.61527 -10.61515  -0.77071  -0.71952  -0.53062
 Alpha  occ. eigenvalues --   -0.50448  -0.36643  -0.25591
 Alpha virt. eigenvalues --   -0.07407   0.00610   0.03363   0.05379   0.07255
 Alpha virt. eigenvalues --    0.07821   0.09200   0.09936   0.11331   0.15177
 Alpha virt. eigenvalues --    0.16401   0.20248   0.21344   0.27915   0.39458

  Beta  occ. eigenvalues --  -10.61527 -10.61515  -0.77071  -0.71952  -0.53062
  Beta  occ. eigenvalues --   -0.50448  -0.36643  -0.25591
  Beta virt. eigenvalues --   -0.07407   0.00610   0.03363   0.05379   0.07255
  Beta virt. eigenvalues --    0.07821   0.09200   0.09936   0.11331   0.15177
  Beta virt. eigenvalues --    0.16401   0.20248   0.21344   0.27915   0.39458

 Mulliken charges and spin densities:
               1          2
     1  C   -0.365743   0.000000
     2  C   -0.365743  -0.000000
     3  H    0.182874  -0.000000
     4  H    0.182870  -0.000000
     5  H    0.182874   0.000000
     6  H    0.182870   0.000000
 Sum of Mulliken charges =  -0.00000   0.00000

 Dipole moment (field-independent basis, Debye):
    X=             -0.0000    Y=             -0.0000    Z=             -0.0000  Tot=              0.0000
 Quadrupole moment (field-independent basis, Debye-Ang):
   XX=            -11.0584   YY=            -12.0510   ZZ=            -18.3579
   XY=              0.0002   XZ=              0.0000   YZ=             -0.0000

 Normal termination of Gaussian 16 at Tue Nov 19 11:09:31 2024.
