 Gaussian 16, Revision A.03,
 Gaussian 16:  ES64L-G16RevA.03 25-Dec-2016

 ---------------------------------------------------
 #p UM062X/6-311+G** force int=superfine pop=saveNBO
 ---------------------------------------------------

 -------------------
 Title Card Required
 -------------------
 Symbolic Z-matrix:
 Charge =  0 Multiplicity = 1

                         Standard orientation:
 ---------------------------------------------------------------------
 Center     Atomic      Atomic             Coordinates (Angstroms)
 Number     Number       Type             X           Y           Z
 ---------------------------------------------------------------------
      1          8           0        0.000000    0.000000   -1.593424
      2         16           0        0.000000    0.000000    0.796712
 ---------------------------------------------------------------------

 SCF Done:  E(UM062X) =  -473.078306884     A.U. after   18 cycles

 Unable to determine electronic state:  an orbital has unidentified symmetry.
 Alpha  occ. eigenvalues --  -90.03549 -19.75655  -8.39040  -6.31088  -6.31072
 Alpha  occ. eigenvalues --   -6.30165  -1.04944  -0.80948  -0.43254  -0.42632
 Alpha  occ. eigenvalues --   -0.37731  -0.36928
 Alpha virt. eigenvalues --   -0.22932  -0.16542   0.02628   0.04723   0.05232
 Alpha virt. eigenvalues --    0.05631   0.18152   0.20080   0.20355   0.26684
 Alpha virt. eigenvalues --    0.32763   0.33687   0.33946   0.59194   0.74308

  Beta  occ. eigenvalues --  -90.03549 -19.75655  -8.39040  -6.31088  -6.31072
  Beta  occ. eigenvalues --   -6.30165  -1.04944  -0.80948  -0.43254  -0.42632
  Beta  occ. eigenvalues --   -0.37731  -0.36928
  Beta virt. eigenvalues --   -0.22932  -0.16542   0.02628   0.04723   0.05232
  Beta virt. eigenvalues --    0.05631   0.18152   0.20080   0.20355   0.26684
  Beta virt. eigenvalues --    0.32763   0.33687   0.33946   0.59194   0.74308

 Mulliken charges and spin densities:
               1          2
     1  O   -0.229816   0.000000
     2  S    0.229816  -0.000000
 Sum of Mulliken charges =  -0.00000  -0.00000

 Dipole moment (field-independent basis, Debye):
    X=              0.0000    Y=              0.0000    Z=              2.6417  Tot=              2.6417
 Quadrupole moment (field-independent basis, Debye-Ang):
   XX=            -20.6383   YY=            -17.1984   ZZ=            -18.3600
   XY=              0.0000   XZ=              0.0000   YZ=              0.0000

 Summary of Natural Population Analysis:

                                       Natural Population
                Natural  -----------------------------------------------
    Atom  No    Charge         Core      Valence    Rydberg      Total
 -----------------------------------------------------------------------
      O    1   -0.15710      1.00000     3.15584    0.00126     4.15710
      S    2    0.15710      4.99999     2.84094    0.00197     7.84290
 =======================================================================
   * Total *   -0.00000      5.99999     5.99678    0.00323    12.00000

 Normal termination of Gaussian 16 at Mon Apr 21 19:59:52 2025.
