 Gaussian 16, Revision A.03,
 Gaussian 16:  ES64L-G16RevA.03 25-Dec-2016

 --------------------------------------------
 #p opt UM062X/6-311+G** nosymm int=superfine
 --------------------------------------------

 -------------------
 Title Card Required
 -------------------
 Symbolic Z-matrix:
 Charge =  0 Multiplicity = 1

 SCF Done:  E(UM062X) =  -437.426844994     A.U. after   10 cycles
 SCF Done:  E(UM062X) =  -437.427118284     A.U. after    9 cycles
 SCF Done:  E(UM062X) =  -437.427059110     A.U. after   10 cycles
 SCF Done:  E(UM062X) =  -437.426597886     A.U. after   10 cycles
 SCF Done:  E(UM062X) =  -437.426532095     A.U. after   10 cycles
 SCF Done:  E(UM062X) =  -437.427140184     A.U. after    7 cycles
 SCF Done:  E(UM062X) =  -437.427162253     A.U. after   10 cycles
 Optimization completed.
    -- Stationary point found.

                          Input orientation:
 ---------------------------------------------------------------------
 Center     Atomic      Atomic             Coordinates (Angstroms)
 Number     Number       Type             X           Y           Z
 ---------------------------------------------------------------------
      1          6           0       -0.877140    0.000000    0.000000
      2         16           0        0.877140    0.000000    0.000000
      3          1           0       -1.421215   -0.938675    0.000025
      4          1           0       -1.421569    0.938470   -0.000382
 ---------------------------------------------------------------------

 Alpha  occ. eigenvalues --  -89.90909 -10.63496  -8.27136  -6.19193  -6.19143
 Alpha  occ. eigenvalues --   -6.18547  -0.86616  -0.69746  -0.54297  -0.44622
 Alpha  occ. eigenvalues --   -0.35807  -0.29748
 Alpha virt. eigenvalues --   -0.08165   0.01426   0.04544   0.04973   0.05773
 Alpha virt. eigenvalues --    0.08161   0.08740   0.10127   0.12757   0.15360
 Alpha virt. eigenvalues --    0.17735   0.20787   0.36123   0.36171   0.36629

  Beta  occ. eigenvalues --  -89.90909 -10.63496  -8.27136  -6.19193  -6.19143
  Beta  occ. eigenvalues --   -6.18547  -0.86616  -0.69746  -0.54297  -0.44622
  Beta  occ. eigenvalues --   -0.35807  -0.29748
  Beta virt. eigenvalues --   -0.08165   0.01426   0.04544   0.04973   0.05773
  Beta virt. eigenvalues --    0.08161   0.08740   0.10127   0.12757   0.15360
  Beta virt. eigenvalues --    0.17735   0.20787   0.36123   0.36171   0.36629

 Mulliken charges and spin densities:
               1          2
     1  C   -0.359451   0.000000
     2  S   -0.033644  -0.000000
     3  H    0.196548   0.000000
     4  H    0.196547   0.000000
 Sum of Mulliken charges =  -0.00000  -0.00000

 Dipole moment (field-independent basis, Debye):
    X=             -2.0463    Y=             -0.0001    Z=             -0.0003  Tot=              2.0463
 Quadrupole moment (field-independent basis, Debye-Ang):
   XX=            -17.8872   YY=            -20.7092   ZZ=            -20.4446
   XY=             -0.0004   XZ=              0.0003   YZ=              0.0001

 Normal termination of Gaussian 16 at Mon Apr 21 19:36:19 2025.
