 Gaussian 16, Revision A.03,
 Gaussian 16:  ES64L-G16RevA.03 25-Dec-2016

 --------------------------------------------
 #p opt UM062X/6-311+G** nosymm int=superfine
 --------------------------------------------

 -------------------
 Title Card Required
 -------------------
 Symbolic Z-matrix:
 Charge =  1 Multiplicity = 2

 SCF Done:  E(UM062X) =  -579.689901985     A.U. after   18 cycles
 SCF Done:  E(UM062X) =  -579.690550295     A.U. after   17 cycles
 SCF Done:  E(UM062X) =  -579.692560207     A.U. after   17 cycles
 SCF Done:  E(UM062X) =  -579.694116682     A.U. after   16 cycles
 SCF Done:  E(UM062X) =  -579.695045066     A.U. after   22 cycles
 SCF Done:  E(UM062X) =  -579.697411518     A.U. after   19 cycles
 SCF Done:  E(UM062X) =  -579.697886781     A.U. after   18 cycles
 SCF Done:  E(UM062X) =  -579.697952624     A.U. after   17 cycles
 SCF Done:  E(UM062X) =  -579.697958307     A.U. after   10 cycles
 SCF Done:  E(UM062X) =  -579.697959644     A.U. after   11 cycles
 Optimization completed.
    -- Stationary point found.

                          Input orientation:
 ---------------------------------------------------------------------
 Center     Atomic      Atomic             Coordinates (Angstroms)
 Number     Number       Type             X           Y           Z
 ---------------------------------------------------------------------
      1         14           0       -1.527975    0.000000    0.000000
      2         14           0        1.527975    0.000000    0.000000
      3          1           0       -1.296951   -1.494282    0.005654
      4          1           0        3.016618    0.061784    0.000279
 ---------------------------------------------------------------------

 Alpha  occ. eigenvalues --  -67.29283 -67.26705  -5.83405  -5.80911  -4.14393
 Alpha  occ. eigenvalues --   -4.14243  -4.13736  -4.12313  -4.12114  -4.11438
 Alpha  occ. eigenvalues --   -0.79166  -0.75547  -0.56133  -0.53142  -0.43096
 Alpha virt. eigenvalues --   -0.29295  -0.28632  -0.27345  -0.12460  -0.10148
 Alpha virt. eigenvalues --   -0.09282  -0.08345  -0.07789  -0.06923  -0.05632
 Alpha virt. eigenvalues --   -0.05518  -0.03468  -0.00388   0.12160   0.13197

  Beta  occ. eigenvalues --  -67.29214 -67.26218  -5.83395  -5.80733  -4.14259
  Beta  occ. eigenvalues --   -4.14190  -4.13722  -4.11985  -4.11262  -4.10943
  Beta  occ. eigenvalues --   -0.77665  -0.73526  -0.55255  -0.52611
  Beta virt. eigenvalues --   -0.29468  -0.27710  -0.26639  -0.24531  -0.14046
  Beta virt. eigenvalues --   -0.10488  -0.10147  -0.08190  -0.07507  -0.07369
  Beta virt. eigenvalues --   -0.05136  -0.04441  -0.04160  -0.00716   0.11581

 Mulliken charges and spin densities:
               1          2
     1  Si   0.748186   0.160315
     2  Si   0.300901   0.859742
     3  H   -0.086431  -0.004152
     4  H    0.037343  -0.015905
 Sum of Mulliken charges =   1.00000   1.00000

 Dipole moment (field-independent basis, Debye):
    X=             -0.2616    Y=             -0.4481    Z=              0.0022  Tot=              0.5188
 Quadrupole moment (field-independent basis, Debye-Ang):
   XX=             -6.8587   YY=            -23.4633   ZZ=            -23.9342
   XY=              1.3164   XZ=             -0.0047   YZ=             -0.0024

 Normal termination of Gaussian 16 at Mon Apr 21 20:37:58 2025.
