 Gaussian 16, Revision A.03,
 Gaussian 16:  ES64L-G16RevA.03 25-Dec-2016

 --------------------------------------------
 #p opt UM062X/6-311+G** nosymm int=superfine
 --------------------------------------------

 -------------------
 Title Card Required
 -------------------
 Symbolic Z-matrix:
 Charge =  0 Multiplicity = 1

 SCF Done:  E(UM062X) =  -79.6913508215     A.U. after    9 cycles
 SCF Done:  E(UM062X) =  -79.7115608269     A.U. after    8 cycles
 SCF Done:  E(UM062X) =  -79.7156254221     A.U. after    8 cycles
 SCF Done:  E(UM062X) =  -79.7156308980     A.U. after    7 cycles
 Optimization completed.
    -- Stationary point found.

                          Input orientation:
 ---------------------------------------------------------------------
 Center     Atomic      Atomic             Coordinates (Angstroms)
 Number     Number       Type             X           Y           Z
 ---------------------------------------------------------------------
      1          6           0       -0.610838    0.000000    0.000000
      2          6           0        0.610900    0.000000    0.000000
      3          1           0        1.078865   -0.862834    0.499292
      4          1           0       -1.078802   -0.863821   -0.497600
      5          1           0        1.078865    0.863822    0.497597
      6          1           0        1.078870   -0.000958   -0.996887
      7          1           0       -1.078803    0.862833   -0.499294
      8          1           0       -1.078808    0.000956    0.996886
 ---------------------------------------------------------------------

 Alpha  occ. eigenvalues --  -10.50258 -10.50037  -0.92380  -0.68227  -0.53563
 Alpha  occ. eigenvalues --   -0.53563  -0.49686  -0.36273  -0.36273
 Alpha virt. eigenvalues --    0.02093   0.04201   0.04965   0.04965   0.08674
 Alpha virt. eigenvalues --    0.08940   0.08940   0.14222   0.19499   0.19499
 Alpha virt. eigenvalues --    0.19624   0.19624   0.24048   0.27938   0.37664

  Beta  occ. eigenvalues --  -10.50258 -10.50037  -0.92380  -0.68227  -0.53563
  Beta  occ. eigenvalues --   -0.53563  -0.49686  -0.36273  -0.36273
  Beta virt. eigenvalues --    0.02093   0.04201   0.04965   0.04965   0.08674
  Beta virt. eigenvalues --    0.08940   0.08940   0.14222   0.19499   0.19499
  Beta virt. eigenvalues --    0.19624   0.19624   0.24048   0.27938   0.37664

 Mulliken charges and spin densities:
               1          2
     1  C   -0.436175   0.000000
     2  C   -0.436175  -0.000000
     3  H    0.145393   0.000000
     4  H    0.145392  -0.000000
     5  H    0.145392   0.000000
     6  H    0.145391   0.000000
     7  H    0.145393  -0.000000
     8  H    0.145391  -0.000000
 Sum of Mulliken charges =  -0.00000   0.00000

 Dipole moment (field-independent basis, Debye):
    X=              0.0000    Y=             -0.0000    Z=             -0.0000  Tot=              0.0000
 Quadrupole moment (field-independent basis, Debye-Ang):
   XX=            -15.6392   YY=            -14.9522   ZZ=            -14.9522
   XY=              0.0000   XZ=              0.0000   YZ=             -0.0001

 Normal termination of Gaussian 16 at Tue Nov 19 11:45:28 2024.
