 Gaussian 16, Revision A.03,
 Gaussian 16:  ES64L-G16RevA.03 25-Dec-2016

 --------------------------------------------
 #p opt UM062X/6-311+G** nosymm int=superfine
 --------------------------------------------

 -------------------
 Title Card Required
 -------------------
 Symbolic Z-matrix:
 Charge =  0 Multiplicity = 1

 SCF Done:  E(UM062X) =  -438.668242260     A.U. after   11 cycles
 SCF Done:  E(UM062X) =  -438.668915188     A.U. after    9 cycles
 SCF Done:  E(UM062X) =  -438.668953909     A.U. after    8 cycles
 SCF Done:  E(UM062X) =  -438.668954340     A.U. after    7 cycles
 Optimization completed.
    -- Stationary point found.

                          Input orientation:
 ---------------------------------------------------------------------
 Center     Atomic      Atomic             Coordinates (Angstroms)
 Number     Number       Type             X           Y           Z
 ---------------------------------------------------------------------
      1          6           0       -0.985220    0.000000    0.000000
      2         16           0        0.985220    0.000000    0.000000
      3          1           0        1.097418   -1.336657   -0.001812
      4          1           0       -1.262189    1.050038    0.002321
      5          1           0       -1.330678   -0.492698   -0.903213
      6          1           0       -1.330646   -0.496630    0.901072
 ---------------------------------------------------------------------

 Alpha  occ. eigenvalues --  -89.89291 -10.57718  -8.25736  -6.17863  -6.17670
 Alpha  occ. eigenvalues --   -6.17214  -0.85234  -0.74054  -0.51096  -0.50070
 Alpha  occ. eigenvalues --   -0.44495  -0.38602  -0.29736
 Alpha virt. eigenvalues --    0.00786   0.02893   0.04708   0.05365   0.06937
 Alpha virt. eigenvalues --    0.07922   0.08267   0.08782   0.12197   0.13866
 Alpha virt. eigenvalues --    0.17912   0.18168   0.25646   0.32945   0.34626

  Beta  occ. eigenvalues --  -89.89291 -10.57718  -8.25736  -6.17863  -6.17670
  Beta  occ. eigenvalues --   -6.17214  -0.85234  -0.74054  -0.51096  -0.50070
  Beta  occ. eigenvalues --   -0.44495  -0.38602  -0.29736
  Beta virt. eigenvalues --    0.00786   0.02893   0.04708   0.05365   0.06937
  Beta virt. eigenvalues --    0.07922   0.08267   0.08782   0.12197   0.13866
  Beta virt. eigenvalues --    0.17912   0.18168   0.25646   0.32945   0.34626

 Mulliken charges and spin densities:
               1          2
     1  C   -0.600956   0.000000
     2  S   -0.046347  -0.000000
     3  H    0.065419  -0.000000
     4  H    0.192568  -0.000000
     5  H    0.194672  -0.000000
     6  H    0.194644  -0.000000
 Sum of Mulliken charges =  -0.00000  -0.00000

 Dipole moment (field-independent basis, Debye):
    X=             -1.6072    Y=             -0.9273    Z=             -0.0012  Tot=              1.8556
 Quadrupole moment (field-independent basis, Debye-Ang):
   XX=            -21.2553   YY=            -19.2409   ZZ=            -23.0057
   XY=             -1.5508   XZ=             -0.0022   YZ=              0.0051

 Normal termination of Gaussian 16 at Mon Apr 21 19:29:17 2025.
