 Gaussian 16, Revision A.03,
 Gaussian 16:  ES64L-G16RevA.03 25-Dec-2016

 --------------------------------------------
 #p opt UM062X/6-311+G** nosymm int=superfine
 --------------------------------------------

 -------------------
 Title Card Required
 -------------------
 Symbolic Z-matrix:
 Charge =  0 Multiplicity = 1

 SCF Done:  E(UM062X) =  -379.604884524     A.U. after   15 cycles
 SCF Done:  E(UM062X) =  -379.606114545     A.U. after   11 cycles
 SCF Done:  E(UM062X) =  -379.606118854     A.U. after    9 cycles
 Optimization completed.
    -- Stationary point found.

                          Input orientation:
 ---------------------------------------------------------------------
 Center     Atomic      Atomic             Coordinates (Angstroms)
 Number     Number       Type             X           Y           Z
 ---------------------------------------------------------------------
      1          6           0       -1.540377    0.000000    0.000000
      2         15           0        1.540377    0.000000    0.000000
      3          1           0       -2.659395   -0.000000    0.000000
 ---------------------------------------------------------------------

 Alpha  occ. eigenvalues --  -78.08661 -10.70942  -6.90441  -5.02280  -5.01432
 Alpha  occ. eigenvalues --   -5.01432  -0.75808  -0.61436  -0.41858  -0.24995
 Alpha  occ. eigenvalues --   -0.24995
 Alpha virt. eigenvalues --   -0.14193  -0.14193  -0.11197   0.01296   0.04011
 Alpha virt. eigenvalues --    0.05921   0.05921   0.07525   0.08984   0.08984
 Alpha virt. eigenvalues --    0.14135   0.18150   0.32821   0.32821   0.33236

  Beta  occ. eigenvalues --  -78.08661 -10.70942  -6.90441  -5.02280  -5.01432
  Beta  occ. eigenvalues --   -5.01432  -0.75808  -0.61436  -0.41858  -0.24995
  Beta  occ. eigenvalues --   -0.24995
  Beta virt. eigenvalues --   -0.14193  -0.14193  -0.11197   0.01296   0.04011
  Beta virt. eigenvalues --    0.05921   0.05921   0.07525   0.08984   0.08984
  Beta virt. eigenvalues --    0.14135   0.18150   0.32821   0.32821   0.33236

 Mulliken charges and spin densities:
               1          2
     1  C   -0.192523  -0.000002
     2  P    0.010742   0.000002
     3  H    0.181781   0.000000
 Sum of Mulliken charges =  -0.00000   0.00000

 Dipole moment (field-independent basis, Debye):
    X=             -2.0099    Y=             -0.0000    Z=              0.0000  Tot=              2.0099
 Quadrupole moment (field-independent basis, Debye-Ang):
   XX=            -10.8555   YY=            -23.9556   ZZ=            -23.9556
   XY=             -0.0000   XZ=              0.0000   YZ=              0.0000

 Normal termination of Gaussian 16 at Mon Apr 21 19:29:26 2025.
