 Gaussian 16, Revision A.03,
 Gaussian 16:  ES64L-G16RevA.03 25-Dec-2016

 --------------------------------------------
 #p opt UM062X/6-311+G** nosymm int=superfine
 --------------------------------------------

 -------------------
 Title Card Required
 -------------------
 Symbolic Z-matrix:
 Charge =  0 Multiplicity = 1

 SCF Done:  E(UM062X) =  -151.405704672     A.U. after   14 cycles
 SCF Done:  E(UM062X) =  -151.410911825     A.U. after   17 cycles
 SCF Done:  E(UM062X) =  -151.413527407     A.U. after   16 cycles
 SCF Done:  E(UM062X) =  -151.413608033     A.U. after   18 cycles
 SCF Done:  E(UM062X) =  -151.413626626     A.U. after   13 cycles
 SCF Done:  E(UM062X) =  -151.413631694     A.U. after   12 cycles
 SCF Done:  E(UM062X) =  -151.413632606     A.U. after   12 cycles
 SCF Done:  E(UM062X) =  -151.413632651     A.U. after   10 cycles
 Optimization completed.
    -- Stationary point found.

                          Input orientation:
 ---------------------------------------------------------------------
 Center     Atomic      Atomic             Coordinates (Angstroms)
 Number     Number       Type             X           Y           Z
 ---------------------------------------------------------------------
      1          8           0       -1.136938    0.000000    0.000000
      2          8           0        1.136938    0.000000    0.000000
      3          1           0       -1.043551   -0.778703   -0.575234
      4          1           0        1.043515    0.778225    0.575874
 ---------------------------------------------------------------------

 Alpha  occ. eigenvalues --  -19.72547 -19.72543  -1.14323  -1.10910  -0.57601
 Alpha  occ. eigenvalues --   -0.55378  -0.44999  -0.42693  -0.42483
 Alpha virt. eigenvalues --   -0.19324   0.05595   0.09532   0.14725   0.15987
 Alpha virt. eigenvalues --    0.17526   0.19597   0.21544   0.23068   0.25442
 Alpha virt. eigenvalues --    0.33716   0.49182   0.53590   0.96306   0.96776

  Beta  occ. eigenvalues --  -19.72547 -19.72543  -1.14323  -1.10910  -0.57601
  Beta  occ. eigenvalues --   -0.55378  -0.44999  -0.42693  -0.42483
  Beta virt. eigenvalues --   -0.19324   0.05595   0.09532   0.14725   0.15987
  Beta virt. eigenvalues --    0.17526   0.19597   0.21544   0.23068   0.25442
  Beta virt. eigenvalues --    0.33716   0.49182   0.53590   0.96306   0.96776

 Mulliken charges and spin densities:
               1          2
     1  O   -0.272391  -0.000000
     2  O   -0.272385   0.000000
     3  H    0.272388   0.000000
     4  H    0.272388  -0.000000
 Sum of Mulliken charges =  -0.00000   0.00000

 Dipole moment (field-independent basis, Debye):
    X=             -0.0000    Y=             -0.0009    Z=              0.0012  Tot=              0.0015
 Quadrupole moment (field-independent basis, Debye-Ang):
   XX=            -11.8779   YY=            -10.2755   ZZ=            -11.7980
   XY=              3.3832   XZ=              2.5013   YZ=              2.4827

 Normal termination of Gaussian 16 at Mon Apr 21 21:36:01 2025.
