 Gaussian 16, Revision A.03,
 Gaussian 16:  ES64L-G16RevA.03 25-Dec-2016

 --------------------------------------------
 #p opt UM062X/6-311+G** nosymm int=superfine
 --------------------------------------------

 -------------------
 Title Card Required
 -------------------
 Symbolic Z-matrix:
 Charge =  0 Multiplicity = 1

 SCF Done:  E(UM062X) =  -684.999666011     A.U. after   11 cycles
 SCF Done:  E(UM062X) =  -685.001679616     A.U. after   10 cycles
 SCF Done:  E(UM062X) =  -685.002376061     A.U. after   10 cycles
 SCF Done:  E(UM062X) =  -685.002419424     A.U. after    9 cycles
 SCF Done:  E(UM062X) =  -685.002436961     A.U. after    9 cycles
 SCF Done:  E(UM062X) =  -685.002447732     A.U. after    9 cycles
 SCF Done:  E(UM062X) =  -685.002471805     A.U. after   10 cycles
 SCF Done:  E(UM062X) =  -685.002529418     A.U. after   11 cycles
 SCF Done:  E(UM062X) =  -685.002564610     A.U. after   10 cycles
 SCF Done:  E(UM062X) =  -685.002512861     A.U. after   12 cycles
 SCF Done:  E(UM062X) =  -685.002517002     A.U. after   12 cycles
 SCF Done:  E(UM062X) =  -685.002686218     A.U. after    8 cycles
 SCF Done:  E(UM062X) =  -685.002674918     A.U. after    9 cycles
 SCF Done:  E(UM062X) =  -685.002678252     A.U. after    8 cycles
 SCF Done:  E(UM062X) =  -685.002685874     A.U. after    9 cycles
 SCF Done:  E(UM062X) =  -685.002686262     A.U. after    8 cycles
 SCF Done:  E(UM062X) =  -685.002659145     A.U. after    9 cycles
 SCF Done:  E(UM062X) =  -685.002686628     A.U. after    9 cycles
 SCF Done:  E(UM062X) =  -685.002686823     A.U. after    8 cycles
 SCF Done:  E(UM062X) =  -685.002686828     A.U. after    7 cycles
 Optimization completed.
    -- Stationary point found.

                          Input orientation:
 ---------------------------------------------------------------------
 Center     Atomic      Atomic             Coordinates (Angstroms)
 Number     Number       Type             X           Y           Z
 ---------------------------------------------------------------------
      1         15           0       -1.517217    0.000000    0.000000
      2         15           0        1.517217    0.000000    0.000000
      3          1           0        1.501815   -0.954798    1.048159
      4          1           0       -1.502463    1.012966    0.992215
      5          1           0        1.502465   -1.012997   -0.992183
      6          1           0       -1.501824    0.954812   -1.048144
 ---------------------------------------------------------------------

 Alpha  occ. eigenvalues --  -78.04384 -78.04384  -6.86736  -6.86735  -4.98281
 Alpha  occ. eigenvalues --   -4.98281  -4.98192  -4.98192  -4.98001  -4.98001
 Alpha  occ. eigenvalues --   -0.72110  -0.69359  -0.45386  -0.43995  -0.36494
 Alpha  occ. eigenvalues --   -0.35656  -0.28728
 Alpha virt. eigenvalues --   -0.08389   0.01496   0.03197   0.03353   0.04177
 Alpha virt. eigenvalues --    0.04691   0.05318   0.06201   0.06362   0.06813
 Alpha virt. eigenvalues --    0.09025   0.16540   0.18768   0.28332   0.28574

  Beta  occ. eigenvalues --  -78.04384 -78.04384  -6.86736  -6.86735  -4.98281
  Beta  occ. eigenvalues --   -4.98281  -4.98192  -4.98192  -4.98001  -4.98001
  Beta  occ. eigenvalues --   -0.72110  -0.69359  -0.45386  -0.43995  -0.36494
  Beta  occ. eigenvalues --   -0.35656  -0.28728
  Beta virt. eigenvalues --   -0.08389   0.01496   0.03197   0.03353   0.04177
  Beta virt. eigenvalues --    0.04691   0.05318   0.06201   0.06362   0.06813
  Beta virt. eigenvalues --    0.09025   0.16540   0.18768   0.28332   0.28574

 Mulliken charges and spin densities:
               1          2
     1  P   -0.042474   0.000000
     2  P   -0.042475  -0.000000
     3  H    0.021236   0.000000
     4  H    0.021238  -0.000000
     5  H    0.021238   0.000000
     6  H    0.021237  -0.000000
 Sum of Mulliken charges =  -0.00000   0.00000

 Dipole moment (field-independent basis, Debye):
    X=             -0.0000    Y=              0.0000    Z=              0.0000  Tot=              0.0000
 Quadrupole moment (field-independent basis, Debye-Ang):
   XX=            -30.0137   YY=            -31.0107   ZZ=            -28.2118
   XY=             -3.6115   XZ=              0.1019   YZ=              0.0795

 Normal termination of Gaussian 16 at Mon Apr 21 20:52:40 2025.
