 Gaussian 16, Revision A.03,
 Gaussian 16:  ES64L-G16RevA.03 25-Dec-2016

 --------------------------------------------
 #p opt UM062X/6-311+G** nosymm int=superfine
 --------------------------------------------

 -------------------
 Title Card Required
 -------------------
 Symbolic Z-matrix:
 Charge =  0 Multiplicity = 1

 SCF Done:  E(UM062X) =  -79.5158983778     A.U. after   19 cycles
 SCF Done:  E(UM062X) =  -79.5209650809     A.U. after   12 cycles
 SCF Done:  E(UM062X) =  -79.5240201501     A.U. after   19 cycles
 SCF Done:  E(UM062X) =  -79.5240655146     A.U. after   10 cycles
 Optimization completed.
    -- Stationary point found.

                          Input orientation:
 ---------------------------------------------------------------------
 Center     Atomic      Atomic             Coordinates (Angstroms)
 Number     Number       Type             X           Y           Z
 ---------------------------------------------------------------------
      1          6           0       -6.271675    0.000000    0.000000
      2          6           0        6.271800    0.000000    0.000000
      3          1           0        6.276469   -0.934420    0.540700
      4          1           0       -6.276319   -0.935474   -0.538875
      5          1           0        6.276449    0.935474    0.538874
      6          1           0        6.276511   -0.001053   -1.079583
      7          1           0       -6.276344    0.934421   -0.540699
      8          1           0       -6.276392    0.001053    1.079583
 ---------------------------------------------------------------------

 Alpha  occ. eigenvalues --  -10.56870 -10.56870  -0.77122  -0.77117  -0.49472
 Alpha  occ. eigenvalues --   -0.49472  -0.49472  -0.49472  -0.18003
 Alpha virt. eigenvalues --   -0.15705   0.03366   0.03376   0.05735   0.05735
 Alpha virt. eigenvalues --    0.05736   0.05736   0.09314   0.09329   0.18847
 Alpha virt. eigenvalues --    0.18854   0.19084   0.19084   0.19085   0.19085

  Beta  occ. eigenvalues --  -10.56870 -10.56870  -0.77122  -0.77117  -0.49472
  Beta  occ. eigenvalues --   -0.49472  -0.49472  -0.49472  -0.18003
  Beta virt. eigenvalues --   -0.15705   0.03366   0.03376   0.05735   0.05735
  Beta virt. eigenvalues --    0.05736   0.05736   0.09314   0.09329   0.18847
  Beta virt. eigenvalues --    0.18854   0.19084   0.19084   0.19085   0.19085

 Mulliken charges and spin densities:
               1          2
     1  C   -0.500548  -0.000000
     2  C   -0.500548   0.000000
     3  H    0.166850  -0.000000
     4  H    0.166850  -0.000000
     5  H    0.166850  -0.000000
     6  H    0.166849  -0.000000
     7  H    0.166850  -0.000000
     8  H    0.166849  -0.000000
 Sum of Mulliken charges =  -0.00000  -0.00000

 Dipole moment (field-independent basis, Debye):
    X=             -0.0000    Y=             -0.0000    Z=             -0.0000  Tot=              0.0000
 Quadrupole moment (field-independent basis, Debye-Ang):
   XX=            -19.5853   YY=            -14.7478   ZZ=            -14.7479
   XY=             -0.0001   XZ=             -0.0002   YZ=             -0.0000

 Normal termination of Gaussian 16 at Tue Dec  3 13:17:09 2024.
