 Gaussian 16, Revision A.03,
 Gaussian 16:  ES64L-G16RevA.03 25-Dec-2016

 --------------------------------------------
 #p opt UM062X/6-311+G** nosymm int=superfine
 --------------------------------------------

 -------------------
 Title Card Required
 -------------------
 Symbolic Z-matrix:
 Charge =  1 Multiplicity = 2

 SCF Done:  E(UM062X) =  -379.293963650     A.U. after   26 cycles
 SCF Done:  E(UM062X) =  -379.294762998     A.U. after   19 cycles
 SCF Done:  E(UM062X) =  -379.294764666     A.U. after   22 cycles
 Optimization completed.
    -- Stationary point found.

                          Input orientation:
 ---------------------------------------------------------------------
 Center     Atomic      Atomic             Coordinates (Angstroms)
 Number     Number       Type             X           Y           Z
 ---------------------------------------------------------------------
      1          6           0       -2.294427    0.000000    0.000000
      2         15           0        2.294427    0.000000    0.000000
      3          1           0       -3.416226    0.000000   -0.000000
 ---------------------------------------------------------------------

 Alpha  occ. eigenvalues --  -78.30643 -10.97237  -7.12223  -5.24371  -5.24023
 Alpha  occ. eigenvalues --   -5.22964  -0.99173  -0.84329  -0.64943  -0.50012
 Alpha  occ. eigenvalues --   -0.44284
 Alpha virt. eigenvalues --   -0.38074  -0.34563  -0.32741  -0.13126  -0.09578
 Alpha virt. eigenvalues --   -0.08296  -0.07957  -0.06686  -0.05291  -0.04938
 Alpha virt. eigenvalues --   -0.02539   0.00091   0.17620   0.17883   0.18162

  Beta  occ. eigenvalues --  -78.29889 -10.97200  -7.11996  -5.23810  -5.22812
  Beta  occ. eigenvalues --   -5.22097  -0.98976  -0.79133  -0.64788  -0.43269
  Beta virt. eigenvalues --   -0.37029  -0.34394  -0.31591  -0.27754  -0.13458
  Beta virt. eigenvalues --   -0.10692  -0.08013  -0.07937  -0.06560  -0.04982
  Beta virt. eigenvalues --   -0.04485  -0.02736  -0.00042   0.15402   0.16164

 Mulliken charges and spin densities:
               1          2
     1  C    0.299089   0.047875
     2  P    0.467582   0.954084
     3  H    0.233329  -0.001959
 Sum of Mulliken charges =   1.00000   1.00000

 Dipole moment (field-independent basis, Debye):
    X=             -2.7569    Y=              0.0000    Z=             -0.0000  Tot=              2.7569
 Quadrupole moment (field-independent basis, Debye-Ang):
   XX=             21.4893   YY=            -18.9141   ZZ=            -17.7688
   XY=              0.0000   XZ=             -0.0000   YZ=              1.4771

 Normal termination of Gaussian 16 at Mon Apr 21 19:29:17 2025.
