 Gaussian 16, Revision A.03,
 Gaussian 16:  ES64L-G16RevA.03 25-Dec-2016

 --------------------------------------------
 #p opt UM062X/6-311+G** nosymm int=superfine
 --------------------------------------------

 -------------------
 Title Card Required
 -------------------
 Symbolic Z-matrix:
 Charge =  1 Multiplicity = 2

 SCF Done:  E(UM062X) =  -379.323077214     A.U. after   26 cycles
 SCF Done:  E(UM062X) =  -379.323494091     A.U. after   56 cycles
 Optimization completed.
    -- Stationary point found.

                          Input orientation:
 ---------------------------------------------------------------------
 Center     Atomic      Atomic             Coordinates (Angstroms)
 Number     Number       Type             X           Y           Z
 ---------------------------------------------------------------------
      1          6           0       -1.469427    0.000000    0.000000
      2         15           0        1.469427    0.000000    0.000000
      3          1           0       -2.579904    0.000000    0.000000
 ---------------------------------------------------------------------

 Alpha  occ. eigenvalues --  -78.38300 -10.94894  -7.19713  -5.31595  -5.31351
 Alpha  occ. eigenvalues --   -5.29956  -0.99487  -0.88440  -0.66128  -0.51470
 Alpha  occ. eigenvalues --   -0.49408
 Alpha virt. eigenvalues --   -0.40177  -0.37783  -0.35801  -0.12752  -0.10392
 Alpha virt. eigenvalues --   -0.08631  -0.08293  -0.07230  -0.05250  -0.05116
 Alpha virt. eigenvalues --   -0.00853   0.02463   0.14583   0.14587   0.14812

  Beta  occ. eigenvalues --  -78.38190 -10.94391  -7.19739  -5.31369  -5.30698
  Beta  occ. eigenvalues --   -5.30569  -0.95633  -0.87105  -0.63998  -0.51696
  Beta virt. eigenvalues --   -0.35404  -0.35107  -0.31212  -0.30195  -0.14122
  Beta virt. eigenvalues --   -0.10799  -0.08580  -0.08518  -0.07746  -0.05013
  Beta virt. eigenvalues --   -0.04722  -0.02811   0.04543   0.12276   0.13840

 Mulliken charges and spin densities:
               1          2
     1  C    0.041466   0.802316
     2  P    0.682534   0.222184
     3  H    0.276000  -0.024500
 Sum of Mulliken charges =   1.00000   1.00000

 Dipole moment (field-independent basis, Debye):
    X=              0.1125    Y=              0.0000    Z=              0.0000  Tot=              0.1125
 Quadrupole moment (field-independent basis, Debye-Ang):
   XX=              3.9164   YY=            -18.7772   ZZ=            -17.2067
   XY=             -0.0000   XZ=             -0.0000   YZ=              1.5443

 Normal termination of Gaussian 16 at Mon Apr 21 19:25:51 2025.
