 Gaussian 16, Revision A.03,
 Gaussian 16:  ES64L-G16RevA.03 25-Dec-2016

 --------------------------------------------
 #p opt UM062X/6-311+G** nosymm int=superfine
 --------------------------------------------

 -------------------
 Title Card Required
 -------------------
 Symbolic Z-matrix:
 Charge =  0 Multiplicity = 1

 SCF Done:  E(UM062X) =  -380.943080828     A.U. after   21 cycles
 SCF Done:  E(UM062X) =  -380.945270566     A.U. after   15 cycles
 SCF Done:  E(UM062X) =  -380.946395491     A.U. after   15 cycles
 SCF Done:  E(UM062X) =  -380.946530189     A.U. after   16 cycles
 SCF Done:  E(UM062X) =  -380.946483857     A.U. after   18 cycles
 SCF Done:  E(UM062X) =  -380.946695879     A.U. after   15 cycles
 SCF Done:  E(UM062X) =  -380.946702554     A.U. after   16 cycles
 SCF Done:  E(UM062X) =  -380.946704381     A.U. after   13 cycles
 SCF Done:  E(UM062X) =  -380.946709728     A.U. after   15 cycles
 SCF Done:  E(UM062X) =  -380.946714437     A.U. after   14 cycles
 SCF Done:  E(UM062X) =  -380.946715948     A.U. after   16 cycles
 SCF Done:  E(UM062X) =  -380.946716158     A.U. after   15 cycles
 Optimization completed.
    -- Stationary point found.

                          Input orientation:
 ---------------------------------------------------------------------
 Center     Atomic      Atomic             Coordinates (Angstroms)
 Number     Number       Type             X           Y           Z
 ---------------------------------------------------------------------
      1          6           0       -1.680452    0.000000    0.000000
      2         15           0        1.680452    0.000000    0.000000
      3          1           0       -2.367274   -0.862882    0.000440
      4          1           0        1.440629   -1.400758    0.000242
      5          1           0       -2.327407    0.892921   -0.000552
 ---------------------------------------------------------------------

 Alpha  occ. eigenvalues --  -78.03942 -10.64006  -6.86136  -4.98107  -4.97377
 Alpha  occ. eigenvalues --   -4.96954  -0.78027  -0.64829  -0.50747  -0.37591
 Alpha  occ. eigenvalues --   -0.34181  -0.23714
 Alpha virt. eigenvalues --   -0.10547  -0.09728   0.01200   0.04159   0.04766
 Alpha virt. eigenvalues --    0.06273   0.06932   0.07426   0.08822   0.11422
 Alpha virt. eigenvalues --    0.13591   0.17054   0.18386   0.31172   0.34316

  Beta  occ. eigenvalues --  -78.03942 -10.64006  -6.86136  -4.98107  -4.97377
  Beta  occ. eigenvalues --   -4.96954  -0.78027  -0.64829  -0.50747  -0.37591
  Beta  occ. eigenvalues --   -0.34181  -0.23714
  Beta virt. eigenvalues --   -0.10547  -0.09728   0.01200   0.04159   0.04766
  Beta virt. eigenvalues --    0.06273   0.06932   0.07426   0.08822   0.11422
  Beta virt. eigenvalues --    0.13591   0.17054   0.18386   0.31172   0.34316

 Mulliken charges and spin densities:
               1          2
     1  C   -0.314395  -0.000000
     2  P    0.034605   0.000000
     3  H    0.156071  -0.000000
     4  H   -0.032598   0.000000
     5  H    0.156316  -0.000000
 Sum of Mulliken charges =   0.00000   0.00000

 Dipole moment (field-independent basis, Debye):
    X=             -2.8928    Y=             -0.5957    Z=             -0.0000  Tot=              2.9535
 Quadrupole moment (field-independent basis, Debye-Ang):
   XX=            -13.9463   YY=            -21.3148   ZZ=            -25.5432
   XY=             -1.6812   XZ=              0.0002   YZ=             -0.0006

 Normal termination of Gaussian 16 at Mon Apr 21 19:14:14 2025.
