 Gaussian 16, Revision A.03,
 Gaussian 16:  ES64L-G16RevA.03 25-Dec-2016

 --------------------------------------------
 #p opt UM062X/6-311+G** nosymm int=superfine
 --------------------------------------------

 -------------------
 Title Card Required
 -------------------
 Symbolic Z-matrix:
 Charge =  0 Multiplicity = 1

 SCF Done:  E(UM062X) =  -74.9047967970     A.U. after   13 cycles
 SCF Done:  E(UM062X) =  -74.9353808882     A.U. after   10 cycles
 SCF Done:  E(UM062X) =  -74.9835677063     A.U. after   10 cycles
 SCF Done:  E(UM062X) =  -75.0613816026     A.U. after   11 cycles
 SCF Done:  E(UM062X) =  -75.2168558009     A.U. after   11 cycles
 SCF Done:  E(UM062X) =  -75.2883142807     A.U. after   12 cycles
 SCF Done:  E(UM062X) =  -75.3224210778     A.U. after   10 cycles
 SCF Done:  E(UM062X) =  -75.3611420176     A.U. after   11 cycles
 SCF Done:  E(UM062X) =  -75.3650745116     A.U. after   10 cycles
 SCF Done:  E(UM062X) =  -75.3651659833     A.U. after    8 cycles
 SCF Done:  E(UM062X) =  -75.3651708968     A.U. after    8 cycles
 Optimization completed.
    -- Stationary point found.

                          Input orientation:
 ---------------------------------------------------------------------
 Center     Atomic      Atomic             Coordinates (Angstroms)
 Number     Number       Type             X           Y           Z
 ---------------------------------------------------------------------
      1          6           0       -0.298292    0.000000    0.000000
      2          6           0        0.298292    0.000000    0.000000
      3          1           0       -1.194896   -0.761924    0.000017
      4          1           0       -1.199799    0.744647    0.000010
      5          1           0        1.194896    0.761924   -0.000013
      6          1           0        1.199799   -0.744647   -0.000006
 ---------------------------------------------------------------------

 Alpha  occ. eigenvalues --  -11.02576 -10.57005  -0.86975  -0.73480  -0.68190
 Alpha  occ. eigenvalues --   -0.60656  -0.42658  -0.22719
 Alpha virt. eigenvalues --   -0.00115   0.02276   0.03739   0.04631   0.08064
 Alpha virt. eigenvalues --    0.09808   0.10166   0.11339   0.15718   0.18671
 Alpha virt. eigenvalues --    0.23221   0.28046   0.38362   0.42794   0.43135

  Beta  occ. eigenvalues --  -11.02576 -10.57005  -0.86975  -0.73480  -0.68190
  Beta  occ. eigenvalues --   -0.60656  -0.42658  -0.22719
  Beta virt. eigenvalues --   -0.00115   0.02276   0.03739   0.04631   0.08064
  Beta virt. eigenvalues --    0.09808   0.10166   0.11339   0.15718   0.18671
  Beta virt. eigenvalues --    0.23221   0.28046   0.38362   0.42794   0.43135

 Mulliken charges and spin densities:
               1          2
     1  C   -0.253580   0.000000
     2  C   -0.253580  -0.000000
     3  H    0.124093  -0.000000
     4  H    0.129487  -0.000000
     5  H    0.124093  -0.000000
     6  H    0.129487  -0.000000
 Sum of Mulliken charges =  -0.00000   0.00000

 Dipole moment (field-independent basis, Debye):
    X=             -0.0000    Y=             -0.0000    Z=              0.0000  Tot=              0.0000
 Quadrupole moment (field-independent basis, Debye-Ang):
   XX=            -13.5373   YY=            -13.6659   ZZ=            -12.5613
   XY=             -0.0846   XZ=             -0.0000   YZ=              0.0000

 Normal termination of Gaussian 16 at Tue Nov 19 10:01:56 2024.
