 Gaussian 16, Revision A.03,
 Gaussian 16:  ES64L-G16RevA.03 25-Dec-2016

 ---------------------------------------
 #p UM062X/6-311+G** force int=superfine
 ---------------------------------------

 -------------------
 Title Card Required
 -------------------
 Symbolic Z-matrix:
 Charge =  0 Multiplicity = 1

                         Standard orientation:
 ---------------------------------------------------------------------
 Center     Atomic      Atomic             Coordinates (Angstroms)
 Number     Number       Type             X           Y           Z
 ---------------------------------------------------------------------
      1          6           0        0.733042    0.000002   -0.000001
      2          6           0       -0.733042   -0.000002    0.000001
      3          1           0       -1.142008   -0.920271    0.425192
      4          1           0        1.142000   -0.091903    1.009577
      5          1           0       -1.142001    0.091905   -1.009576
      6          1           0       -1.142015    0.828369    0.584372
      7          1           0        1.142008    0.920271   -0.425191
      8          1           0        1.142016   -0.828369   -0.584371
 ---------------------------------------------------------------------

 SCF Done:  E(UM062X) =  -79.7950166283     A.U. after    8 cycles

 The electronic state is 1-A.
 Alpha  occ. eigenvalues --  -10.51778 -10.51729  -0.86075  -0.69674  -0.50724
 Alpha  occ. eigenvalues --   -0.50724  -0.44087  -0.39597  -0.39596
 Alpha virt. eigenvalues --    0.02169   0.04140   0.05413   0.05413   0.08809
 Alpha virt. eigenvalues --    0.08809   0.08867   0.14006   0.18878   0.18878
 Alpha virt. eigenvalues --    0.20852   0.20853   0.24120   0.27688   0.30997

  Beta  occ. eigenvalues --  -10.51778 -10.51729  -0.86075  -0.69674  -0.50724
  Beta  occ. eigenvalues --   -0.50724  -0.44087  -0.39597  -0.39596
  Beta virt. eigenvalues --    0.02169   0.04140   0.05413   0.05413   0.08809
  Beta virt. eigenvalues --    0.08809   0.08867   0.14006   0.18878   0.18878
  Beta virt. eigenvalues --    0.20852   0.20853   0.24120   0.27688   0.30997

 Mulliken charges and spin densities:
               1          2
     1  C   -0.464096   0.000000
     2  C   -0.464097  -0.000000
     3  H    0.154699   0.000000
     4  H    0.154698  -0.000000
     5  H    0.154698   0.000000
     6  H    0.154699   0.000000
     7  H    0.154699  -0.000000
     8  H    0.154699  -0.000000
 Sum of Mulliken charges =  -0.00000  -0.00000

 Dipole moment (field-independent basis, Debye):
    X=              0.0000    Y=              0.0000    Z=              0.0000  Tot=              0.0000
 Quadrupole moment (field-independent basis, Debye-Ang):
   XX=            -15.6318   YY=            -14.9684   ZZ=            -14.9685
   XY=             -0.0000   XZ=             -0.0000   YZ=             -0.0000

 Normal termination of Gaussian 16 at Tue Nov 19 12:42:42 2024.
