 Gaussian 16, Revision A.03,
 Gaussian 16:  ES64L-G16RevA.03 25-Dec-2016

 --------------------------------------------
 #p opt UM062X/6-311+G** nosymm int=superfine
 --------------------------------------------

 -------------------
 Title Card Required
 -------------------
 Symbolic Z-matrix:
 Charge =  1 Multiplicity = 2

 SCF Done:  E(UM062X) =  -79.3469377205     A.U. after   10 cycles
 SCF Done:  E(UM062X) =  -79.3469452699     A.U. after    8 cycles
 Optimization completed.
    -- Stationary point found.

                          Input orientation:
 ---------------------------------------------------------------------
 Center     Atomic      Atomic             Coordinates (Angstroms)
 Number     Number       Type             X           Y           Z
 ---------------------------------------------------------------------
      1          6           0       -1.398139    0.000000    0.000000
      2          6           0        1.398139    0.000000    0.000000
      3          1           0        1.460142   -0.936667    0.542107
      4          1           0       -1.459012   -0.937782   -0.540303
      5          1           0        1.459675    0.937868    0.540080
      6          1           0        1.459032   -0.001148   -1.082292
      7          1           0       -1.460175    0.936749   -0.541963
      8          1           0       -1.459655    0.000923    1.082257
 ---------------------------------------------------------------------

 Alpha  occ. eigenvalues --  -10.85359 -10.85355  -1.04994  -1.02637  -0.75386
 Alpha  occ. eigenvalues --   -0.75386  -0.74189  -0.74189  -0.54508
 Alpha virt. eigenvalues --   -0.34018  -0.14592  -0.10428  -0.10428  -0.10079
 Alpha virt. eigenvalues --   -0.06208  -0.06208  -0.05776  -0.03111  -0.02942
 Alpha virt. eigenvalues --   -0.02940   0.01462   0.01464   0.05379   0.07495

  Beta  occ. eigenvalues --  -10.85163 -10.85163  -1.01932  -1.00251  -0.74765
  Beta  occ. eigenvalues --   -0.74764  -0.73674  -0.73673
  Beta virt. eigenvalues --   -0.33103  -0.24588  -0.15477  -0.11120  -0.11120
  Beta virt. eigenvalues --   -0.09778  -0.06508  -0.06508  -0.05794  -0.03026
  Beta virt. eigenvalues --   -0.03023  -0.02313   0.01811   0.01813   0.06079

 Mulliken charges and spin densities:
               1          2
     1  C   -0.276902   0.572444
     2  C   -0.276903   0.572445
     3  H    0.258986  -0.024156
     4  H    0.258938  -0.024150
     5  H    0.258965  -0.024154
     6  H    0.258952  -0.024134
     7  H    0.258987  -0.024157
     8  H    0.258977  -0.024138
 Sum of Mulliken charges =   1.00000   1.00000

 Dipole moment (field-independent basis, Debye):
    X=             -0.0000    Y=             -0.0000    Z=             -0.0001  Tot=              0.0001
 Quadrupole moment (field-independent basis, Debye-Ang):
   XX=             -1.8230   YY=            -10.9909   ZZ=            -10.9909
   XY=             -0.0013   XZ=              0.0007   YZ=             -0.0001

 Normal termination of Gaussian 16 at Wed Nov 13 12:45:03 2024.
