 Gaussian 16, Revision A.03,
 Gaussian 16:  ES64L-G16RevA.03 25-Dec-2016

 ---------------------------------------
 #p UM062X/6-311+G** force int=superfine
 ---------------------------------------

 -------------------
 Title Card Required
 -------------------
 Symbolic Z-matrix:
 Charge =  0 Multiplicity = 1

                         Standard orientation:
 ---------------------------------------------------------------------
 Center     Atomic      Atomic             Coordinates (Angstroms)
 Number     Number       Type             X           Y           Z
 ---------------------------------------------------------------------
      1          6           0        0.458151    0.000017   -0.000000
      2          6           0       -0.458152   -0.000017   -0.000001
      3          1           0       -1.024041   -0.972099   -0.007605
      4          1           0        1.024074   -0.492642    0.838039
      5          1           0       -1.024073    0.492645   -0.838037
      6          1           0       -1.024080    0.479467    0.845642
      7          1           0        1.024041    0.972099    0.007610
      8          1           0        1.024080   -0.479469   -0.845641
 ---------------------------------------------------------------------

 SCF Done:  E(UM062X) =  -79.1528971687     A.U. after   10 cycles

 The electronic state is 1-A.
 Alpha  occ. eigenvalues --  -10.51730 -10.49007  -1.00473  -0.66406  -0.60291
 Alpha  occ. eigenvalues --   -0.60290  -0.55713  -0.30755  -0.30753
 Alpha virt. eigenvalues --    0.01800   0.03618   0.03618   0.04053   0.08509
 Alpha virt. eigenvalues --    0.09089   0.09089   0.14248   0.16085   0.16086
 Alpha virt. eigenvalues --    0.21286   0.21287   0.23472   0.27182   0.41759

  Beta  occ. eigenvalues --  -10.51730 -10.49007  -1.00473  -0.66406  -0.60291
  Beta  occ. eigenvalues --   -0.60290  -0.55713  -0.30755  -0.30753
  Beta virt. eigenvalues --    0.01800   0.03618   0.03618   0.04053   0.08509
  Beta virt. eigenvalues --    0.09089   0.09089   0.14248   0.16085   0.16086
  Beta virt. eigenvalues --    0.21286   0.21287   0.23472   0.27182   0.41759

 Mulliken charges and spin densities:
               1          2
     1  C   -0.398444   0.000000
     2  C   -0.398444  -0.000000
     3  H    0.132820   0.000000
     4  H    0.132812  -0.000000
     5  H    0.132812   0.000000
     6  H    0.132812   0.000000
     7  H    0.132820  -0.000000
     8  H    0.132812  -0.000000
 Sum of Mulliken charges =  -0.00000  -0.00000

 Dipole moment (field-independent basis, Debye):
    X=             -0.0000    Y=              0.0000    Z=              0.0000  Tot=              0.0000
 Quadrupole moment (field-independent basis, Debye-Ang):
   XX=            -15.7732   YY=            -14.9793   ZZ=            -14.9797
   XY=              0.0001   XZ=             -0.0000   YZ=             -0.0000

 Normal termination of Gaussian 16 at Tue Nov 19 12:33:57 2024.
