 Gaussian 16, Revision A.03,
 Gaussian 16:  ES64L-G16RevA.03 25-Dec-2016

 ---------------------------------------------------
 #p UM062X/6-311+G** force int=superfine pop=saveNBO
 ---------------------------------------------------

 -------------------
 Title Card Required
 -------------------
 Symbolic Z-matrix:
 Charge =  0 Multiplicity = 1

                         Standard orientation:
 ---------------------------------------------------------------------
 Center     Atomic      Atomic             Coordinates (Angstroms)
 Number     Number       Type             X           Y           Z
 ---------------------------------------------------------------------
      1         15           0        0.000000    0.000000    2.038495
      2         15           0        0.000000    0.000000   -2.038495
 ---------------------------------------------------------------------

 SCF Done:  E(UM062X) =  -682.281857077     A.U. after    9 cycles

 The electronic state is 1-SGG.
 Alpha  occ. eigenvalues --  -78.11975 -78.11975  -6.93622  -6.93622  -5.04918
 Alpha  occ. eigenvalues --   -5.04918  -5.04906  -5.04906  -5.04906  -5.04906
 Alpha  occ. eigenvalues --   -0.64308  -0.63204  -0.26779  -0.25036  -0.25036
 Alpha virt. eigenvalues --   -0.17638  -0.17638  -0.15733   0.02325   0.03347
 Alpha virt. eigenvalues --    0.04443   0.04443   0.06354   0.06354   0.06428
 Alpha virt. eigenvalues --    0.10428   0.29767   0.29767   0.30041   0.32231

  Beta  occ. eigenvalues --  -78.11975 -78.11975  -6.93622  -6.93622  -5.04918
  Beta  occ. eigenvalues --   -5.04918  -5.04906  -5.04906  -5.04906  -5.04906
  Beta  occ. eigenvalues --   -0.64308  -0.63204  -0.26779  -0.25036  -0.25036
  Beta virt. eigenvalues --   -0.17638  -0.17638  -0.15733   0.02325   0.03347
  Beta virt. eigenvalues --    0.04443   0.04443   0.06354   0.06354   0.06428
  Beta virt. eigenvalues --    0.10428   0.29767   0.29767   0.30041   0.32231

 Mulliken charges and spin densities:
               1          2
     1  P    0.000000  -0.000000
     2  P    0.000000  -0.000000
 Sum of Mulliken charges =   0.00000  -0.00000

 Dipole moment (field-independent basis, Debye):
    X=              0.0000    Y=              0.0000    Z=              0.0000  Tot=              0.0000
 Quadrupole moment (field-independent basis, Debye-Ang):
   XX=            -29.4325   YY=            -29.4325   ZZ=            -24.3394
   XY=              0.0000   XZ=             -0.0000   YZ=              0.0000

 Summary of Natural Population Analysis:

                                       Natural Population
                Natural  -----------------------------------------------
    Atom  No    Charge         Core      Valence    Rydberg      Total
 -----------------------------------------------------------------------
      P    1    0.00000      5.00000     2.49942    0.00058     7.50000
      P    2   -0.00000      5.00000     2.49942    0.00058     7.50000
 =======================================================================
   * Total *    0.00000     10.00000     4.99884    0.00116    15.00000

 Normal termination of Gaussian 16 at Mon Apr 21 21:21:49 2025.
