 Gaussian 16, Revision A.03,
 Gaussian 16:  ES64L-G16RevA.03 25-Dec-2016

 --------------------------------------------
 #p opt UM062X/6-311+G** nosymm int=superfine
 --------------------------------------------

 -------------------
 Title Card Required
 -------------------
 Symbolic Z-matrix:
 Charge = -1 Multiplicity = 1

 SCF Done:  E(UM062X) =  -25.9190077854     A.U. after   11 cycles
 SCF Done:  E(UM062X) =  -25.9200213716     A.U. after    9 cycles
 SCF Done:  E(UM062X) =  -25.9203022307     A.U. after   10 cycles
 SCF Done:  E(UM062X) =  -25.9203033122     A.U. after    9 cycles
 Optimization completed.
    -- Stationary point found.

                          Input orientation:
 ---------------------------------------------------------------------
 Center     Atomic      Atomic             Coordinates (Angstroms)
 Number     Number       Type             X           Y           Z
 ---------------------------------------------------------------------
      1          5           0       -0.762467    0.000000    0.000000
      2          1           0       -1.522747   -0.976730   -0.000000
      3          1           0       -1.522750    0.976729   -0.000005
 ---------------------------------------------------------------------

 Alpha  occ. eigenvalues --   -6.81615  -0.32081  -0.15111   0.02283
 Alpha virt. eigenvalues --    0.15710   0.17520   0.19107   0.22417   0.24714
 Alpha virt. eigenvalues --    0.36122   0.37456   0.54854   0.57399   0.63941
 Alpha virt. eigenvalues --    0.68516   0.75143   0.81436   1.06121   1.06824

  Beta  occ. eigenvalues --   -6.81615  -0.32081  -0.15111   0.02283
  Beta virt. eigenvalues --    0.15710   0.17520   0.19107   0.22417   0.24714
  Beta virt. eigenvalues --    0.36122   0.37456   0.54854   0.57399   0.63941
  Beta virt. eigenvalues --    0.68516   0.75143   0.81436   1.06121   1.06824

 Mulliken charges and spin densities:
               1          2
     1  B   -0.761882   0.000000
     2  H   -0.119059  -0.000000
     3  H   -0.119059  -0.000000
 Sum of Mulliken charges =  -1.00000   0.00000

 Dipole moment (field-independent basis, Debye):
    X=              0.7069    Y=             -0.0000    Z=             -0.0000  Tot=              0.7069
 Quadrupole moment (field-independent basis, Debye-Ang):
   XX=            -20.7528   YY=            -16.1345   ZZ=            -12.6847
   XY=             -0.0000   XZ=             -0.0000   YZ=              0.0000

 Normal termination of Gaussian 16 at Wed Apr 16 06:51:46 2025.
