 Gaussian 16, Revision A.03,
 Gaussian 16:  ES64L-G16RevA.03 25-Dec-2016

 --------------------------------------------
 #p opt UM062X/6-311+G** nosymm int=superfine
 --------------------------------------------

 -------------------
 Title Card Required
 -------------------
 Symbolic Z-matrix:
 Charge =  0 Multiplicity = 1

 SCF Done:  E(UM062X) =  -76.8579151911     A.U. after   15 cycles
 SCF Done:  E(UM062X) =  -76.8582887637     A.U. after   14 cycles
 SCF Done:  E(UM062X) =  -76.8592394156     A.U. after   21 cycles
 SCF Done:  E(UM062X) =  -76.8598063176     A.U. after   16 cycles
 SCF Done:  E(UM062X) =  -76.8598729641     A.U. after   15 cycles
 SCF Done:  E(UM062X) =  -76.8598932098     A.U. after   22 cycles
 SCF Done:  E(UM062X) =  -76.8598934732     A.U. after   14 cycles
 SCF Done:  E(UM062X) =  -76.8598935305     A.U. after   14 cycles
 Optimization completed.
    -- Stationary point found.

                          Input orientation:
 ---------------------------------------------------------------------
 Center     Atomic      Atomic             Coordinates (Angstroms)
 Number     Number       Type             X           Y           Z
 ---------------------------------------------------------------------
      1          6           0       -2.057625    0.000000    0.000000
      2          6           0        2.057625    0.000000    0.000000
      3          1           0       -1.865303   -0.651502    0.888870
      4          1           0        1.865500    0.651246   -0.889101
 ---------------------------------------------------------------------

 Alpha  occ. eigenvalues --  -10.67642 -10.67641  -0.73008  -0.72714  -0.39179
 Alpha  occ. eigenvalues --   -0.39059  -0.22982
 Alpha virt. eigenvalues --   -0.13771  -0.10323  -0.09796   0.03124   0.04428
 Alpha virt. eigenvalues --    0.07220   0.07231   0.09151   0.09554   0.10627
 Alpha virt. eigenvalues --    0.13736   0.18034   0.19047   0.45372   0.45714

  Beta  occ. eigenvalues --  -10.67642 -10.67641  -0.73008  -0.72714  -0.39179
  Beta  occ. eigenvalues --   -0.39059  -0.22982
  Beta virt. eigenvalues --   -0.13771  -0.10323  -0.09796   0.03124   0.04428
  Beta virt. eigenvalues --    0.07220   0.07231   0.09151   0.09554   0.10627
  Beta virt. eigenvalues --    0.13736   0.18034   0.19047   0.45372   0.45714

 Mulliken charges and spin densities:
               1          2
     1  C   -0.140565   0.000000
     2  C   -0.140587  -0.000000
     3  H    0.140577  -0.000000
     4  H    0.140575   0.000000
 Sum of Mulliken charges =  -0.00000  -0.00000

 Dipole moment (field-independent basis, Debye):
    X=              0.0002    Y=             -0.0004    Z=             -0.0003  Tot=              0.0005
 Quadrupole moment (field-independent basis, Debye-Ang):
   XX=            -17.3956   YY=            -13.0245   ZZ=            -13.8480
   XY=              3.9402   XZ=             -5.3780   YZ=              1.3031

 Normal termination of Gaussian 16 at Wed Dec  4 00:17:59 2024.
