 Gaussian 16, Revision A.03,
 Gaussian 16:  ES64L-G16RevA.03 25-Dec-2016

 ---------------------------------------------------
 #p UM062X/6-311+G** force int=superfine pop=saveNBO
 ---------------------------------------------------

 -------------------
 Title Card Required
 -------------------
 Symbolic Z-matrix:
 Charge =  0 Multiplicity = 1

                         Standard orientation:
 ---------------------------------------------------------------------
 Center     Atomic      Atomic             Coordinates (Angstroms)
 Number     Number       Type             X           Y           Z
 ---------------------------------------------------------------------
      1          8           0        0.000000    0.000000    0.743562
      2          8           0        0.000000    0.000000   -0.743562
 ---------------------------------------------------------------------

 SCF Done:  E(UM062X) =  -150.168154939     A.U. after    9 cycles

 Unable to determine electronic state:  partially filled degenerate orbitals.
 Alpha  occ. eigenvalues --  -19.82197 -19.82172  -1.26199  -1.00063  -0.57736
 Alpha  occ. eigenvalues --   -0.55736  -0.51642  -0.42021
 Alpha virt. eigenvalues --   -0.20409  -0.00730   0.10542   0.14846   0.14917
 Alpha virt. eigenvalues --    0.15495   0.20897   0.21242   0.21601   0.34407
 Alpha virt. eigenvalues --    0.97535   0.98334   0.99046   1.06455   1.07095

  Beta  occ. eigenvalues --  -19.82197 -19.82172  -1.26199  -1.00063  -0.57736
  Beta  occ. eigenvalues --   -0.55736  -0.51642  -0.42021
  Beta virt. eigenvalues --   -0.20409  -0.00730   0.10542   0.14846   0.14917
  Beta virt. eigenvalues --    0.15495   0.20897   0.21242   0.21601   0.34407
  Beta virt. eigenvalues --    0.97535   0.98334   0.99046   1.06455   1.07095

 Mulliken charges and spin densities:
               1          2
     1  O   -0.000000  -0.000000
     2  O   -0.000000  -0.000000
 Sum of Mulliken charges =  -0.00000  -0.00000

 Dipole moment (field-independent basis, Debye):
    X=             -0.0000    Y=              0.0000    Z=              0.0000  Tot=              0.0000
 Quadrupole moment (field-independent basis, Debye-Ang):
   XX=             -9.7206   YY=            -11.4724   ZZ=            -10.3409
   XY=              0.0000   XZ=              0.0000   YZ=              0.0000

 Summary of Natural Population Analysis:

                                       Natural Population
                Natural  -----------------------------------------------
    Atom  No    Charge         Core      Valence    Rydberg      Total
 -----------------------------------------------------------------------
      O    1   -0.00000      0.99999     2.99402    0.00599     4.00000
      O    2   -0.00000      0.99999     2.99402    0.00599     4.00000
 =======================================================================
   * Total *   -0.00000      1.99998     5.98804    0.01198     8.00000

 Normal termination of Gaussian 16 at Mon Apr 21 19:53:01 2025.
