 Gaussian 16, Revision A.03,
 Gaussian 16:  ES64L-G16RevA.03 25-Dec-2016

 --------------------------------------------
 #p opt UM062X/6-311+G** nosymm int=superfine
 --------------------------------------------

 -------------------
 Title Card Required
 -------------------
 Symbolic Z-matrix:
 Charge =  0 Multiplicity = 1

 SCF Done:  E(UM062X) =  -79.7668719710     A.U. after    8 cycles
 SCF Done:  E(UM062X) =  -79.7763294628     A.U. after    8 cycles
 SCF Done:  E(UM062X) =  -79.7774391390     A.U. after    8 cycles
 Optimization completed.
    -- Stationary point found.

                          Input orientation:
 ---------------------------------------------------------------------
 Center     Atomic      Atomic             Coordinates (Angstroms)
 Number     Number       Type             X           Y           Z
 ---------------------------------------------------------------------
      1          6           0       -0.885715    0.000000    0.000000
      2          6           0        0.885805    0.000000    0.000000
      3          1           0        1.227461   -0.893642    0.517092
      4          1           0       -1.227381   -0.894643   -0.515345
      5          1           0        1.227473    0.894644    0.515344
      6          1           0        1.227414   -0.001009   -1.032475
      7          1           0       -1.227370    0.893642   -0.517092
      8          1           0       -1.227326    0.001008    1.032475
 ---------------------------------------------------------------------

 Alpha  occ. eigenvalues --  -10.53508 -10.53491  -0.81229  -0.71364  -0.48989
 Alpha  occ. eigenvalues --   -0.48989  -0.42578  -0.42577  -0.37595
 Alpha virt. eigenvalues --    0.02244   0.03711   0.05620   0.05620   0.08636
 Alpha virt. eigenvalues --    0.08636   0.09185   0.13518   0.18395   0.18395
 Alpha virt. eigenvalues --    0.19064   0.21711   0.21712   0.24222   0.27571

  Beta  occ. eigenvalues --  -10.53508 -10.53491  -0.81229  -0.71364  -0.48989
  Beta  occ. eigenvalues --   -0.48989  -0.42578  -0.42577  -0.37595
  Beta virt. eigenvalues --    0.02244   0.03711   0.05620   0.05620   0.08636
  Beta virt. eigenvalues --    0.08636   0.09185   0.13518   0.18395   0.18395
  Beta virt. eigenvalues --    0.19064   0.21711   0.21712   0.24222   0.27571

 Mulliken charges and spin densities:
               1          2
     1  C   -0.486868  -0.000000
     2  C   -0.486868   0.000000
     3  H    0.162289   0.000000
     4  H    0.162290   0.000000
     5  H    0.162290   0.000000
     6  H    0.162289  -0.000000
     7  H    0.162289   0.000000
     8  H    0.162288  -0.000000
 Sum of Mulliken charges =  -0.00000  -0.00000

 Dipole moment (field-independent basis, Debye):
    X=             -0.0000    Y=             -0.0000    Z=             -0.0000  Tot=              0.0000
 Quadrupole moment (field-independent basis, Debye-Ang):
   XX=            -15.6127   YY=            -14.9354   ZZ=            -14.9354
   XY=              0.0000   XZ=              0.0001   YZ=             -0.0000

 Normal termination of Gaussian 16 at Tue Nov 19 11:59:16 2024.
