 Gaussian 16, Revision A.03,
 Gaussian 16:  ES64L-G16RevA.03 25-Dec-2016

 ---------------------------------------------------
 #p UM062X/6-311+G** force int=superfine pop=saveNBO
 ---------------------------------------------------

 -------------------
 Title Card Required
 -------------------
 Symbolic Z-matrix:
 Charge =  0 Multiplicity = 1

                         Standard orientation:
 ---------------------------------------------------------------------
 Center     Atomic      Atomic             Coordinates (Angstroms)
 Number     Number       Type             X           Y           Z
 ---------------------------------------------------------------------
      1          6           0        0.000000    0.000000   -1.926951
      2          8           0        0.000000    0.000000    1.445213
 ---------------------------------------------------------------------

 SCF Done:  E(UM062X) =  -112.644028035     A.U. after   25 cycles

 The electronic state is 1-SG.
 Alpha  occ. eigenvalues --  -19.68590 -10.86896  -0.97737  -0.74310  -0.33106
 Alpha  occ. eigenvalues --   -0.31704  -0.31704
 Alpha virt. eigenvalues --   -0.22890  -0.22890  -0.21363   0.01891   0.05602
 Alpha virt. eigenvalues --    0.05602   0.07125   0.19734   0.22067   0.22067
 Alpha virt. eigenvalues --    0.26623   0.49156   0.49156   0.50663   0.59439

  Beta  occ. eigenvalues --  -19.68590 -10.86896  -0.97737  -0.74310  -0.33106
  Beta  occ. eigenvalues --   -0.31704  -0.31704
  Beta virt. eigenvalues --   -0.22890  -0.22890  -0.21363   0.01891   0.05602
  Beta virt. eigenvalues --    0.05602   0.07125   0.19734   0.22067   0.22067
  Beta virt. eigenvalues --    0.26623   0.49156   0.49156   0.50663   0.59439

 Mulliken charges and spin densities:
               1          2
     1  C    0.362656  -0.000000
     2  O   -0.362656   0.000000
 Sum of Mulliken charges =  -0.00000   0.00000

 Dipole moment (field-independent basis, Debye):
    X=              0.0000    Y=              0.0000    Z=             -5.8502  Tot=              5.8502
 Quadrupole moment (field-independent basis, Debye-Ang):
   XX=            -12.1548   YY=            -12.1548   ZZ=             -7.9602
   XY=              0.0000   XZ=              0.0000   YZ=              0.0000

 Summary of Natural Population Analysis:

                                       Natural Population
                Natural  -----------------------------------------------
    Atom  No    Charge         Core      Valence    Rydberg      Total
 -----------------------------------------------------------------------
      C    1    0.21506      1.00000     1.78477    0.00018     2.78494
      O    2   -0.21506      1.00000     3.21495    0.00011     4.21506
 =======================================================================
   * Total *   -0.00000      2.00000     4.99971    0.00029     7.00000

 Normal termination of Gaussian 16 at Mon Apr 21 19:31:48 2025.
