 Gaussian 16, Revision A.03,
 Gaussian 16:  ES64L-G16RevA.03 25-Dec-2016

 --------------------------------------------
 #p opt UM062X/6-311+G** nosymm int=superfine
 --------------------------------------------

 -------------------
 Title Card Required
 -------------------
 Symbolic Z-matrix:
 Charge =  1 Multiplicity = 2

 SCF Done:  E(UM062X) =  -78.1721738342     A.U. after    9 cycles
 SCF Done:  E(UM062X) =  -78.1752232545     A.U. after    8 cycles
 SCF Done:  E(UM062X) =  -78.1754694737     A.U. after    7 cycles
 SCF Done:  E(UM062X) =  -78.1754741533     A.U. after    6 cycles
 Optimization completed.
    -- Stationary point found.

                          Input orientation:
 ---------------------------------------------------------------------
 Center     Atomic      Atomic             Coordinates (Angstroms)
 Number     Number       Type             X           Y           Z
 ---------------------------------------------------------------------
      1          6           0       -0.763443    0.000000    0.000000
      2          6           0        0.763443    0.000000    0.000000
      3          1           0       -1.297977   -0.944823   -0.000000
      4          1           0       -1.298023    0.944796   -0.000000
      5          1           0        1.297977    0.944823    0.000000
      6          1           0        1.298023   -0.944796    0.000000
 ---------------------------------------------------------------------

 Alpha  occ. eigenvalues --  -10.90365 -10.90315  -1.15229  -0.98266  -0.83548
 Alpha  occ. eigenvalues --   -0.77190  -0.74126  -0.64065
 Alpha virt. eigenvalues --   -0.31305  -0.14605  -0.13048  -0.11966  -0.09366
 Alpha virt. eigenvalues --   -0.07643  -0.07038  -0.04709  -0.04552  -0.02169
 Alpha virt. eigenvalues --   -0.01156  -0.00497   0.04178   0.10361   0.19661

  Beta  occ. eigenvalues --  -10.90139 -10.90101  -1.11490  -0.96285  -0.82582
  Beta  occ. eigenvalues --   -0.76177  -0.73788
  Beta virt. eigenvalues --   -0.40441  -0.23826  -0.16338  -0.12841  -0.12210
  Beta virt. eigenvalues --   -0.09709  -0.08450  -0.07092  -0.04719  -0.03881
  Beta virt. eigenvalues --   -0.01622  -0.01488   0.01044   0.04796   0.10834

 Mulliken charges and spin densities:
               1          2
     1  C   -0.056243   0.538445
     2  C   -0.056243   0.538445
     3  H    0.278120  -0.019223
     4  H    0.278124  -0.019222
     5  H    0.278120  -0.019223
     6  H    0.278124  -0.019222
 Sum of Mulliken charges =   1.00000   1.00000

 Dipole moment (field-independent basis, Debye):
    X=              0.0000    Y=              0.0000    Z=             -0.0000  Tot=              0.0000
 Quadrupole moment (field-independent basis, Debye-Ang):
   XX=             -5.0178   YY=             -8.4208   ZZ=            -11.7297
   XY=             -0.0001   XZ=              0.0000   YZ=              0.0000

 Normal termination of Gaussian 16 at Tue Nov 19 11:03:20 2024.
