 Gaussian 16, Revision A.03,
 Gaussian 16:  ES64L-G16RevA.03 25-Dec-2016

 --------------------------------------------
 #p opt UM062X/6-311+G** nosymm int=superfine
 --------------------------------------------

 -------------------
 Title Card Required
 -------------------
 Symbolic Z-matrix:
 Charge =  1 Multiplicity = 2

 SCF Done:  E(UM062X) =  -80.1658257154     A.U. after   20 cycles
 SCF Done:  E(UM062X) =  -80.1666108116     A.U. after   10 cycles
 SCF Done:  E(UM062X) =  -80.1666132820     A.U. after   10 cycles
 Optimization completed.
    -- Stationary point found.

                          Input orientation:
 ---------------------------------------------------------------------
 Center     Atomic      Atomic             Coordinates (Angstroms)
 Number     Number       Type             X           Y           Z
 ---------------------------------------------------------------------
      1          5           0       -1.402734    0.000000    0.000000
      2          7           0        1.402734    0.000000    0.000000
      3          1           0       -2.605512   -0.000542   -0.000000
      4          1           0        2.439493   -0.000481    0.000000
 ---------------------------------------------------------------------

 Alpha  occ. eigenvalues --  -15.00080  -7.51595  -1.12710  -0.84635  -0.67261
 Alpha  occ. eigenvalues --   -0.59363  -0.59363
 Alpha virt. eigenvalues --   -0.38760  -0.32081  -0.32081  -0.14368  -0.10739
 Alpha virt. eigenvalues --   -0.09549  -0.09549  -0.07070  -0.00250  -0.00250
 Alpha virt. eigenvalues --   -0.00105   0.06001   0.08603   0.14859   0.14859

  Beta  occ. eigenvalues --  -14.97740  -7.52861  -1.00126  -0.88157  -0.68244
  Beta  occ. eigenvalues --   -0.59576
  Beta virt. eigenvalues --   -0.34811  -0.34811  -0.23731  -0.23731  -0.14116
  Beta virt. eigenvalues --   -0.10926  -0.09222  -0.09222  -0.07232  -0.00868
  Beta virt. eigenvalues --    0.01263   0.01263   0.04488   0.09727   0.16388

 Mulliken charges and spin densities:
               1          2
     1  B    0.704377  -0.816564
     2  N   -0.227164   2.038998
     3  H    0.213808  -0.140783
     4  H    0.308980  -0.081651
 Sum of Mulliken charges =   1.00000   1.00000

 Dipole moment (field-independent basis, Debye):
    X=             -4.5099    Y=             -0.0013    Z=             -0.0000  Tot=              4.5099
 Quadrupole moment (field-independent basis, Debye-Ang):
   XX=              8.7090   YY=            -10.2628   ZZ=            -10.2628
   XY=             -0.0011   XZ=              0.0000   YZ=             -0.0000

 Normal termination of Gaussian 16 at Mon Apr 21 17:57:50 2025.
