 Gaussian 16, Revision A.03,
 Gaussian 16:  ES64L-G16RevA.03 25-Dec-2016

 ---------------------------------------------------
 #p UM062X/6-311+G** force int=superfine pop=saveNBO
 ---------------------------------------------------

 -------------------
 Title Card Required
 -------------------
 Symbolic Z-matrix:
 Charge =  0 Multiplicity = 1

                         Standard orientation:
 ---------------------------------------------------------------------
 Center     Atomic      Atomic             Coordinates (Angstroms)
 Number     Number       Type             X           Y           Z
 ---------------------------------------------------------------------
      1          6           0        0.000000    0.000000   -0.812665
      2          8           0        0.000000    0.000000    0.609499
 ---------------------------------------------------------------------

 SCF Done:  E(UM062X) =  -113.193568941     A.U. after   10 cycles

 The electronic state is 1-SG.
 Alpha  occ. eigenvalues --  -19.73799 -10.75696  -1.14992  -0.67446  -0.46861
 Alpha  occ. eigenvalues --   -0.46861  -0.46478
 Alpha virt. eigenvalues --   -0.07616  -0.07616   0.03656   0.05240   0.06898
 Alpha virt. eigenvalues --    0.06898   0.19255   0.22477   0.22477   0.22914
 Alpha virt. eigenvalues --    0.31697   0.54747   0.54747   0.56256   0.77257

  Beta  occ. eigenvalues --  -19.73799 -10.75696  -1.14992  -0.67446  -0.46861
  Beta  occ. eigenvalues --   -0.46861  -0.46478
  Beta virt. eigenvalues --   -0.07616  -0.07616   0.03656   0.05240   0.06898
  Beta virt. eigenvalues --    0.06898   0.19255   0.22477   0.22477   0.22914
  Beta virt. eigenvalues --    0.31697   0.54747   0.54747   0.56256   0.77257

 Mulliken charges and spin densities:
               1          2
     1  C    0.189404   0.000000
     2  O   -0.189404   0.000000
 Sum of Mulliken charges =   0.00000   0.00000

 Dipole moment (field-independent basis, Debye):
    X=              0.0000    Y=              0.0000    Z=             -1.2812  Tot=              1.2812
 Quadrupole moment (field-independent basis, Debye-Ang):
   XX=            -10.8909   YY=            -10.8909   ZZ=            -12.1696
   XY=              0.0000   XZ=              0.0000   YZ=              0.0000

 Summary of Natural Population Analysis:

                                       Natural Population
                Natural  -----------------------------------------------
    Atom  No    Charge         Core      Valence    Rydberg      Total
 -----------------------------------------------------------------------
      C    1    0.30620      0.99996     1.67723    0.01661     2.69380
      O    2   -0.30620      0.99996     3.30100    0.00523     4.30620
 =======================================================================
   * Total *    0.00000      1.99992     4.97823    0.02185     7.00000

 Normal termination of Gaussian 16 at Mon Apr 21 19:30:29 2025.
