 Gaussian 16, Revision A.03,
 Gaussian 16:  ES64L-G16RevA.03 25-Dec-2016

 --------------------------------------------
 #p opt UM062X/6-311+G** nosymm int=superfine
 --------------------------------------------

 -------------------
 Title Card Required
 -------------------
 Symbolic Z-matrix:
 Charge =  0 Multiplicity = 1

 SCF Done:  E(UM062X) =  -95.5823871544     A.U. after   17 cycles
 SCF Done:  E(UM062X) =  -95.5977473823     A.U. after   13 cycles
 SCF Done:  E(UM062X) =  -95.6087365868     A.U. after   14 cycles
 SCF Done:  E(UM062X) =  -95.6092188841     A.U. after   13 cycles
 SCF Done:  E(UM062X) =  -95.6097068385     A.U. after   13 cycles
 SCF Done:  E(UM062X) =  -95.6099259277     A.U. after   13 cycles
 SCF Done:  E(UM062X) =  -95.6099786102     A.U. after   12 cycles
 SCF Done:  E(UM062X) =  -95.6099891204     A.U. after   12 cycles
 SCF Done:  E(UM062X) =  -95.6099903418     A.U. after    9 cycles
 SCF Done:  E(UM062X) =  -95.6099913932     A.U. after   11 cycles
 SCF Done:  E(UM062X) =  -95.6099929685     A.U. after    9 cycles
 SCF Done:  E(UM062X) =  -95.6099944005     A.U. after   11 cycles
 Optimization completed.
    -- Stationary point found.

                          Input orientation:
 ---------------------------------------------------------------------
 Center     Atomic      Atomic             Coordinates (Angstroms)
 Number     Number       Type             X           Y           Z
 ---------------------------------------------------------------------
      1          6           0       -1.880542    0.000000    0.000000
      2          7           0        1.880542    0.000000    0.000000
      3          1           0        1.825666   -1.015146    0.138267
      4          1           0       -1.864827    1.080228    0.010697
      5          1           0        1.826263    0.368092    0.956150
      6          1           0       -1.865412   -0.526414   -0.943351
      7          1           0       -2.004481   -0.548081    0.923075
 ---------------------------------------------------------------------

 Alpha  occ. eigenvalues --  -14.74812 -10.62116  -0.90167  -0.81008  -0.53192
 Alpha  occ. eigenvalues --   -0.53026  -0.50669  -0.35923  -0.24811
 Alpha virt. eigenvalues --   -0.14416   0.01750   0.04611   0.04949   0.07080
 Alpha virt. eigenvalues --    0.09926   0.13043   0.15862   0.16743   0.16832
 Alpha virt. eigenvalues --    0.18091   0.20510   0.22146   0.26880   0.41085

  Beta  occ. eigenvalues --  -14.74812 -10.62116  -0.90167  -0.81008  -0.53192
  Beta  occ. eigenvalues --   -0.53026  -0.50669  -0.35923  -0.24811
  Beta virt. eigenvalues --   -0.14416   0.01750   0.04611   0.04949   0.07080
  Beta virt. eigenvalues --    0.09926   0.13043   0.15862   0.16743   0.16832
  Beta virt. eigenvalues --    0.18091   0.20510   0.22146   0.26880   0.41085

 Mulliken charges and spin densities:
               1          2
     1  C   -0.430203  -0.000000
     2  N   -0.578575   0.000000
     3  H    0.209890  -0.000000
     4  H    0.199925   0.000000
     5  H    0.209894  -0.000000
     6  H    0.199926   0.000000
     7  H    0.189144   0.000000
 Sum of Mulliken charges =  -0.00000   0.00000

 Dipole moment (field-independent basis, Debye):
    X=             -3.4029    Y=             -1.0019    Z=              1.6947  Tot=              3.9314
 Quadrupole moment (field-independent basis, Debye-Ang):
   XX=            -15.7548   YY=            -13.4543   ZZ=            -14.2552
   XY=             -1.9212   XZ=              3.2527   YZ=              0.7284

 Normal termination of Gaussian 16 at Mon Apr 21 18:16:44 2025.
