 Gaussian 16, Revision A.03,
 Gaussian 16:  ES64L-G16RevA.03 25-Dec-2016

 ---------------------------------------------------
 #p UM062X/6-311+G** force int=superfine pop=saveNBO
 ---------------------------------------------------

 -------------------
 Title Card Required
 -------------------
 Symbolic Z-matrix:
 Charge =  0 Multiplicity = 1

                         Standard orientation:
 ---------------------------------------------------------------------
 Center     Atomic      Atomic             Coordinates (Angstroms)
 Number     Number       Type             X           Y           Z
 ---------------------------------------------------------------------
      1          6           0        0.000000    0.000000   -2.241237
      2          8           0        0.000000    0.000000    1.680927
 ---------------------------------------------------------------------

 SCF Done:  E(UM062X) =  -112.633497573     A.U. after   20 cycles

 The electronic state is 1-SG.
 Alpha  occ. eigenvalues --  -19.69198 -10.82972  -0.99136  -0.72406  -0.37946
 Alpha  occ. eigenvalues --   -0.29989  -0.29989
 Alpha virt. eigenvalues --   -0.22660  -0.22660  -0.18236   0.02292   0.05936
 Alpha virt. eigenvalues --    0.05936   0.07221   0.18507   0.21210   0.21210
 Alpha virt. eigenvalues --    0.24897   0.50931   0.50931   0.51794   0.60939

  Beta  occ. eigenvalues --  -19.69198 -10.82972  -0.99136  -0.72406  -0.37946
  Beta  occ. eigenvalues --   -0.29989  -0.29989
  Beta virt. eigenvalues --   -0.22660  -0.22660  -0.18236   0.02292   0.05936
  Beta virt. eigenvalues --    0.05936   0.07221   0.18507   0.21210   0.21210
  Beta virt. eigenvalues --    0.24897   0.50931   0.50931   0.51794   0.60939

 Mulliken charges and spin densities:
               1          2
     1  C    0.293252   0.000000
     2  O   -0.293252  -0.000000
 Sum of Mulliken charges =  -0.00000   0.00000

 Dipole moment (field-independent basis, Debye):
    X=              0.0000    Y=              0.0000    Z=             -5.4921  Tot=              5.4921
 Quadrupole moment (field-independent basis, Debye-Ang):
   XX=            -12.3728   YY=            -12.3728   ZZ=             -7.9417
   XY=              0.0000   XZ=              0.0000   YZ=              0.0000

 Summary of Natural Population Analysis:

                                       Natural Population
                Natural  -----------------------------------------------
    Atom  No    Charge         Core      Valence    Rydberg      Total
 -----------------------------------------------------------------------
      C    1    0.15052      1.00000     1.84938    0.00009     2.84948
      O    2   -0.15052      1.00000     3.14982    0.00070     4.15052
 =======================================================================
   * Total *   -0.00000      2.00000     4.99921    0.00079     7.00000

 Normal termination of Gaussian 16 at Mon Apr 21 19:26:22 2025.
