 Gaussian 16, Revision A.03,
 Gaussian 16:  ES64L-G16RevA.03 25-Dec-2016

 ----------------------------------------------------------------------
 #p opt UM062X/6-311+G** nosymm int=superfine SCF=(MaxCycle=200,NoVarAc
 c,noincfock) guess=read
 ----------------------------------------------------------------------

 -------------------
 Title Card Required
 -------------------
 Symbolic Z-matrix:
 Charge =  0 Multiplicity = 1

 SCF Done:  E(UM062X) =  -151.329162780     A.U. after   16 cycles
 SCF Done:  E(UM062X) =  -151.330558354     A.U. after   17 cycles
 SCF Done:  E(UM062X) =  -151.333392463     A.U. after   18 cycles
 SCF Done:  E(UM062X) =  -151.334035204     A.U. after   22 cycles
 SCF Done:  E(UM062X) =  -151.334178350     A.U. after   22 cycles
 SCF Done:  E(UM062X) =  -151.334195610     A.U. after   15 cycles
 SCF Done:  E(UM062X) =  -151.334196900     A.U. after   18 cycles
 SCF Done:  E(UM062X) =  -151.334196979     A.U. after   13 cycles
 Optimization completed.
    -- Stationary point found.

                          Input orientation:
 ---------------------------------------------------------------------
 Center     Atomic      Atomic             Coordinates (Angstroms)
 Number     Number       Type             X           Y           Z
 ---------------------------------------------------------------------
      1          8           0       -1.561938    0.000000    0.000000
      2          8           0        1.561938    0.000000    0.000000
      3          1           0       -1.363825   -0.772902   -0.558888
      4          1           0        1.363826    0.772639    0.559251
 ---------------------------------------------------------------------

 Alpha  occ. eigenvalues --  -19.72692 -19.72690  -1.13217  -1.12686  -0.57009
 Alpha  occ. eigenvalues --   -0.56588  -0.44445  -0.43986  -0.37785
 Alpha virt. eigenvalues --   -0.25629   0.05229   0.08173   0.14776   0.15040
 Alpha virt. eigenvalues --    0.17668   0.18884   0.20564   0.21266   0.22513
 Alpha virt. eigenvalues --    0.31350   0.48584   0.52458   0.99531   1.00258

  Beta  occ. eigenvalues --  -19.72692 -19.72690  -1.13217  -1.12686  -0.57009
  Beta  occ. eigenvalues --   -0.56588  -0.44445  -0.43986  -0.37785
  Beta virt. eigenvalues --   -0.25629   0.05229   0.08173   0.14776   0.15040
  Beta virt. eigenvalues --    0.17668   0.18884   0.20564   0.21266   0.22513
  Beta virt. eigenvalues --    0.31350   0.48584   0.52458   0.99531   1.00258

 Mulliken charges and spin densities:
               1          2
     1  O   -0.268928   0.000000
     2  O   -0.268928  -0.000000
     3  H    0.268928  -0.000000
     4  H    0.268928   0.000000
 Sum of Mulliken charges =  -0.00000   0.00000

 Dipole moment (field-independent basis, Debye):
    X=              0.0000    Y=             -0.0005    Z=              0.0007  Tot=              0.0009
 Quadrupole moment (field-independent basis, Debye-Ang):
   XX=            -12.9510   YY=            -10.4333   ZZ=            -12.0164
   XY=              4.3530   XZ=              3.1492   YZ=              2.4032

 Normal termination of Gaussian 16 at Tue Apr 22 00:14:08 2025.
