 Gaussian 16, Revision A.03,
 Gaussian 16:  ES64L-G16RevA.03 25-Dec-2016

 --------------------------------------------
 #p opt UM062X/6-311+G** nosymm int=superfine
 --------------------------------------------

 -------------------
 Title Card Required
 -------------------
 Symbolic Z-matrix:
 Charge =  0 Multiplicity = 1

 SCF Done:  E(UM062X) =  -111.623562394     A.U. after   16 cycles
 SCF Done:  E(UM062X) =  -111.630549252     A.U. after   14 cycles
 SCF Done:  E(UM062X) =  -111.635679601     A.U. after   16 cycles
 SCF Done:  E(UM062X) =  -111.638126482     A.U. after   15 cycles
 SCF Done:  E(UM062X) =  -111.640062802     A.U. after   14 cycles
 SCF Done:  E(UM062X) =  -111.640498932     A.U. after   14 cycles
 SCF Done:  E(UM062X) =  -111.641129515     A.U. after   15 cycles
 SCF Done:  E(UM062X) =  -111.641361440     A.U. after   15 cycles
 SCF Done:  E(UM062X) =  -111.641438463     A.U. after   14 cycles
 SCF Done:  E(UM062X) =  -111.641467768     A.U. after   13 cycles
 SCF Done:  E(UM062X) =  -111.641540930     A.U. after   15 cycles
 SCF Done:  E(UM062X) =  -111.641556397     A.U. after   13 cycles
 SCF Done:  E(UM062X) =  -111.641557912     A.U. after   12 cycles
 SCF Done:  E(UM062X) =  -111.641557984     A.U. after   11 cycles
 Optimization completed.
    -- Stationary point found.

                          Input orientation:
 ---------------------------------------------------------------------
 Center     Atomic      Atomic             Coordinates (Angstroms)
 Number     Number       Type             X           Y           Z
 ---------------------------------------------------------------------
      1          7           0       -1.736540    0.000000    0.000000
      2          7           0        1.736540    0.000000    0.000000
      3          1           0       -1.627065   -0.813484   -0.618421
      4          1           0        1.626933    0.405606   -0.937900
      5          1           0       -1.626863   -0.405945    0.937747
      6          1           0        1.627095    0.813717    0.618115
 ---------------------------------------------------------------------

 Alpha  occ. eigenvalues --  -14.80563 -14.80562  -0.95226  -0.94789  -0.55299
 Alpha  occ. eigenvalues --   -0.55030  -0.40860  -0.40481  -0.29069
 Alpha virt. eigenvalues --   -0.17813   0.04380   0.06220   0.08703   0.11499
 Alpha virt. eigenvalues --    0.12561   0.13672   0.15740   0.16162   0.18348
 Alpha virt. eigenvalues --    0.19216   0.25318   0.27539   0.51376   0.51417

  Beta  occ. eigenvalues --  -14.80563 -14.80562  -0.95226  -0.94789  -0.55299
  Beta  occ. eigenvalues --   -0.55030  -0.40860  -0.40481  -0.29069
  Beta virt. eigenvalues --   -0.17813   0.04380   0.06220   0.08703   0.11499
  Beta virt. eigenvalues --    0.12561   0.13672   0.15740   0.16162   0.18348
  Beta virt. eigenvalues --    0.19216   0.25318   0.27539   0.51376   0.51417

 Mulliken charges and spin densities:
               1          2
     1  N   -0.488444   0.000000
     2  N   -0.488465  -0.000000
     3  H    0.244222  -0.000000
     4  H    0.244225   0.000000
     5  H    0.244231  -0.000000
     6  H    0.244231   0.000000
 Sum of Mulliken charges =  -0.00000  -0.00000

 Dipole moment (field-independent basis, Debye):
    X=              0.0001    Y=             -0.0002    Z=             -0.0007  Tot=              0.0008
 Quadrupole moment (field-independent basis, Debye-Ang):
   XX=            -16.4804   YY=            -14.3371   ZZ=            -11.5180
   XY=              7.2172   XZ=             -1.8909   YZ=              0.7933

 Normal termination of Gaussian 16 at Thu May 15 14:58:42 2025.
