 Gaussian 16, Revision A.03,
 Gaussian 16:  ES64L-G16RevA.03 25-Dec-2016

 --------------------------------------------
 #p opt UM062X/6-311+G** nosymm int=superfine
 --------------------------------------------

 -------------------
 Title Card Required
 -------------------
 Symbolic Z-matrix:
 Charge =  0 Multiplicity = 1

 SCF Done:  E(UM062X) =  -579.899469941     A.U. after    9 cycles
 SCF Done:  E(UM062X) =  -579.903158685     A.U. after   10 cycles
 SCF Done:  E(UM062X) =  -579.903175824     A.U. after    7 cycles
 Optimization completed.
    -- Stationary point found.

                          Input orientation:
 ---------------------------------------------------------------------
 Center     Atomic      Atomic             Coordinates (Angstroms)
 Number     Number       Type             X           Y           Z
 ---------------------------------------------------------------------
      1         14           0       -1.628705    0.000000    0.000000
      2         14           0        1.628705    0.000000    0.000000
      3          1           0       -3.164928    0.000022   -0.000000
      4          1           0        3.164928    0.000090   -0.000000
 ---------------------------------------------------------------------

 Alpha  occ. eigenvalues --  -67.04324 -67.04324  -5.58743  -5.58743  -3.89821
 Alpha  occ. eigenvalues --   -3.89820  -3.89376  -3.89376  -3.89270  -3.89270
 Alpha  occ. eigenvalues --   -0.55339  -0.53863  -0.36318  -0.28388  -0.19590
 Alpha virt. eigenvalues --   -0.10217  -0.08856  -0.07207   0.02238   0.03036
 Alpha virt. eigenvalues --    0.04458   0.04871   0.05658   0.06133   0.07116
 Alpha virt. eigenvalues --    0.09227   0.10097   0.21273   0.29325   0.29689

  Beta  occ. eigenvalues --  -67.04324 -67.04324  -5.58743  -5.58743  -3.89821
  Beta  occ. eigenvalues --   -3.89820  -3.89376  -3.89376  -3.89270  -3.89270
  Beta  occ. eigenvalues --   -0.55339  -0.53863  -0.36318  -0.28388  -0.19590
  Beta virt. eigenvalues --   -0.10217  -0.08856  -0.07207   0.02238   0.03036
  Beta virt. eigenvalues --    0.04458   0.04871   0.05658   0.06133   0.07116
  Beta virt. eigenvalues --    0.09227   0.10097   0.21273   0.29325   0.29689

 Mulliken charges and spin densities:
               1          2
     1  Si   0.142124   0.000000
     2  Si   0.142124  -0.000000
     3  H   -0.142124  -0.000000
     4  H   -0.142124   0.000000
 Sum of Mulliken charges =  -0.00000  -0.00000

 Dipole moment (field-independent basis, Debye):
    X=             -0.0000    Y=              0.0000    Z=             -0.0000  Tot=              0.0000
 Quadrupole moment (field-independent basis, Debye-Ang):
   XX=            -32.2716   YY=            -24.1157   ZZ=            -35.2684
   XY=             -0.0002   XZ=             -0.0000   YZ=              0.0006

 Normal termination of Gaussian 16 at Mon Apr 21 21:24:36 2025.
