 Gaussian 16, Revision A.03,
 Gaussian 16:  ES64L-G16RevA.03 25-Dec-2016

 --------------------------------------------
 #p opt UM062X/6-311+G** nosymm int=superfine
 --------------------------------------------

 -------------------
 Title Card Required
 -------------------
 Symbolic Z-matrix:
 Charge =  0 Multiplicity = 1

 SCF Done:  E(UM062X) =  -81.7104911405     A.U. after   23 cycles
 SCF Done:  E(UM062X) =  -81.7183957337     A.U. after   17 cycles
 SCF Done:  E(UM062X) =  -81.7252380797     A.U. after   25 cycles
 SCF Done:  E(UM062X) =  -81.7359972159     A.U. after   17 cycles
 SCF Done:  E(UM062X) =  -81.7427625162     A.U. after   16 cycles
 SCF Done:  E(UM062X) =  -81.7475428093     A.U. after   16 cycles
 SCF Done:  E(UM062X) =  -81.7515520988     A.U. after   13 cycles
 SCF Done:  E(UM062X) =  -81.7508036243     A.U. after   15 cycles
 SCF Done:  E(UM062X) =  -81.7543204497     A.U. after   14 cycles
 SCF Done:  E(UM062X) =  -81.7549224708     A.U. after   12 cycles
 SCF Done:  E(UM062X) =  -81.7550897682     A.U. after   13 cycles
 SCF Done:  E(UM062X) =  -81.7551951701     A.U. after   14 cycles
 SCF Done:  E(UM062X) =  -81.7552287375     A.U. after   11 cycles
 Optimization completed.
    -- Stationary point found.

                          Input orientation:
 ---------------------------------------------------------------------
 Center     Atomic      Atomic             Coordinates (Angstroms)
 Number     Number       Type             X           Y           Z
 ---------------------------------------------------------------------
      1          5           0       -1.670399    0.000000    0.000000
      2          7           0        1.670399    0.000000    0.000000
      3          1           0       -2.018942   -1.118926   -0.025130
      4          1           0        1.680076    0.802717    0.636503
      5          1           0       -2.018940    1.118927   -0.025128
      6          1           0        1.680076   -0.802727    0.636490
 ---------------------------------------------------------------------

 Alpha  occ. eigenvalues --  -14.71835  -7.18068  -0.87479  -0.62673  -0.51192
 Alpha  occ. eigenvalues --   -0.48162  -0.33398  -0.24540
 Alpha virt. eigenvalues --   -0.09548  -0.08412   0.00838   0.02821   0.04151
 Alpha virt. eigenvalues --    0.05086   0.09784   0.11956   0.13650   0.17396
 Alpha virt. eigenvalues --    0.20291   0.20829   0.21601   0.28741   0.32507

  Beta  occ. eigenvalues --  -14.71835  -7.18068  -0.87479  -0.62673  -0.51192
  Beta  occ. eigenvalues --   -0.48162  -0.33398  -0.24540
  Beta virt. eigenvalues --   -0.09548  -0.08412   0.00838   0.02821   0.04151
  Beta virt. eigenvalues --    0.05086   0.09784   0.11956   0.13650   0.17396
  Beta virt. eigenvalues --    0.20291   0.20829   0.21601   0.28741   0.32507

 Mulliken charges and spin densities:
               1          2
     1  B    0.167246  -0.000000
     2  N   -0.709695   0.000000
     3  H    0.063340  -0.000000
     4  H    0.207884  -0.000000
     5  H    0.063340  -0.000000
     6  H    0.207884  -0.000000
 Sum of Mulliken charges =  -0.00000  -0.00000

 Dipole moment (field-independent basis, Debye):
    X=             -4.8382    Y=             -0.0000    Z=              1.8402  Tot=              5.1764
 Quadrupole moment (field-independent basis, Debye-Ang):
   XX=            -14.1018   YY=            -13.4325   ZZ=            -14.5455
   XY=             -0.0000   XZ=              3.4173   YZ=              0.0000

 Normal termination of Gaussian 16 at Mon Apr 21 17:49:10 2025.
