 Gaussian 16, Revision A.03,
 Gaussian 16:  ES64L-G16RevA.03 25-Dec-2016

 --------------------------------------------
 #p opt UM062X/6-311+G** nosymm int=superfine
 --------------------------------------------

 -------------------
 Title Card Required
 -------------------
 Symbolic Z-matrix:
 Charge =  0 Multiplicity = 1

 SCF Done:  E(UM062X) =  -582.359805018     A.U. after   10 cycles
 SCF Done:  E(UM062X) =  -582.362136927     A.U. after    9 cycles
 SCF Done:  E(UM062X) =  -582.362851823     A.U. after    9 cycles
 SCF Done:  E(UM062X) =  -582.362852306     A.U. after    8 cycles
 Optimization completed.
    -- Stationary point found.

                          Input orientation:
 ---------------------------------------------------------------------
 Center     Atomic      Atomic             Coordinates (Angstroms)
 Number     Number       Type             X           Y           Z
 ---------------------------------------------------------------------
      1         14           0       -2.544819    0.000000    0.000000
      2         14           0        2.544819    0.000000    0.000000
      3          1           0        2.942929   -1.421398   -0.000054
      4          1           0       -2.942697   -0.710677    1.231058
      5          1           0        2.942836    0.710853   -1.230912
      6          1           0        2.942706    0.710729    1.231025
      7          1           0       -2.942933    1.421397   -0.000111
      8          1           0       -2.942843   -0.710907   -1.230878
 ---------------------------------------------------------------------

 Alpha  occ. eigenvalues --  -67.01906 -67.01906  -5.56834  -5.56834  -3.88070
 Alpha  occ. eigenvalues --   -3.88070  -3.87821  -3.87821  -3.87821  -3.87821
 Alpha  occ. eigenvalues --   -0.61197  -0.61015  -0.42206  -0.42205  -0.42179
 Alpha  occ. eigenvalues --   -0.42178  -0.20932
 Alpha virt. eigenvalues --   -0.11981   0.01940   0.02979   0.02979   0.03188
 Alpha virt. eigenvalues --    0.04914   0.04914   0.06362   0.06639   0.07612
 Alpha virt. eigenvalues --    0.07612   0.08346   0.08347   0.10955   0.15288

  Beta  occ. eigenvalues --  -67.01906 -67.01906  -5.56834  -5.56834  -3.88070
  Beta  occ. eigenvalues --   -3.88070  -3.87821  -3.87821  -3.87821  -3.87821
  Beta  occ. eigenvalues --   -0.61197  -0.61015  -0.42206  -0.42205  -0.42179
  Beta  occ. eigenvalues --   -0.42178  -0.20932
  Beta virt. eigenvalues --   -0.11981   0.01940   0.02979   0.02979   0.03188
  Beta virt. eigenvalues --    0.04914   0.04914   0.06362   0.06639   0.07612
  Beta virt. eigenvalues --    0.07612   0.08346   0.08347   0.10955   0.15288

 Mulliken charges and spin densities:
               1          2
     1  Si   0.262949   0.000002
     2  Si   0.262949  -0.000002
     3  H   -0.087648  -0.000000
     4  H   -0.087651   0.000000
     5  H   -0.087651  -0.000000
     6  H   -0.087651  -0.000000
     7  H   -0.087648   0.000000
     8  H   -0.087651   0.000000
 Sum of Mulliken charges =  -0.00000  -0.00000

 Dipole moment (field-independent basis, Debye):
    X=              0.0000    Y=             -0.0000    Z=              0.0000  Tot=              0.0000
 Quadrupole moment (field-independent basis, Debye-Ang):
   XX=            -27.8146   YY=            -32.2309   ZZ=            -32.2311
   XY=             -0.0008   XZ=              0.0000   YZ=              0.0000

 Normal termination of Gaussian 16 at Mon Apr 21 20:21:11 2025.
