 Gaussian 16, Revision A.03,
 Gaussian 16:  ES64L-G16RevA.03 25-Dec-2016

 ---------------------------------------
 #p UM062X/6-311+G** force int=superfine
 ---------------------------------------

 -------------------
 Title Card Required
 -------------------
 Symbolic Z-matrix:
 Charge =  1 Multiplicity = 2

                         Standard orientation:
 ---------------------------------------------------------------------
 Center     Atomic      Atomic             Coordinates (Angstroms)
 Number     Number       Type             X           Y           Z
 ---------------------------------------------------------------------
      1          7           0        0.000000    0.000000    0.880391
      2          7           0        0.000000    0.000000   -0.880391
 ---------------------------------------------------------------------

 SCF Done:  E(UM062X) =  -108.667511218     A.U. after   10 cycles

 Unable to determine electronic state:  an orbital has unidentified symmetry.
 Alpha  occ. eigenvalues --  -15.37951 -15.37922  -1.36780  -1.17963  -0.82565
 Alpha  occ. eigenvalues --   -0.79532  -0.76865
 Alpha virt. eigenvalues --   -0.55302  -0.52596  -0.38967  -0.14100  -0.09412
 Alpha virt. eigenvalues --   -0.09173  -0.08785  -0.04255  -0.03031  -0.02760
 Alpha virt. eigenvalues --    0.06362   0.43391   0.45199   0.49732   0.53234

  Beta  occ. eigenvalues --  -15.37528 -15.37507  -1.32795  -1.14642  -0.80782
  Beta  occ. eigenvalues --   -0.75060
  Beta virt. eigenvalues --   -0.54383  -0.50855  -0.44739  -0.37072  -0.15812
  Beta virt. eigenvalues --   -0.10205  -0.09623  -0.09139  -0.05041  -0.03347
  Beta virt. eigenvalues --   -0.03086   0.05029   0.44877   0.45441   0.49532

 Mulliken charges and spin densities:
               1          2
     1  N    0.500000   0.500000
     2  N    0.500000   0.500000
 Sum of Mulliken charges =   1.00000   1.00000

 Dipole moment (field-independent basis, Debye):
    X=              0.0000    Y=              0.0000    Z=              0.0000  Tot=              0.0000
 Quadrupole moment (field-independent basis, Debye-Ang):
   XX=             -8.2771   YY=             -9.7024   ZZ=             -5.4829
   XY=              0.0000   XZ=             -0.0000   YZ=              0.0000

 Optimization completed.
    -- Stationary point found.
 Normal termination of Gaussian 16 at Wed Feb 26 13:43:44 2025.
