 Gaussian 16, Revision A.03,
 Gaussian 16:  ES64L-G16RevA.03 25-Dec-2016

 ---------------------------------------
 #p UM062X/6-311+G** force int=superfine
 ---------------------------------------

 -------------------
 Title Card Required
 -------------------
 Symbolic Z-matrix:
 Charge =  0 Multiplicity = 1

                         Standard orientation:
 ---------------------------------------------------------------------
 Center     Atomic      Atomic             Coordinates (Angstroms)
 Number     Number       Type             X           Y           Z
 ---------------------------------------------------------------------
      1          6           0        0.004565    0.073051    1.173642
      2          6           0       -0.004565   -0.073051   -1.173643
      3          1           0       -0.477586    0.858698   -1.456366
      4          1           0        0.589930    0.967908    1.342227
      5          1           0       -0.589928   -0.967907   -1.342229
      6          1           0        1.051200   -0.152091   -1.399377
      7          1           0        0.477586   -0.858698    1.456367
      8          1           0       -1.051199    0.152092    1.399381
 ---------------------------------------------------------------------

 SCF Done:  E(UM062X) =  -79.6939103126     A.U. after    9 cycles

 The electronic state is 1-A.
 Alpha  occ. eigenvalues --  -10.55531 -10.55526  -0.77656  -0.73878  -0.48263
 Alpha  occ. eigenvalues --   -0.48263  -0.45995  -0.45995  -0.29142
 Alpha virt. eigenvalues --   -0.00681   0.02496   0.05552   0.05552   0.07385
 Alpha virt. eigenvalues --    0.08289   0.08289   0.09991   0.13088   0.18160
 Alpha virt. eigenvalues --    0.18160   0.22070   0.22070   0.24365   0.26307

  Beta  occ. eigenvalues --  -10.55531 -10.55526  -0.77656  -0.73878  -0.48263
  Beta  occ. eigenvalues --   -0.48263  -0.45995  -0.45995  -0.29142
  Beta virt. eigenvalues --   -0.00681   0.02496   0.05552   0.05552   0.07385
  Beta virt. eigenvalues --    0.08289   0.08289   0.09991   0.13088   0.18160
  Beta virt. eigenvalues --    0.18160   0.22070   0.22070   0.24365   0.26307

 Mulliken charges and spin densities:
               1          2
     1  C   -0.508285   0.000000
     2  C   -0.508285  -0.000000
     3  H    0.169428  -0.000000
     4  H    0.169429  -0.000000
     5  H    0.169429   0.000000
     6  H    0.169429  -0.000000
     7  H    0.169428  -0.000000
     8  H    0.169429   0.000000
 Sum of Mulliken charges =  -0.00000  -0.00000

 Dipole moment (field-independent basis, Debye):
    X=              0.0000    Y=              0.0000    Z=             -0.0000  Tot=              0.0000
 Quadrupole moment (field-independent basis, Debye-Ang):
   XX=            -14.8156   YY=            -14.8184   ZZ=            -15.5366
   XY=             -0.0002   XZ=             -0.0028   YZ=             -0.0449

 Normal termination of Gaussian 16 at Tue Nov 19 12:56:01 2024.
