 Gaussian 16, Revision A.03,
 Gaussian 16:  ES64L-G16RevA.03 25-Dec-2016

 ---------------------------------------
 #p UM062X/6-311+G** force int=superfine
 ---------------------------------------

 -------------------
 Title Card Required
 -------------------
 Symbolic Z-matrix:
 Charge =  0 Multiplicity = 1

                         Standard orientation:
 ---------------------------------------------------------------------
 Center     Atomic      Atomic             Coordinates (Angstroms)
 Number     Number       Type             X           Y           Z
 ---------------------------------------------------------------------
      1          6           0        0.000000    0.928021    0.000000
      2          6           0       -0.000000   -0.928021    0.000000
      3          1           0       -0.963280    1.413415    0.000000
      4          1           0        0.963307    1.413461    0.000000
      5          1           0        0.963280   -1.413415    0.000000
      6          1           0       -0.963307   -1.413461    0.000000
 ---------------------------------------------------------------------

 SCF Done:  E(UM062X) =  -78.4248172743     A.U. after    8 cycles

 The electronic state is 1-AG.
 Alpha  occ. eigenvalues --  -10.60048 -10.60030  -0.78478  -0.70544  -0.52945
 Alpha  occ. eigenvalues --   -0.48571  -0.40190  -0.27213
 Alpha virt. eigenvalues --   -0.04938   0.02924   0.03364   0.05393   0.07479
 Alpha virt. eigenvalues --    0.08877   0.09803   0.11555   0.13592   0.15609
 Alpha virt. eigenvalues --    0.16577   0.21111   0.21601   0.28613   0.40279

  Beta  occ. eigenvalues --  -10.60048 -10.60030  -0.78478  -0.70544  -0.52945
  Beta  occ. eigenvalues --   -0.48571  -0.40190  -0.27213
  Beta virt. eigenvalues --   -0.04938   0.02924   0.03364   0.05393   0.07479
  Beta virt. eigenvalues --    0.08877   0.09803   0.11555   0.13592   0.15609
  Beta virt. eigenvalues --    0.16577   0.21111   0.21601   0.28613   0.40279

 Mulliken charges and spin densities:
               1          2
     1  C   -0.349574   0.000000
     2  C   -0.349574   0.000000
     3  H    0.174786  -0.000000
     4  H    0.174788  -0.000000
     5  H    0.174786  -0.000000
     6  H    0.174788  -0.000000
 Sum of Mulliken charges =  -0.00000  -0.00000

 Dipole moment (field-independent basis, Debye):
    X=              0.0000    Y=              0.0000    Z=              0.0000  Tot=              0.0000
 Quadrupole moment (field-independent basis, Debye-Ang):
   XX=            -12.1522   YY=            -11.5214   ZZ=            -17.7844
   XY=              0.0001   XZ=              0.0000   YZ=              0.0000

 Normal termination of Gaussian 16 at Tue Nov 19 11:48:27 2024.
