 Gaussian 16, Revision A.03,
 Gaussian 16:  ES64L-G16RevA.03 25-Dec-2016

 --------------------------------------------
 #p opt UM062X/6-311+G** nosymm int=superfine
 --------------------------------------------

 -------------------
 Title Card Required
 -------------------
 Symbolic Z-matrix:
 Charge =  0 Multiplicity = 1

 SCF Done:  E(UM062X) =  -78.1995855649     A.U. after    9 cycles
 SCF Done:  E(UM062X) =  -78.2165902188     A.U. after    9 cycles
 SCF Done:  E(UM062X) =  -78.2321560734     A.U. after    8 cycles
 SCF Done:  E(UM062X) =  -78.2325137397     A.U. after    8 cycles
 SCF Done:  E(UM062X) =  -78.2325152157     A.U. after    7 cycles
 Optimization completed.
    -- Stationary point found.

                          Input orientation:
 ---------------------------------------------------------------------
 Center     Atomic      Atomic             Coordinates (Angstroms)
 Number     Number       Type             X           Y           Z
 ---------------------------------------------------------------------
      1          6           0       -1.910595    0.000000    0.000000
      2          6           0        1.910595    0.000000    0.000000
      3          1           0       -2.617654   -0.857969   -0.000000
      4          1           0       -2.617622    0.857998   -0.000000
      5          1           0        2.617654    0.857969   -0.000000
      6          1           0        2.617622   -0.857998   -0.000000
 ---------------------------------------------------------------------

 Alpha  occ. eigenvalues --  -10.59351 -10.59351  -0.74372  -0.74312  -0.46056
 Alpha  occ. eigenvalues --   -0.46003  -0.30853  -0.28736
 Alpha virt. eigenvalues --   -0.07211  -0.06647   0.02529   0.03273   0.06639
 Alpha virt. eigenvalues --    0.08621   0.08745   0.10425   0.12447   0.15455
 Alpha virt. eigenvalues --    0.17556   0.19951   0.20878   0.22208   0.45525

  Beta  occ. eigenvalues --  -10.59351 -10.59351  -0.74372  -0.74312  -0.46056
  Beta  occ. eigenvalues --   -0.46003  -0.30853  -0.28736
  Beta virt. eigenvalues --   -0.07211  -0.06647   0.02529   0.03273   0.06639
  Beta virt. eigenvalues --    0.08621   0.08745   0.10425   0.12447   0.15455
  Beta virt. eigenvalues --    0.17556   0.19951   0.20878   0.22208   0.45525

 Mulliken charges and spin densities:
               1          2
     1  C   -0.237741   0.000000
     2  C   -0.237741   0.000000
     3  H    0.118871  -0.000000
     4  H    0.118871  -0.000000
     5  H    0.118871   0.000000
     6  H    0.118871  -0.000000
 Sum of Mulliken charges =  -0.00000   0.00000

 Dipole moment (field-independent basis, Debye):
    X=              0.0000    Y=             -0.0000    Z=             -0.0000  Tot=              0.0000
 Quadrupole moment (field-independent basis, Debye-Ang):
   XX=             -4.1264   YY=            -14.6841   ZZ=            -12.9464
   XY=             -0.0001   XZ=              0.0000   YZ=             -0.0000

 Normal termination of Gaussian 16 at Tue Dec  3 11:16:56 2024.
