 Gaussian 16, Revision A.03,
 Gaussian 16:  ES64L-G16RevA.03 25-Dec-2016

 ---------------------------------------------------
 #p UM062X/6-311+G** force int=superfine pop=saveNBO
 ---------------------------------------------------

 -------------------
 Title Card Required
 -------------------
 Symbolic Z-matrix:
 Charge =  0 Multiplicity = 1

                         Standard orientation:
 ---------------------------------------------------------------------
 Center     Atomic      Atomic             Coordinates (Angstroms)
 Number     Number       Type             X           Y           Z
 ---------------------------------------------------------------------
      1         16           0        0.000000    0.000000    1.550200
      2         16           0        0.000000    0.000000   -1.550200
 ---------------------------------------------------------------------

 SCF Done:  E(UM062X) =  -796.114872597     A.U. after    9 cycles

 Unable to determine electronic state:  partially filled degenerate orbitals.
 Alpha  occ. eigenvalues --  -89.99298 -89.99298  -8.34974  -8.34974  -6.27007
 Alpha  occ. eigenvalues --   -6.27007  -6.26999  -6.26999  -6.26157  -6.26157
 Alpha  occ. eigenvalues --   -0.79473  -0.76599  -0.36470  -0.35678  -0.33731
 Alpha  occ. eigenvalues --   -0.32892
 Alpha virt. eigenvalues --   -0.22240  -0.18232   0.03105   0.03730   0.04958
 Alpha virt. eigenvalues --    0.05463   0.07257   0.07518   0.07714   0.13466
 Alpha virt. eigenvalues --    0.31755   0.31774   0.32679   0.36353   0.37269

  Beta  occ. eigenvalues --  -89.99298 -89.99298  -8.34974  -8.34974  -6.27007
  Beta  occ. eigenvalues --   -6.27007  -6.26999  -6.26999  -6.26157  -6.26157
  Beta  occ. eigenvalues --   -0.79473  -0.76599  -0.36470  -0.35678  -0.33731
  Beta  occ. eigenvalues --   -0.32892
  Beta virt. eigenvalues --   -0.22240  -0.18232   0.03105   0.03730   0.04958
  Beta virt. eigenvalues --    0.05463   0.07257   0.07518   0.07714   0.13466
  Beta virt. eigenvalues --    0.31755   0.31774   0.32679   0.36353   0.37269

 Mulliken charges and spin densities:
               1          2
     1  S    0.000000   0.000000
     2  S    0.000000   0.000000
 Sum of Mulliken charges =   0.00000   0.00000

 Dipole moment (field-independent basis, Debye):
    X=             -0.0000    Y=             -0.0000    Z=             -0.0000  Tot=              0.0000
 Quadrupole moment (field-independent basis, Debye-Ang):
   XX=            -30.2673   YY=            -25.3667   ZZ=            -22.7152
   XY=              0.0000   XZ=             -0.0000   YZ=              0.0000

 Summary of Natural Population Analysis:

                                       Natural Population
                Natural  -----------------------------------------------
    Atom  No    Charge         Core      Valence    Rydberg      Total
 -----------------------------------------------------------------------
      S    1    0.00000      4.99999     2.99893    0.00108     8.00000
      S    2    0.00000      4.99999     2.99893    0.00108     8.00000
 =======================================================================
   * Total *    0.00000      9.99999     5.99785    0.00216    16.00000

 Normal termination of Gaussian 16 at Mon Apr 21 20:03:22 2025.
