 Gaussian 16, Revision A.03,
 Gaussian 16:  ES64L-G16RevA.03 25-Dec-2016

 ---------------------------------------
 #p UM062X/6-311+G** force int=superfine
 ---------------------------------------

 -------------------
 Title Card Required
 -------------------
 Symbolic Z-matrix:
 Charge =  1 Multiplicity = 2

                         Standard orientation:
 ---------------------------------------------------------------------
 Center     Atomic      Atomic             Coordinates (Angstroms)
 Number     Number       Type             X           Y           Z
 ---------------------------------------------------------------------
      1          6           0        1.024913   -0.618889    1.079595
      2          6           0       -1.024909    0.618897   -1.079590
      3          1           0       -0.235252    0.775908   -1.805683
      4          1           0        1.310804   -1.423344    0.411357
      5          1           0       -1.311481    1.423506   -0.411829
      6          1           0       -1.611666   -0.292284   -1.109302
      7          1           0        0.235309   -0.775734    1.805783
      8          1           0        1.612260    0.291901    1.109644
 ---------------------------------------------------------------------

 SCF Done:  E(UM062X) =  -79.3333039156     A.U. after   10 cycles

 The electronic state is 2-A.
 Alpha  occ. eigenvalues --  -10.84789 -10.84787  -1.03589  -1.02485  -0.74366
 Alpha  occ. eigenvalues --   -0.74365  -0.73858  -0.73858  -0.51409
 Alpha virt. eigenvalues --   -0.36096  -0.13753  -0.10193  -0.10158  -0.10158
 Alpha virt. eigenvalues --   -0.06242  -0.06242  -0.05008  -0.03277  -0.01684
 Alpha virt. eigenvalues --   -0.01681   0.01290   0.01293   0.04508   0.07792

  Beta  occ. eigenvalues --  -10.84588 -10.84588  -1.00797  -1.00060  -0.73845
  Beta  occ. eigenvalues --   -0.73844  -0.73348  -0.73348
  Beta virt. eigenvalues --   -0.32613  -0.25951  -0.15476  -0.11139  -0.11139
  Beta virt. eigenvalues --   -0.10031  -0.06383  -0.06383  -0.05277  -0.02381
  Beta virt. eigenvalues --   -0.01999  -0.01997   0.01591   0.01593   0.05397

 Mulliken charges and spin densities:
               1          2
     1  C   -0.269796   0.564730
     2  C   -0.269797   0.564732
     3  H    0.256625  -0.021571
     4  H    0.256571  -0.021581
     5  H    0.256598  -0.021580
     6  H    0.256574  -0.021580
     7  H    0.256626  -0.021571
     8  H    0.256599  -0.021579
 Sum of Mulliken charges =   1.00000   1.00000

 Dipole moment (field-independent basis, Debye):
    X=             -0.0000    Y=             -0.0001    Z=             -0.0000  Tot=              0.0001
 Quadrupole moment (field-independent basis, Debye-Ang):
   XX=             -6.0256   YY=             -9.2200   ZZ=             -5.4712
   XY=             -3.0374   XZ=              5.2988   YZ=             -3.2004

 Normal termination of Gaussian 16 at Wed Nov 13 12:59:16 2024.
