 Gaussian 16, Revision A.03,
 Gaussian 16:  ES64L-G16RevA.03 25-Dec-2016

 --------------------------------------------
 #p opt UM062X/6-311+G** nosymm int=superfine
 --------------------------------------------

 -------------------
 Title Card Required
 -------------------
 Symbolic Z-matrix:
 Charge =  1 Multiplicity = 2

 SCF Done:  E(UM062X) =  -79.3214410907     A.U. after   12 cycles
 SCF Done:  E(UM062X) =  -79.3460871844     A.U. after   13 cycles
 SCF Done:  E(UM062X) =  -79.3495524508     A.U. after   11 cycles
 SCF Done:  E(UM062X) =  -79.3496843854     A.U. after   10 cycles
 SCF Done:  E(UM062X) =  -79.3499369018     A.U. after   11 cycles
 SCF Done:  E(UM062X) =  -79.3519416384     A.U. after   12 cycles
 SCF Done:  E(UM062X) =  -79.3558549387     A.U. after   14 cycles
 SCF Done:  E(UM062X) =  -79.3548209930     A.U. after   16 cycles
 SCF Done:  E(UM062X) =  -79.3625007861     A.U. after   12 cycles
 SCF Done:  E(UM062X) =  -79.3624710094     A.U. after   13 cycles
 SCF Done:  E(UM062X) =  -79.3694435324     A.U. after   13 cycles
 SCF Done:  E(UM062X) =  -79.3711193757     A.U. after   13 cycles
 SCF Done:  E(UM062X) =  -79.3711684475     A.U. after   11 cycles
 SCF Done:  E(UM062X) =  -79.3718526682     A.U. after   12 cycles
 SCF Done:  E(UM062X) =  -79.3718933551     A.U. after   11 cycles
 SCF Done:  E(UM062X) =  -79.3719035178     A.U. after   10 cycles
 SCF Done:  E(UM062X) =  -79.3719054280     A.U. after    9 cycles
 SCF Done:  E(UM062X) =  -79.3719059022     A.U. after    9 cycles
 SCF Done:  E(UM062X) =  -79.3719060346     A.U. after    8 cycles
 SCF Done:  E(UM062X) =  -79.3719061100     A.U. after    7 cycles
 Optimization completed.
    -- Stationary point found.

                          Input orientation:
 ---------------------------------------------------------------------
 Center     Atomic      Atomic             Coordinates (Angstroms)
 Number     Number       Type             X           Y           Z
 ---------------------------------------------------------------------
      1          6           0       -0.798936    0.000000    0.000000
      2          6           0        0.798936    0.000000    0.000000
      3          1           0        1.257701   -0.921520    0.344228
      4          1           0       -1.257760   -0.919960   -0.348334
      5          1           0        1.258493    0.919255    0.349367
      6          1           0        0.661153    0.003601   -1.130192
      7          1           0       -1.258405    0.920980   -0.344717
      8          1           0       -0.660511   -0.001997    1.130152
 ---------------------------------------------------------------------

 Alpha  occ. eigenvalues --  -10.85451 -10.85422  -1.17276  -0.99236  -0.82816
 Alpha  occ. eigenvalues --   -0.80445  -0.75316  -0.71379  -0.64473
 Alpha virt. eigenvalues --   -0.17378  -0.13181  -0.12073  -0.11679  -0.10536
 Alpha virt. eigenvalues --   -0.07672  -0.06472  -0.06443  -0.05711  -0.01933
 Alpha virt. eigenvalues --   -0.00369  -0.00309   0.02587   0.03554   0.03851

  Beta  occ. eigenvalues --  -10.85214 -10.85188  -1.14309  -0.96269  -0.79614
  Beta  occ. eigenvalues --   -0.77986  -0.73773  -0.70806
  Beta virt. eigenvalues --   -0.42332  -0.17051  -0.13162  -0.11537  -0.11516
  Beta virt. eigenvalues --   -0.10159  -0.07763  -0.06531  -0.05474  -0.03988
  Beta virt. eigenvalues --   -0.01555   0.00096   0.00190   0.03290   0.04253

 Mulliken charges and spin densities:
               1          2
     1  C   -0.355954   0.390345
     2  C   -0.356223   0.389966
     3  H    0.276609  -0.017583
     4  H    0.276645  -0.017596
     5  H    0.276628  -0.017550
     6  H    0.302828   0.144995
     7  H    0.276631  -0.017574
     8  H    0.302836   0.144996
 Sum of Mulliken charges =   1.00000   1.00000

 Dipole moment (field-independent basis, Debye):
    X=             -0.0000    Y=              0.0009    Z=              0.0005  Tot=              0.0010
 Quadrupole moment (field-independent basis, Debye-Ang):
   XX=             -8.0696   YY=            -10.8607   ZZ=            -10.0634
   XY=              0.0008   XZ=             -0.1770   YZ=             -0.0023

 Normal termination of Gaussian 16 at Wed Nov 13 13:16:16 2024.
