 Gaussian 16, Revision A.03,
 Gaussian 16:  ES64L-G16RevA.03 25-Dec-2016

 --------------------------------------------
 #p opt UM062X/6-311+G** nosymm int=superfine
 --------------------------------------------

 -------------------
 Title Card Required
 -------------------
 Symbolic Z-matrix:
 Charge =  0 Multiplicity = 1

 SCF Done:  E(UM062X) =  -94.2604913908     A.U. after   14 cycles
 SCF Done:  E(UM062X) =  -94.2643278934     A.U. after   16 cycles
 SCF Done:  E(UM062X) =  -94.2673735933     A.U. after   16 cycles
 SCF Done:  E(UM062X) =  -94.2681156106     A.U. after   17 cycles
 SCF Done:  E(UM062X) =  -94.2689479892     A.U. after   15 cycles
 SCF Done:  E(UM062X) =  -94.2689832129     A.U. after   22 cycles
 SCF Done:  E(UM062X) =  -94.2689256773     A.U. after   15 cycles
 SCF Done:  E(UM062X) =  -94.2690120877     A.U. after   16 cycles
 SCF Done:  E(UM062X) =  -94.2690132656     A.U. after   18 cycles
 SCF Done:  E(UM062X) =  -94.2690185658     A.U. after   19 cycles
 SCF Done:  E(UM062X) =  -94.2690230077     A.U. after   20 cycles
 SCF Done:  E(UM062X) =  -94.2690236237     A.U. after   13 cycles
 Optimization completed.
    -- Stationary point found.

                          Input orientation:
 ---------------------------------------------------------------------
 Center     Atomic      Atomic             Coordinates (Angstroms)
 Number     Number       Type             X           Y           Z
 ---------------------------------------------------------------------
      1          6           0       -1.506637    0.000000    0.000000
      2          7           0        1.506637    0.000000    0.000000
      3          1           0       -2.344742   -0.718881   -0.002060
      4          1           0        1.249767   -1.003083    0.000085
      5          1           0       -1.979821    0.996117    0.001486
 ---------------------------------------------------------------------

 Alpha  occ. eigenvalues --  -14.80006 -10.64086  -0.86364  -0.78087  -0.50742
 Alpha  occ. eigenvalues --   -0.43237  -0.34135  -0.30664
 Alpha virt. eigenvalues --   -0.10466  -0.09092   0.01425   0.05412   0.06919
 Alpha virt. eigenvalues --    0.07719   0.12595   0.14318   0.16538   0.17703
 Alpha virt. eigenvalues --    0.18664   0.19821   0.25904   0.42988   0.46246

  Beta  occ. eigenvalues --  -14.80006 -10.64086  -0.86364  -0.78087  -0.50742
  Beta  occ. eigenvalues --   -0.43237  -0.34135  -0.30664
  Beta virt. eigenvalues --   -0.10466  -0.09092   0.01425   0.05412   0.06919
  Beta virt. eigenvalues --    0.07719   0.12595   0.14318   0.16538   0.17703
  Beta virt. eigenvalues --    0.18664   0.19821   0.25904   0.42988   0.46246

 Mulliken charges and spin densities:
               1          2
     1  C   -0.296883  -0.000000
     2  N   -0.216669   0.000000
     3  H    0.157336  -0.000000
     4  H    0.199029  -0.000000
     5  H    0.157187   0.000000
 Sum of Mulliken charges =  -0.00000  -0.00000

 Dipole moment (field-independent basis, Debye):
    X=             -3.3842    Y=             -1.1933    Z=             -0.0007  Tot=              3.5885
 Quadrupole moment (field-independent basis, Debye-Ang):
   XX=             -9.2450   YY=            -12.7192   ZZ=            -14.9917
   XY=             -2.9275   XZ=             -0.0003   YZ=             -0.0007

 Normal termination of Gaussian 16 at Mon Apr 21 18:27:12 2025.
