 Gaussian 16, Revision A.03,
 Gaussian 16:  ES64L-G16RevA.03 25-Dec-2016

 --------------------------------------------
 #p opt UM062X/6-311+G** nosymm int=superfine
 --------------------------------------------

 -------------------
 Title Card Required
 -------------------
 Symbolic Z-matrix:
 Charge =  1 Multiplicity = 2

 SCF Done:  E(UM062X) =  -1615.51312187     A.U. after   27 cycles
 SCF Done:  E(UM062X) =  -1615.56549807     A.U. after   20 cycles
 SCF Done:  E(UM062X) =  -1615.57569562     A.U. after   23 cycles
 SCF Done:  E(UM062X) =  -1615.58344285     A.U. after   22 cycles
 SCF Done:  E(UM062X) =  -1615.58451336     A.U. after   21 cycles
 SCF Done:  E(UM062X) =  -1615.58349946     A.U. after   26 cycles
 SCF Done:  E(UM062X) =  -1615.57777966     A.U. after   27 cycles
 SCF Done:  E(UM062X) =  -1615.57505879     A.U. after   27 cycles
 SCF Done:  E(UM062X) =  -1615.58462422     A.U. after   21 cycles
 SCF Done:  E(UM062X) =  -1615.58514269     A.U. after   24 cycles
 SCF Done:  E(UM062X) =  -1615.58487158     A.U. after   22 cycles
 SCF Done:  E(UM062X) =  -1615.58525842     A.U. after   23 cycles
 SCF Done:  E(UM062X) =  -1615.58527130     A.U. after   19 cycles
 SCF Done:  E(UM062X) =  -1615.58527452     A.U. after   17 cycles
 SCF Done:  E(UM062X) =  -1615.58527627     A.U. after   16 cycles
 SCF Done:  E(UM062X) =  -1615.58527675     A.U. after   16 cycles
 SCF Done:  E(UM062X) =  -1615.58527685     A.U. after   15 cycles
 Optimization completed.
    -- Stationary point found.

                          Input orientation:
 ---------------------------------------------------------------------
 Center     Atomic      Atomic             Coordinates (Angstroms)
 Number     Number       Type             X           Y           Z
 ---------------------------------------------------------------------
      1          6           0       -1.540788    0.000000   -0.000000
      2          6           0        1.540788   -0.000000    0.000000
      3          6           0       -0.000015   -2.081343    0.000329
      4          6           0       -0.000016   -3.476517    0.000476
      5          6           0       -1.133321   -4.299808    0.215130
      6          6           0       -1.296680   -1.472585    0.186259
      7          6           0        0.663683   -5.693868   -0.127298
      8          1           0        1.291538   -6.564544   -0.251677
      9          6           0       -1.611439    0.779561    1.209947
     10          6           0       -0.663719   -5.693839    0.128706
     11          1           0       -1.291580   -6.564489    0.253247
     12          6           0        1.133279   -4.299856   -0.214064
     13          6           0        1.296656   -1.472650   -0.185748
     14          6           0        1.756352    2.202342   -1.309077
     15          6           0       -1.668066    0.389486   -1.380409
     16          6           0       -1.863443    2.797836    2.578824
     17          1           0       -1.990214    3.873167    2.627397
     18          6           0       -2.339483   -3.695827    0.450703
     19          1           0       -3.245494   -4.262284    0.632423
     20          6           0       -1.669991    1.729081   -1.893528
     21          6           0        2.394322   -2.277153   -0.421477
     22          1           0        3.358192   -1.795778   -0.552993
     23          6           0        1.667891    0.390020    1.380287
     24          6           0        1.669860    1.729827    1.892864
     25          6           0        2.339419   -3.695930   -0.449896
     26          1           0        3.245401   -4.262430   -0.631627
     27          6           0       -1.756265    2.202863    1.308232
     28          6           0       -1.502277    0.073434    2.443711
     29          1           0       -1.344500   -0.994045    2.426041
     30          6           0        1.753983   -0.655151    2.354227
     31          1           0        1.785180   -1.683217    2.027209
     32          6           0       -1.807702    2.067579    3.747603
     33          1           0       -1.903665    2.561536    4.706866
     34          6           0       -2.394378   -2.277056    0.421973
     35          1           0       -3.358266   -1.795657    0.553273
     36          6           0       -1.711038    1.933586   -3.287753
     37          1           0       -1.693040    2.954597   -3.650931
     38          6           0        1.611385    0.779090   -1.210222
     39          6           0       -1.734897    3.136656    0.213563
     40          1           0       -1.768394    4.176119    0.525252
     41          6           0       -1.795554    0.896335   -4.187689
     42          1           0       -1.845664    1.096594   -5.251096
     43          6           0       -1.665248    2.938871   -1.117769
     44          1           0       -1.640827    3.843121   -1.718524
     45          6           0        1.710586    1.934890    3.287019
     46          1           0        1.692594    2.956051    3.649779
     47          6           0       -1.604138    0.688294    3.671285
     48          1           0       -1.522284    0.094498    4.573577
     49          6           0       -1.754461   -0.656073   -2.353885
     50          1           0       -1.785574   -1.684007   -2.026433
     51          6           0        1.794658    0.898004    4.187404
     52          1           0        1.844461    1.098690    5.250747
     53          6           0        1.863393    2.796800   -2.579925
     54          1           0        1.990262    3.872097   -2.628948
     55          6           0        1.833558   -0.414983    3.704304
     56          1           0        1.921968   -1.248962    4.389819
     57          6           0        1.807448    2.066074   -3.748399
     58          1           0        1.903341    2.559634   -4.707873
     59          6           0        1.735307    3.136559   -0.214775
     60          1           0        1.769120    4.175893   -0.526861
     61          6           0       -1.834439   -0.416449   -3.704039
     62          1           0       -1.923100   -1.250708   -4.389180
     63          6           0        1.665453    2.939308    1.116628
     64          1           0        1.641133    3.843797    1.717027
     65          6           0        1.502065    0.072463   -2.443680
     66          1           0        1.344277   -0.995008   -2.425532
     67          6           0        1.603846    0.686822   -3.671508
     68          1           0        1.521918    0.092673   -4.573556
 ---------------------------------------------------------------------

 Alpha  occ. eigenvalues --  -10.70725 -10.70724 -10.68628 -10.68627 -10.68589
 Alpha  occ. eigenvalues --  -10.68589 -10.68248 -10.68247 -10.68224 -10.68223
 Alpha  occ. eigenvalues --  -10.67299 -10.67294 -10.66988 -10.66684 -10.66683
 Alpha  occ. eigenvalues --  -10.66580 -10.66579 -10.65951 -10.65951 -10.65841
 Alpha  occ. eigenvalues --  -10.65841 -10.65733 -10.65732 -10.65731 -10.65731
 Alpha  occ. eigenvalues --  -10.65610 -10.65610 -10.65610 -10.65609 -10.65527
 Alpha  occ. eigenvalues --  -10.65526 -10.65434 -10.65433 -10.65337 -10.65337
 Alpha  occ. eigenvalues --  -10.65326 -10.65325 -10.64894 -10.64893 -10.63834
 Alpha  occ. eigenvalues --  -10.63734 -10.63639  -1.11966  -1.10307  -1.10065
 Alpha  occ. eigenvalues --   -1.08324  -1.07801  -1.05364  -1.04954  -1.02532
 Alpha  occ. eigenvalues --   -1.02129  -1.00997  -1.00281  -0.97948  -0.97645
 Alpha  occ. eigenvalues --   -0.96754  -0.96296  -0.94917  -0.93539  -0.93479
 Alpha  occ. eigenvalues --   -0.92852  -0.91761  -0.87375  -0.87221  -0.84991
 Alpha  occ. eigenvalues --   -0.84803  -0.83062  -0.81504  -0.80893  -0.79783
 Alpha  occ. eigenvalues --   -0.79686  -0.79536  -0.77392  -0.76340  -0.76177
 Alpha  occ. eigenvalues --   -0.75869  -0.75362  -0.73373  -0.70188  -0.69639
 Alpha  occ. eigenvalues --   -0.68860  -0.68547  -0.67757  -0.67659  -0.66916
 Alpha  occ. eigenvalues --   -0.66884  -0.65732  -0.65362  -0.65222  -0.64717
 Alpha  occ. eigenvalues --   -0.63233  -0.62794  -0.62400  -0.62121  -0.60988
 Alpha  occ. eigenvalues --   -0.60973  -0.60531  -0.60386  -0.60108  -0.60039
 Alpha  occ. eigenvalues --   -0.59553  -0.58823  -0.58819  -0.58117  -0.57704
 Alpha  occ. eigenvalues --   -0.57485  -0.57040  -0.55974  -0.55662  -0.55660
 Alpha  occ. eigenvalues --   -0.54940  -0.53983  -0.53029  -0.52849  -0.52630
 Alpha  occ. eigenvalues --   -0.52400  -0.52365  -0.52167  -0.51028  -0.50949
 Alpha  occ. eigenvalues --   -0.50903  -0.50886  -0.49746  -0.49530  -0.49516
 Alpha  occ. eigenvalues --   -0.48632  -0.48449  -0.47887  -0.45437  -0.44733
 Alpha  occ. eigenvalues --   -0.43993  -0.42782  -0.40525  -0.40422  -0.39280
 Alpha  occ. eigenvalues --   -0.38158  -0.37534  -0.37064  -0.30639
 Alpha virt. eigenvalues --   -0.21023  -0.16037  -0.15519  -0.14340  -0.10691
 Alpha virt. eigenvalues --   -0.09983  -0.08927  -0.08558  -0.08355  -0.07554
 Alpha virt. eigenvalues --   -0.07547  -0.07435  -0.06651  -0.06331  -0.06156

  Beta  occ. eigenvalues --  -10.70572 -10.70572 -10.68674 -10.68673 -10.68629
  Beta  occ. eigenvalues --  -10.68629 -10.68208 -10.68207 -10.68178 -10.68178
  Beta  occ. eigenvalues --  -10.67317 -10.67314 -10.66959 -10.66680 -10.66680
  Beta  occ. eigenvalues --  -10.66572 -10.66572 -10.65911 -10.65911 -10.65807
  Beta  occ. eigenvalues --  -10.65807 -10.65702 -10.65701 -10.65695 -10.65694
  Beta  occ. eigenvalues --  -10.65629 -10.65629 -10.65628 -10.65628 -10.65525
  Beta  occ. eigenvalues --  -10.65525 -10.65448 -10.65448 -10.65344 -10.65344
  Beta  occ. eigenvalues --  -10.65324 -10.65324 -10.64892 -10.64892 -10.63834
  Beta  occ. eigenvalues --  -10.63734 -10.63635  -1.11817  -1.10141  -1.09985
  Beta  occ. eigenvalues --   -1.08216  -1.07709  -1.05200  -1.04815  -1.02418
  Beta  occ. eigenvalues --   -1.02032  -1.00822  -1.00115  -0.97846  -0.97551
  Beta  occ. eigenvalues --   -0.96642  -0.96201  -0.94870  -0.93472  -0.93384
  Beta  occ. eigenvalues --   -0.92784  -0.91677  -0.87078  -0.86865  -0.84925
  Beta  occ. eigenvalues --   -0.84743  -0.82983  -0.81408  -0.80791  -0.79701
  Beta  occ. eigenvalues --   -0.79619  -0.79465  -0.77286  -0.76193  -0.76024
  Beta  occ. eigenvalues --   -0.75709  -0.75324  -0.73255  -0.70072  -0.69496
  Beta  occ. eigenvalues --   -0.68737  -0.68434  -0.67711  -0.67615  -0.66795
  Beta  occ. eigenvalues --   -0.66773  -0.65649  -0.65213  -0.65081  -0.64621
  Beta  occ. eigenvalues --   -0.63048  -0.62745  -0.62320  -0.62049  -0.60843
  Beta  occ. eigenvalues --   -0.60728  -0.60404  -0.60150  -0.60047  -0.59986
  Beta  occ. eigenvalues --   -0.59418  -0.58729  -0.58694  -0.58047  -0.57558
  Beta  occ. eigenvalues --   -0.57198  -0.56768  -0.55701  -0.55618  -0.55609
  Beta  occ. eigenvalues --   -0.54915  -0.53681  -0.52928  -0.52766  -0.52566
  Beta  occ. eigenvalues --   -0.52296  -0.52256  -0.52139  -0.50964  -0.50870
  Beta  occ. eigenvalues --   -0.50802  -0.50450  -0.49483  -0.49370  -0.48877
  Beta  occ. eigenvalues --   -0.48390  -0.48112  -0.47597  -0.44749  -0.44208
  Beta  occ. eigenvalues --   -0.43276  -0.42434  -0.40358  -0.40184  -0.38697
  Beta  occ. eigenvalues --   -0.38041  -0.37241  -0.36990
  Beta virt. eigenvalues --   -0.20980  -0.18118  -0.15870  -0.15491  -0.14397
  Beta virt. eigenvalues --   -0.10361  -0.09575  -0.08550  -0.08512  -0.08081
  Beta virt. eigenvalues --   -0.07603  -0.07568  -0.07227  -0.06636  -0.06265

 Mulliken charges and spin densities:
               1          2
     1  C    0.031685   0.379711
     2  C    0.031711   0.379565
     3  C    0.313836   0.014845
     4  C    0.208343  -0.010939
     5  C    0.139777   0.006199
     6  C   -0.027008  -0.037360
     7  C   -0.308231   0.000699
     8  H    0.176062  -0.000014
     9  C    0.097096  -0.055847
    10  C   -0.308187   0.000702
    11  H    0.176061  -0.000014
    12  C    0.139710   0.006203
    13  C   -0.027038  -0.037353
    14  C    0.521634   0.026118
    15  C    0.392420  -0.087871
    16  C   -0.407018  -0.032936
    17  H    0.165598   0.001145
    18  C   -0.502553   0.002050
    19  H    0.175747   0.000160
    20  C    0.244572   0.108514
    21  C   -0.090100   0.023287
    22  H    0.175777  -0.000329
    23  C    0.392363  -0.087852
    24  C    0.244653   0.108487
    25  C   -0.502735   0.002047
    26  H    0.175751   0.000160
    27  C    0.521106   0.026072
    28  C   -0.002797   0.082292
    29  H    0.209672  -0.004340
    30  C   -0.261955   0.038996
    31  H    0.225226  -0.003126
    32  C   -0.404128   0.058697
    33  H    0.182451  -0.003327
    34  C   -0.090174   0.023301
    35  H    0.175789  -0.000329
    36  C   -0.020323  -0.061831
    37  H    0.160276   0.001519
    38  C    0.097052  -0.055840
    39  C   -0.319831   0.055833
    40  H    0.164709  -0.002909
    41  C   -0.228685   0.071041
    42  H    0.180927  -0.003681
    43  C   -0.350711   0.011347
    44  H    0.160456  -0.000517
    45  C   -0.020254  -0.061807
    46  H    0.160266   0.001518
    47  C   -0.030926  -0.041527
    48  H    0.168180   0.000089
    49  C   -0.261847   0.039022
    50  H    0.225222  -0.003126
    51  C   -0.228354   0.071076
    52  H    0.180928  -0.003684
    53  C   -0.406980  -0.032945
    54  H    0.165594   0.001145
    55  C   -0.555015  -0.035357
    56  H    0.176119   0.001375
    57  C   -0.404007   0.058713
    58  H    0.182452  -0.003328
    59  C   -0.320265   0.055802
    60  H    0.164724  -0.002906
    61  C   -0.554589  -0.035358
    62  H    0.176110   0.001375
    63  C   -0.351031   0.011361
    64  H    0.160471  -0.000518
    65  C   -0.002704   0.082282
    66  H    0.209703  -0.004339
    67  C   -0.030957  -0.041524
    68  H    0.168175   0.000090
 Sum of Mulliken charges =   1.00000   1.00000

 Dipole moment (field-independent basis, Debye):
    X=             -0.0003    Y=              2.4893    Z=             -0.0010  Tot=              2.4893
 Quadrupole moment (field-independent basis, Debye-Ang):
   XX=           -222.4614   YY=           -174.9142   ZZ=           -176.2150
   XY=              0.0026   XZ=             -0.4644   YZ=              0.0025

 Normal termination of Gaussian 16 at Fri Nov  8 00:44:20 2024.
