 Gaussian 16, Revision A.03,
 Gaussian 16:  ES64L-G16RevA.03 25-Dec-2016

 ---------------------------------------
 #p UM062X/6-311+G** force int=superfine
 ---------------------------------------

 -------------------
 Title Card Required
 -------------------
 Symbolic Z-matrix:
 Charge =  0 Multiplicity = 1

                         Standard orientation:
 ---------------------------------------------------------------------
 Center     Atomic      Atomic             Coordinates (Angstroms)
 Number     Number       Type             X           Y           Z
 ---------------------------------------------------------------------
      1          6           0       -0.044330   -0.188952    0.848577
      2          6           0        0.044331    0.188952   -0.848577
      3          1           0        0.366007   -0.700167   -1.386865
      4          1           0       -0.761869   -0.994702    0.988799
      5          1           0        0.761868    0.994703   -0.988800
      6          1           0       -0.941740    0.499010   -1.188113
      7          1           0       -0.366006    0.700167    1.386864
      8          1           0        0.941739   -0.499011    1.188114
 ---------------------------------------------------------------------

 SCF Done:  E(UM062X) =  -79.7813078705     A.U. after    8 cycles

 The electronic state is 1-A.
 Alpha  occ. eigenvalues --  -10.53361 -10.53343  -0.81584  -0.71201  -0.49101
 Alpha  occ. eigenvalues --   -0.49101  -0.42326  -0.42326  -0.38187
 Alpha virt. eigenvalues --    0.02235   0.03784   0.05610   0.05610   0.08653
 Alpha virt. eigenvalues --    0.08653   0.09149   0.13587   0.18425   0.18425
 Alpha virt. eigenvalues --    0.20137   0.21651   0.21652   0.24209   0.27639

  Beta  occ. eigenvalues --  -10.53361 -10.53343  -0.81584  -0.71201  -0.49101
  Beta  occ. eigenvalues --   -0.49101  -0.42326  -0.42326  -0.38187
  Beta virt. eigenvalues --    0.02235   0.03784   0.05610   0.05610   0.08653
  Beta virt. eigenvalues --    0.08653   0.09149   0.13587   0.18425   0.18425
  Beta virt. eigenvalues --    0.20137   0.21651   0.21652   0.24209   0.27639

 Mulliken charges and spin densities:
               1          2
     1  C   -0.485206   0.000000
     2  C   -0.485206   0.000000
     3  H    0.161735  -0.000000
     4  H    0.161736  -0.000000
     5  H    0.161736  -0.000000
     6  H    0.161736  -0.000000
     7  H    0.161735  -0.000000
     8  H    0.161736  -0.000000
 Sum of Mulliken charges =  -0.00000   0.00000

 Dipole moment (field-independent basis, Debye):
    X=             -0.0000    Y=              0.0000    Z=              0.0000  Tot=              0.0000
 Quadrupole moment (field-independent basis, Debye-Ang):
   XX=            -14.9427   YY=            -14.9728   ZZ=            -15.5841
   XY=             -0.0074   XZ=              0.0335   YZ=              0.1432

 Normal termination of Gaussian 16 at Tue Nov 19 12:46:39 2024.
