 Gaussian 16, Revision A.03,
 Gaussian 16:  ES64L-G16RevA.03 25-Dec-2016

 --------------------------------------------
 #p opt UM062X/6-311+G** nosymm int=superfine
 --------------------------------------------

 -------------------
 Title Card Required
 -------------------
 Symbolic Z-matrix:
 Charge =  0 Multiplicity = 1

 SCF Done:  E(UM062X) =  -95.5690767232     A.U. after   18 cycles
 SCF Done:  E(UM062X) =  -95.5836782874     A.U. after   13 cycles
 SCF Done:  E(UM062X) =  -95.5936545224     A.U. after   14 cycles
 SCF Done:  E(UM062X) =  -95.5940058209     A.U. after   13 cycles
 SCF Done:  E(UM062X) =  -95.5944252228     A.U. after   13 cycles
 SCF Done:  E(UM062X) =  -95.5948268331     A.U. after   13 cycles
 SCF Done:  E(UM062X) =  -95.5949815737     A.U. after   13 cycles
 SCF Done:  E(UM062X) =  -95.5950428658     A.U. after   12 cycles
 SCF Done:  E(UM062X) =  -95.5950495822     A.U. after   11 cycles
 SCF Done:  E(UM062X) =  -95.5950498733     A.U. after   10 cycles
 SCF Done:  E(UM062X) =  -95.5950506965     A.U. after   10 cycles
 SCF Done:  E(UM062X) =  -95.5950513782     A.U. after   11 cycles
 SCF Done:  E(UM062X) =  -95.5950519132     A.U. after   11 cycles
 SCF Done:  E(UM062X) =  -95.5950520507     A.U. after   10 cycles
 Optimization completed.
    -- Stationary point found.

                          Input orientation:
 ---------------------------------------------------------------------
 Center     Atomic      Atomic             Coordinates (Angstroms)
 Number     Number       Type             X           Y           Z
 ---------------------------------------------------------------------
      1          6           0       -2.130542    0.000000    0.000000
      2          7           0        2.130542    0.000000    0.000000
      3          1           0        2.076061   -1.014619    0.142093
      4          1           0       -2.097122    1.079899    0.015277
      5          1           0        2.076870    0.372382    0.954498
      6          1           0       -2.096366   -0.525613   -0.943448
      7          1           0       -2.251377   -0.550620    0.921991
 ---------------------------------------------------------------------

 Alpha  occ. eigenvalues --  -14.74654 -10.62167  -0.90133  -0.81227  -0.53403
 Alpha  occ. eigenvalues --   -0.53281  -0.50657  -0.35872  -0.23918
 Alpha virt. eigenvalues --   -0.15559   0.01743   0.04517   0.04777   0.06934
 Alpha virt. eigenvalues --    0.09951   0.12937   0.15752   0.16608   0.16704
 Alpha virt. eigenvalues --    0.17262   0.20351   0.21666   0.26875   0.40985

  Beta  occ. eigenvalues --  -14.74654 -10.62167  -0.90133  -0.81227  -0.53403
  Beta  occ. eigenvalues --   -0.53281  -0.50657  -0.35872  -0.23918
  Beta virt. eigenvalues --   -0.15559   0.01743   0.04517   0.04777   0.06934
  Beta virt. eigenvalues --    0.09951   0.12937   0.15752   0.16608   0.16704
  Beta virt. eigenvalues --    0.17262   0.20351   0.21666   0.26875   0.40985

 Mulliken charges and spin densities:
               1          2
     1  C   -0.419797   0.000000
     2  N   -0.580312  -0.000000
     3  H    0.209765   0.000000
     4  H    0.196225  -0.000000
     5  H    0.209770   0.000000
     6  H    0.196315  -0.000000
     7  H    0.188034  -0.000000
 Sum of Mulliken charges =  -0.00000  -0.00000

 Dipole moment (field-independent basis, Debye):
    X=             -3.7132    Y=             -1.0058    Z=              1.7174  Tot=              4.2130
 Quadrupole moment (field-independent basis, Debye-Ang):
   XX=            -16.0386   YY=            -13.4608   ZZ=            -14.2772
   XY=             -2.1458   XZ=              3.6675   YZ=              0.7284

 Normal termination of Gaussian 16 at Mon Apr 21 18:20:02 2025.
