 Gaussian 16, Revision A.03,
 Gaussian 16:  ES64L-G16RevA.03 25-Dec-2016

 --------------------------------------------
 #p opt UM062X/6-311+G** nosymm int=superfine
 --------------------------------------------

 -------------------
 Title Card Required
 -------------------
 Symbolic Z-matrix:
 Charge =  0 Multiplicity = 1

 SCF Done:  E(UM062X) =  -79.6314233247     A.U. after    8 cycles
 SCF Done:  E(UM062X) =  -79.6664887988     A.U. after    9 cycles
 SCF Done:  E(UM062X) =  -79.6973260016     A.U. after   10 cycles
 SCF Done:  E(UM062X) =  -79.7061180206     A.U. after   10 cycles
 SCF Done:  E(UM062X) =  -79.7062362153     A.U. after    8 cycles
 SCF Done:  E(UM062X) =  -79.7062388944     A.U. after    7 cycles
 Optimization completed.
    -- Stationary point found.

                          Input orientation:
 ---------------------------------------------------------------------
 Center     Atomic      Atomic             Coordinates (Angstroms)
 Number     Number       Type             X           Y           Z
 ---------------------------------------------------------------------
      1          6           0       -1.130050    0.000000    0.000000
      2          6           0        1.130165    0.000000    0.000000
      3          1           0        1.373090   -0.913460    0.528573
      4          1           0       -1.372967   -0.914493   -0.526789
      5          1           0        1.373086    0.914493    0.526787
      6          1           0        1.373084   -0.001029   -1.055367
      7          1           0       -1.372974    0.913460   -0.528573
      8          1           0       -1.372972    0.001028    1.055366
 ---------------------------------------------------------------------

 Alpha  occ. eigenvalues --  -10.55293 -10.55287  -0.77940  -0.73548  -0.48262
 Alpha  occ. eigenvalues --   -0.48262  -0.45591  -0.45591  -0.30137
 Alpha virt. eigenvalues --    0.00396   0.02447   0.05582   0.05582   0.08025
 Alpha virt. eigenvalues --    0.08347   0.08347   0.09851   0.13218   0.18163
 Alpha virt. eigenvalues --    0.18163   0.22099   0.22100   0.24361   0.26499

  Beta  occ. eigenvalues --  -10.55293 -10.55287  -0.77940  -0.73548  -0.48262
  Beta  occ. eigenvalues --   -0.48262  -0.45591  -0.45591  -0.30137
  Beta virt. eigenvalues --    0.00396   0.02447   0.05582   0.05582   0.08025
  Beta virt. eigenvalues --    0.08347   0.08347   0.09851   0.13218   0.18163
  Beta virt. eigenvalues --    0.18163   0.22099   0.22100   0.24361   0.26499

 Mulliken charges and spin densities:
               1          2
     1  C   -0.505604  -0.000000
     2  C   -0.505604   0.000000
     3  H    0.168535  -0.000000
     4  H    0.168535   0.000000
     5  H    0.168535  -0.000000
     6  H    0.168535  -0.000000
     7  H    0.168535   0.000000
     8  H    0.168535   0.000000
 Sum of Mulliken charges =  -0.00000   0.00000

 Dipole moment (field-independent basis, Debye):
    X=             -0.0000    Y=             -0.0000    Z=             -0.0000  Tot=              0.0000
 Quadrupole moment (field-independent basis, Debye-Ang):
   XX=            -15.5486   YY=            -14.8300   ZZ=            -14.8301
   XY=             -0.0000   XZ=             -0.0000   YZ=             -0.0000

 Normal termination of Gaussian 16 at Tue Nov 19 12:15:39 2024.
