 Gaussian 16, Revision A.03,
 Gaussian 16:  ES64L-G16RevA.03 25-Dec-2016

 ---------------------------------------------------
 #p UM062X/6-311+G** force int=superfine pop=saveNBO
 ---------------------------------------------------

 -------------------
 Title Card Required
 -------------------
 Symbolic Z-matrix:
 Charge =  0 Multiplicity = 1

                         Standard orientation:
 ---------------------------------------------------------------------
 Center     Atomic      Atomic             Coordinates (Angstroms)
 Number     Number       Type             X           Y           Z
 ---------------------------------------------------------------------
      1          8           0        0.000000    0.000000   -2.293424
      2         16           0        0.000000    0.000000    1.146712
 ---------------------------------------------------------------------

 SCF Done:  E(UM062X) =  -473.005729404     A.U. after   20 cycles

 Unable to determine electronic state:  an orbital has unidentified symmetry.
 Alpha  occ. eigenvalues --  -89.96239 -19.79295  -8.32281  -6.25074  -6.23487
 Alpha  occ. eigenvalues --   -6.23472  -1.08890  -0.76322  -0.47848  -0.47686
 Alpha  occ. eigenvalues --   -0.33564  -0.33540
 Alpha virt. eigenvalues --   -0.21766  -0.18591   0.04014   0.05316   0.05825
 Alpha virt. eigenvalues --    0.05926   0.14790   0.16421   0.17237   0.22073
 Alpha virt. eigenvalues --    0.35080   0.35148   0.35267   0.59517   0.78380

  Beta  occ. eigenvalues --  -89.96239 -19.79295  -8.32281  -6.25074  -6.23487
  Beta  occ. eigenvalues --   -6.23472  -1.08890  -0.76322  -0.47848  -0.47686
  Beta  occ. eigenvalues --   -0.33564  -0.33540
  Beta virt. eigenvalues --   -0.21766  -0.18591   0.04014   0.05316   0.05825
  Beta virt. eigenvalues --    0.05926   0.14790   0.16421   0.17237   0.22073
  Beta virt. eigenvalues --    0.35080   0.35148   0.35267   0.59517   0.78380

 Mulliken charges and spin densities:
               1          2
     1  O   -0.000823   0.000000
     2  S    0.000823   0.000000
 Sum of Mulliken charges =   0.00000   0.00000

 Dipole moment (field-independent basis, Debye):
    X=              0.0000    Y=              0.0000    Z=              0.0226  Tot=              0.0226
 Quadrupole moment (field-independent basis, Debye-Ang):
   XX=            -18.9601   YY=            -21.1692   ZZ=            -15.5521
   XY=              0.0000   XZ=              0.0000   YZ=              0.0000

 Summary of Natural Population Analysis:

                                       Natural Population
                Natural  -----------------------------------------------
    Atom  No    Charge         Core      Valence    Rydberg      Total
 -----------------------------------------------------------------------
      O    1   -0.00066      1.00000     3.00045    0.00022     4.00066
      S    2    0.00066      4.99999     2.99893    0.00042     7.99934
 =======================================================================
   * Total *    0.00000      5.99999     5.99937    0.00064    12.00000

 Normal termination of Gaussian 16 at Mon Apr 21 19:57:54 2025.
