 Gaussian 16, Revision A.03,
 Gaussian 16:  ES64L-G16RevA.03 25-Dec-2016

 --------------------------------------------
 #p opt UM062X/6-311+G** nosymm int=superfine
 --------------------------------------------

 -------------------
 Title Card Required
 -------------------
 Symbolic Z-matrix:
 Charge =  0 Multiplicity = 3

 SCF Done:  E(UM062X) =  -50.6153827950     A.U. after    9 cycles
 SCF Done:  E(UM062X) =  -50.6153974929     A.U. after    7 cycles
 Optimization completed.
    -- Stationary point found.

                          Input orientation:
 ---------------------------------------------------------------------
 Center     Atomic      Atomic             Coordinates (Angstroms)
 Number     Number       Type             X           Y           Z
 ---------------------------------------------------------------------
      1          5           0       -1.103410    0.000000    0.000000
      2          5           0        1.103410    0.000000    0.000000
      3          1           0       -2.279928   -0.000080    0.000000
      4          1           0        2.279928    0.000080   -0.000000
 ---------------------------------------------------------------------

 Alpha  occ. eigenvalues --   -7.14132  -7.14115  -0.58509  -0.55439  -0.39847
 Alpha  occ. eigenvalues --   -0.23218  -0.23218
 Alpha virt. eigenvalues --   -0.04930  -0.04930  -0.01803   0.02512   0.02893
 Alpha virt. eigenvalues --    0.06329   0.06329   0.07493   0.07721   0.07721
 Alpha virt. eigenvalues --    0.13529   0.21738   0.25265   0.37968   0.39152

  Beta  occ. eigenvalues --   -7.13872  -7.13862  -0.54820  -0.53495  -0.37746
  Beta virt. eigenvalues --   -0.06398  -0.06398  -0.00209  -0.00209   0.00717
  Beta virt. eigenvalues --    0.02664   0.03893   0.05433   0.08783   0.08783
  Beta virt. eigenvalues --    0.11648   0.11648   0.12683   0.22795   0.27686

 Mulliken charges and spin densities:
               1          2
     1  B   -0.110514   1.036936
     2  B   -0.110514   1.036936
     3  H    0.110514  -0.036936
     4  H    0.110514  -0.036936
 Sum of Mulliken charges =  -0.00000   2.00000

 Dipole moment (field-independent basis, Debye):
    X=             -0.0000    Y=              0.0000    Z=             -0.0000  Tot=              0.0000
 Quadrupole moment (field-independent basis, Debye-Ang):
   XX=            -10.7165   YY=            -16.1534   ZZ=            -16.1534
   XY=              0.0002   XZ=             -0.0000   YZ=             -0.0000

 1\1\GINC-NODE06\FOpt\UM062X\6-311+G(d,p)\B2H2(3)\SZHAO\21-Apr-2025\0\\
 #p opt UM062X/6-311+G** nosymm int=superfine\\Title Card Required\\0,3
 \B,-1.10341047,0.,0.\B,1.10341047,0.,0.\H,-2.2799277051,-0.0000804992,
 0.0000000245\H,2.2799277051,0.0000804992,-0.0000000245\\Version=ES64L-
 G16RevA.03\HF=-50.6153975\S2=2.008823\S2-1=0.\S2A=2.000024\RMSD=7.363e
 -09\RMSF=1.988e-05\Dipole=0.,0.,0.\Quadrupole=2.6947874,-1.3473937,-1.
 3473937,0.000161,0.,0.\PG=C*V [C*(H1B1B1H1)]\\@

 Normal termination of Gaussian 16 at Mon Apr 21 17:27:50 2025.
