 Gaussian 16, Revision A.03,
 Gaussian 16:  ES64L-G16RevA.03 25-Dec-2016

 --------------------------------------------
 #p opt UM062X/6-311+G** nosymm int=superfine
 --------------------------------------------

 -------------------
 Title Card Required
 -------------------
 Symbolic Z-matrix:
 Charge =  0 Multiplicity = 1

 SCF Done:  E(UM062X) =  -579.874866000     A.U. after   10 cycles
 SCF Done:  E(UM062X) =  -579.877555195     A.U. after   10 cycles
 SCF Done:  E(UM062X) =  -579.877559284     A.U. after   10 cycles
 Optimization completed.
    -- Stationary point found.

                          Input orientation:
 ---------------------------------------------------------------------
 Center     Atomic      Atomic             Coordinates (Angstroms)
 Number     Number       Type             X           Y           Z
 ---------------------------------------------------------------------
      1         14           0       -2.378705    0.000000    0.000000
      2         14           0        2.378705    0.000000    0.000000
      3          1           0       -3.902365   -0.000028   -0.000000
      4          1           0        3.902365    0.000039    0.000000
 ---------------------------------------------------------------------

 Alpha  occ. eigenvalues --  -67.04511 -67.04511  -5.58948  -5.58946  -3.90062
 Alpha  occ. eigenvalues --   -3.90062  -3.89607  -3.89607  -3.89466  -3.89465
 Alpha  occ. eigenvalues --   -0.54948  -0.54781  -0.33248  -0.32024  -0.17457
 Alpha virt. eigenvalues --   -0.11211  -0.09011  -0.08440   0.02254   0.02931
 Alpha virt. eigenvalues --    0.04451   0.05606   0.05643   0.05897   0.06741
 Alpha virt. eigenvalues --    0.07028   0.08204   0.14803   0.28298   0.29823

  Beta  occ. eigenvalues --  -67.04511 -67.04511  -5.58948  -5.58946  -3.90062
  Beta  occ. eigenvalues --   -3.90062  -3.89607  -3.89607  -3.89466  -3.89465
  Beta  occ. eigenvalues --   -0.54948  -0.54781  -0.33248  -0.32024  -0.17457
  Beta virt. eigenvalues --   -0.11211  -0.09011  -0.08440   0.02254   0.02931
  Beta virt. eigenvalues --    0.04451   0.05606   0.05643   0.05897   0.06741
  Beta virt. eigenvalues --    0.07028   0.08204   0.14803   0.28298   0.29823

 Mulliken charges and spin densities:
               1          2
     1  Si   0.152722   0.000000
     2  Si   0.152722  -0.000000
     3  H   -0.152722  -0.000000
     4  H   -0.152722   0.000000
 Sum of Mulliken charges =  -0.00000  -0.00000

 Dipole moment (field-independent basis, Debye):
    X=             -0.0000    Y=              0.0000    Z=              0.0000  Tot=              0.0000
 Quadrupole moment (field-independent basis, Debye-Ang):
   XX=            -30.3190   YY=            -24.2463   ZZ=            -35.6119
   XY=             -0.0002   XZ=             -0.0000   YZ=              0.0001

 Normal termination of Gaussian 16 at Mon Apr 21 21:26:46 2025.
