 Gaussian 16, Revision A.03,
 Gaussian 16:  ES64L-G16RevA.03 25-Dec-2016

 --------------------------------------------
 #p opt UM062X/6-311+G** nosymm int=superfine
 --------------------------------------------

 -------------------
 Title Card Required
 -------------------
 Symbolic Z-matrix:
 Charge =  1 Multiplicity = 2

 SCF Done:  E(UM062X) =  -80.1807894034     A.U. after   26 cycles
 SCF Done:  E(UM062X) =  -80.1810826248     A.U. after   15 cycles
 SCF Done:  E(UM062X) =  -80.1810828929     A.U. after   12 cycles
 SCF Done:  E(UM062X) =  -80.1810910915     A.U. after   16 cycles
 SCF Done:  E(UM062X) =  -80.0766858695     A.U. after   45 cycles
 SCF Done:  E(UM062X) =  -80.1993734648     A.U. after   27 cycles
 SCF Done:  E(UM062X) =  -80.2121271833     A.U. after   21 cycles
 SCF Done:  E(UM062X) =  -80.2257425698     A.U. after   18 cycles
 SCF Done:  E(UM062X) =  -80.2234853324     A.U. after   18 cycles
 SCF Done:  E(UM062X) =  -80.2288565373     A.U. after   16 cycles
 SCF Done:  E(UM062X) =  -80.2332961285     A.U. after   17 cycles
 SCF Done:  E(UM062X) =  -80.2354098815     A.U. after   16 cycles
 SCF Done:  E(UM062X) =  -80.2300217349     A.U. after   18 cycles
 SCF Done:  E(UM062X) =  -80.2424515881     A.U. after   16 cycles
 SCF Done:  E(UM062X) =  -80.2432348277     A.U. after   16 cycles
 SCF Done:  E(UM062X) =  -80.2435877353     A.U. after   16 cycles
 SCF Done:  E(UM062X) =  -80.2436781449     A.U. after   15 cycles
 SCF Done:  E(UM062X) =  -80.2436828891     A.U. after   11 cycles
 SCF Done:  E(UM062X) =  -80.2436861754     A.U. after   13 cycles
 SCF Done:  E(UM062X) =  -80.2436864383     A.U. after   12 cycles
 Optimization completed.
    -- Stationary point found.

                          Input orientation:
 ---------------------------------------------------------------------
 Center     Atomic      Atomic             Coordinates (Angstroms)
 Number     Number       Type             X           Y           Z
 ---------------------------------------------------------------------
      1          5           0       -1.002734    0.000000    0.000000
      2          7           0        1.002734    0.000000    0.000000
      3          1           0       -2.168681   -0.169354   -0.153485
      4          1           0        1.172415    0.763544    0.689622
 ---------------------------------------------------------------------

 Alpha  occ. eigenvalues --  -15.10466  -7.51675  -1.19989  -0.86456  -0.75102
 Alpha  occ. eigenvalues --   -0.67155  -0.66394
 Alpha virt. eigenvalues --   -0.32981  -0.32196  -0.28555  -0.15112  -0.12086
 Alpha virt. eigenvalues --   -0.10150  -0.09549  -0.05492  -0.02102  -0.01162
 Alpha virt. eigenvalues --    0.00102   0.03307   0.06497   0.16330   0.16901

  Beta  occ. eigenvalues --  -15.09122  -7.51927  -1.12356  -0.86980  -0.72760
  Beta  occ. eigenvalues --   -0.63606
  Beta virt. eigenvalues --   -0.36605  -0.33644  -0.27879  -0.26270  -0.15104
  Beta virt. eigenvalues --   -0.12033  -0.09755  -0.09728  -0.05786  -0.02206
  Beta virt. eigenvalues --   -0.01190   0.00224   0.02559   0.04057   0.16363

 Mulliken charges and spin densities:
               1          2
     1  B    0.534506  -0.169663
     2  N   -0.001291   1.243410
     3  H    0.195748  -0.029377
     4  H    0.271038  -0.044370
 Sum of Mulliken charges =   1.00000   1.00000

 Dipole moment (field-independent basis, Debye):
    X=             -3.8486    Y=              1.1633    Z=              1.0506  Tot=              4.1555
 Quadrupole moment (field-independent basis, Debye-Ang):
   XX=             -2.2926   YY=             -9.4546   ZZ=             -9.5663
   XY=              1.9891   XZ=              1.7969   YZ=              0.5474

 Normal termination of Gaussian 16 at Mon Apr 21 18:00:23 2025.
