 Gaussian 16, Revision A.03,
 Gaussian 16:  ES64L-G16RevA.03 25-Dec-2016

 --------------------------------------------
 #p opt UM062X/6-311+G** nosymm int=superfine
 --------------------------------------------

 -------------------
 Title Card Required
 -------------------
 Symbolic Z-matrix:
 Charge =  0 Multiplicity = 1

 SCF Done:  E(UM062X) =  -111.683569670     A.U. after   16 cycles
 SCF Done:  E(UM062X) =  -111.702630191     A.U. after   14 cycles
 SCF Done:  E(UM062X) =  -111.711702017     A.U. after   14 cycles
 SCF Done:  E(UM062X) =  -111.712728640     A.U. after   12 cycles
 SCF Done:  E(UM062X) =  -111.714089723     A.U. after   12 cycles
 SCF Done:  E(UM062X) =  -111.714455225     A.U. after   13 cycles
 SCF Done:  E(UM062X) =  -111.714544175     A.U. after   12 cycles
 SCF Done:  E(UM062X) =  -111.714568494     A.U. after   11 cycles
 SCF Done:  E(UM062X) =  -111.714575057     A.U. after   10 cycles
 SCF Done:  E(UM062X) =  -111.714575484     A.U. after    9 cycles
 SCF Done:  E(UM062X) =  -111.714575492     A.U. after    7 cycles
 Optimization completed.
    -- Stationary point found.

                          Input orientation:
 ---------------------------------------------------------------------
 Center     Atomic      Atomic             Coordinates (Angstroms)
 Number     Number       Type             X           Y           Z
 ---------------------------------------------------------------------
      1          7           0       -1.261540    0.000000    0.000000
      2          7           0        1.261540    0.000000    0.000000
      3          1           0       -1.221195   -0.821636   -0.613663
      4          1           0        1.221302    0.417508   -0.936675
      5          1           0       -1.221299   -0.417507    0.936676
      6          1           0        1.221194    0.821633    0.613666
 ---------------------------------------------------------------------

 Alpha  occ. eigenvalues --  -14.80082 -14.80078  -0.95716  -0.93024  -0.55267
 Alpha  occ. eigenvalues --   -0.53547  -0.41116  -0.39448  -0.33004
 Alpha virt. eigenvalues --   -0.11784   0.04601   0.07189   0.08781   0.11462
 Alpha virt. eigenvalues --    0.13210   0.13823   0.15568   0.15974   0.20069
 Alpha virt. eigenvalues --    0.21346   0.26975   0.27936   0.51428   0.51711

  Beta  occ. eigenvalues --  -14.80082 -14.80078  -0.95716  -0.93024  -0.55267
  Beta  occ. eigenvalues --   -0.53547  -0.41116  -0.39448  -0.33004
  Beta virt. eigenvalues --   -0.11784   0.04601   0.07189   0.08781   0.11462
  Beta virt. eigenvalues --    0.13210   0.13823   0.15568   0.15974   0.20069
  Beta virt. eigenvalues --    0.21346   0.26975   0.27936   0.51428   0.51711

 Mulliken charges and spin densities:
               1          2
     1  N   -0.510987  -0.000000
     2  N   -0.510988   0.000000
     3  H    0.255495   0.000000
     4  H    0.255493  -0.000000
     5  H    0.255493   0.000000
     6  H    0.255495  -0.000000
 Sum of Mulliken charges =   0.00000  -0.00000

 Dipole moment (field-independent basis, Debye):
    X=              0.0000    Y=             -0.0000    Z=              0.0000  Tot=              0.0000
 Quadrupole moment (field-independent basis, Debye-Ang):
   XX=            -15.5296   YY=            -14.0884   ZZ=            -11.3625
   XY=              5.5340   XZ=             -1.4429   YZ=              0.7624

 Normal termination of Gaussian 16 at Thu May 15 14:37:43 2025.
