 Gaussian 16, Revision A.03,
 Gaussian 16:  ES64L-G16RevA.03 25-Dec-2016

 ---------------------------------------------------------
 #p opt UM062X/6-311+G** nosymm int=superfine SCF=NoVarAcc
 ---------------------------------------------------------

 -------------------
 Title Card Required
 -------------------
 Symbolic Z-matrix:
 Charge =  1 Multiplicity = 2

 SCF Done:  E(UM062X) =  -77.8917129035     A.U. after    9 cycles
 SCF Done:  E(UM062X) =  -77.8924952491     A.U. after    9 cycles
 SCF Done:  E(UM062X) =  -77.8929169216     A.U. after    9 cycles
 SCF Done:  E(UM062X) =  -77.8929183787     A.U. after    9 cycles
 Optimization completed.
    -- Stationary point found.

                          Input orientation:
 ---------------------------------------------------------------------
 Center     Atomic      Atomic             Coordinates (Angstroms)
 Number     Number       Type             X           Y           Z
 ---------------------------------------------------------------------
      1          6           0       -1.506027    0.000000    0.000000
      2          6           0        1.506027    0.000000    0.000000
      3          1           0       -1.882547   -1.018676    0.000000
      4          1           0       -1.882528    1.018684    0.000000
      5          1           0        1.882546    1.018677   -0.000000
      6          1           0        1.882527   -1.018685   -0.000000
 ---------------------------------------------------------------------

 Alpha  occ. eigenvalues --  -10.91675 -10.91671  -1.02094  -1.00865  -0.79162
 Alpha  occ. eigenvalues --   -0.78778  -0.55177  -0.50125
 Alpha virt. eigenvalues --   -0.39727  -0.36831  -0.13066  -0.10541  -0.10480
 Alpha virt. eigenvalues --   -0.07577  -0.07452  -0.06221  -0.04781  -0.04458
 Alpha virt. eigenvalues --   -0.02996   0.01581   0.01947   0.09326   0.21324

  Beta  occ. eigenvalues --  -10.91408 -10.91405  -0.99314  -0.98322  -0.78803
  Beta  occ. eigenvalues --   -0.78429  -0.53198
  Beta virt. eigenvalues --   -0.34644  -0.31349  -0.29470  -0.14071  -0.10867
  Beta virt. eigenvalues --   -0.10834  -0.07423  -0.07337  -0.06233  -0.04344
  Beta virt. eigenvalues --   -0.03871  -0.03461  -0.00124   0.02139   0.10230

 Mulliken charges and spin densities:
               1          2
     1  C   -0.062076   0.540757
     2  C   -0.062077   0.540755
     3  H    0.281038  -0.020378
     4  H    0.281038  -0.020378
     5  H    0.281039  -0.020378
     6  H    0.281038  -0.020378
 Sum of Mulliken charges =   1.00000   1.00000

 Dipole moment (field-independent basis, Debye):
    X=             -0.0000    Y=              0.0000    Z=             -0.0000  Tot=              0.0000
 Quadrupole moment (field-independent basis, Debye-Ang):
   XX=              5.9743   YY=             -7.7443   ZZ=            -13.0184
   XY=              0.0000   XZ=             -0.0000   YZ=             -0.0000

 Normal termination of Gaussian 16 at Tue Dec  3 13:26:03 2024.
