 Gaussian 16, Revision A.03,
 Gaussian 16:  ES64L-G16RevA.03 25-Dec-2016

 --------------------------------------------
 #p opt UM062X/6-311+G** nosymm int=superfine
 --------------------------------------------

 -------------------
 Title Card Required
 -------------------
 Symbolic Z-matrix:
 Charge =  0 Multiplicity = 1

 SCF Done:  E(UM062X) =  -438.464033194     A.U. after   15 cycles
 SCF Done:  E(UM062X) =  -438.477799203     A.U. after   13 cycles
 SCF Done:  E(UM062X) =  -438.485263509     A.U. after   13 cycles
 SCF Done:  E(UM062X) =  -438.485333713     A.U. after   10 cycles
 SCF Done:  E(UM062X) =  -438.485343119     A.U. after   11 cycles
 SCF Done:  E(UM062X) =  -438.485388040     A.U. after   10 cycles
 SCF Done:  E(UM062X) =  -438.485391235     A.U. after   10 cycles
 SCF Done:  E(UM062X) =  -438.485391648     A.U. after    8 cycles
 Optimization completed.
    -- Stationary point found.

                          Input orientation:
 ---------------------------------------------------------------------
 Center     Atomic      Atomic             Coordinates (Angstroms)
 Number     Number       Type             X           Y           Z
 ---------------------------------------------------------------------
      1          6           0       -2.235220    0.000000    0.000000
      2         16           0        2.235220    0.000000    0.000000
      3          1           0        2.207725   -1.344339   -0.000941
      4          1           0       -2.191358    1.080217    0.002677
      5          1           0       -2.272949   -0.536001   -0.938113
      6          1           0       -2.273182   -0.540641    0.935437
 ---------------------------------------------------------------------

 Alpha  occ. eigenvalues --  -89.87308 -10.65167  -8.23639  -6.15676  -6.15622
 Alpha  occ. eigenvalues --   -6.15068  -0.83694  -0.75261  -0.55759  -0.55689
 Alpha  occ. eigenvalues --   -0.41810  -0.27749  -0.25635
 Alpha virt. eigenvalues --   -0.17501   0.00785   0.03576   0.03842   0.05460
 Alpha virt. eigenvalues --    0.07443   0.08291   0.08407   0.10645   0.13233
 Alpha virt. eigenvalues --    0.15279   0.15330   0.19863   0.35015   0.37147

  Beta  occ. eigenvalues --  -89.87308 -10.65167  -8.23639  -6.15676  -6.15622
  Beta  occ. eigenvalues --   -6.15068  -0.83694  -0.75261  -0.55759  -0.55689
  Beta  occ. eigenvalues --   -0.41810  -0.27749  -0.25635
  Beta virt. eigenvalues --   -0.17501   0.00785   0.03576   0.03842   0.05460
  Beta virt. eigenvalues --    0.07443   0.08291   0.08407   0.10645   0.13233
  Beta virt. eigenvalues --    0.15279   0.15330   0.19863   0.35015   0.37147

 Mulliken charges and spin densities:
               1          2
     1  C   -0.361897   0.000008
     2  S   -0.298609  -0.000007
     3  H    0.050187   0.000000
     4  H    0.205497  -0.000000
     5  H    0.202417  -0.000000
     6  H    0.202405  -0.000000
 Sum of Mulliken charges =  -0.00000  -0.00000

 Dipole moment (field-independent basis, Debye):
    X=             -5.6735    Y=             -0.9577    Z=             -0.0007  Tot=              5.7538
 Quadrupole moment (field-independent basis, Debye-Ang):
   XX=            -21.1193   YY=            -19.6230   ZZ=            -23.6719
   XY=             -2.1579   XZ=             -0.0015   YZ=              0.0028

 Normal termination of Gaussian 16 at Mon Apr 21 19:34:42 2025.
