 Gaussian 16, Revision A.03,
 Gaussian 16:  ES64L-G16RevA.03 25-Dec-2016

 --------------------------------------------
 #p opt UM062X/6-311+G** nosymm int=superfine
 --------------------------------------------

 -------------------
 Title Card Required
 -------------------
 Symbolic Z-matrix:
 Charge = -1 Multiplicity = 2

 SCF Done:  E(UM062X) =  -50.5571530355     A.U. after   16 cycles
 SCF Done:  E(UM062X) =  -50.5615008347     A.U. after   16 cycles
 SCF Done:  E(UM062X) =  -50.5617980753     A.U. after   22 cycles
 Optimization completed.
    -- Stationary point found.

                          Input orientation:
 ---------------------------------------------------------------------
 Center     Atomic      Atomic             Coordinates (Angstroms)
 Number     Number       Type             X           Y           Z
 ---------------------------------------------------------------------
      1          5           0       -1.866404    0.000000    0.000000
      2          5           0        1.866404    0.000000    0.000000
      3          1           0       -3.135366   -0.000961    0.000000
      4          1           0        3.135366    0.000961   -0.000000
 ---------------------------------------------------------------------

 Alpha  occ. eigenvalues --   -6.91043  -6.91043  -0.34561  -0.34361  -0.09847
 Alpha  occ. eigenvalues --   -0.06074   0.02609
 Alpha virt. eigenvalues --    0.10786   0.12414   0.13912   0.15536   0.16215
 Alpha virt. eigenvalues --    0.21749   0.21916   0.22109   0.22659   0.23391
 Alpha virt. eigenvalues --    0.25625   0.33358   0.37385   0.51014   0.57889

  Beta  occ. eigenvalues --   -6.90962  -6.90961  -0.33508  -0.33407  -0.08721
  Beta  occ. eigenvalues --   -0.05072
  Beta virt. eigenvalues --    0.10534   0.11453   0.12446   0.12945   0.13461
  Beta virt. eigenvalues --    0.13806   0.19186   0.20199   0.20479   0.21395
  Beta virt. eigenvalues --    0.21492   0.22096   0.33176   0.37447   0.50718

 Mulliken charges and spin densities:
               1          2
     1  B   -0.407827   0.510718
     2  B   -0.407827   0.510718
     3  H   -0.092173  -0.010718
     4  H   -0.092173  -0.010718
 Sum of Mulliken charges =  -1.00000   1.00000

 Dipole moment (field-independent basis, Debye):
    X=              0.0000    Y=             -0.0000    Z=              0.0000  Tot=              0.0000
 Quadrupole moment (field-independent basis, Debye-Ang):
   XX=            -38.2639   YY=            -19.2045   ZZ=            -26.7149
   XY=             -0.0018   XZ=              0.0000   YZ=             -0.0000

 Normal termination of Gaussian 16 at Mon Apr 21 17:33:30 2025.
