 Gaussian 16, Revision A.03,
 Gaussian 16:  ES64L-G16RevA.03 25-Dec-2016

 ---------------------------------------------------
 #p UM062X/6-311+G** force int=superfine pop=saveNBO
 ---------------------------------------------------

 -------------------
 Title Card Required
 -------------------
 Symbolic Z-matrix:
 Charge =  0 Multiplicity = 1

                         Standard orientation:
 ---------------------------------------------------------------------
 Center     Atomic      Atomic             Coordinates (Angstroms)
 Number     Number       Type             X           Y           Z
 ---------------------------------------------------------------------
      1         16           0        0.000000    0.000000    1.025200
      2         16           0        0.000000    0.000000   -1.025200
 ---------------------------------------------------------------------

 SCF Done:  E(UM062X) =  -796.297184664     A.U. after    9 cycles

 Unable to determine electronic state:  partially filled degenerate orbitals.
 Alpha  occ. eigenvalues --  -89.96630 -89.96630  -8.32696  -8.32687  -6.24790
 Alpha  occ. eigenvalues --   -6.24787  -6.24698  -6.24668  -6.23927  -6.23925
 Alpha  occ. eigenvalues --   -0.89237  -0.70475  -0.44171  -0.40177  -0.39461
 Alpha  occ. eigenvalues --   -0.28612
 Alpha virt. eigenvalues --   -0.16076  -0.01580   0.03174   0.04541   0.05354
 Alpha virt. eigenvalues --    0.05503   0.07006   0.07700   0.08288   0.14911
 Alpha virt. eigenvalues --    0.29473   0.33207   0.33291   0.34462   0.36355

  Beta  occ. eigenvalues --  -89.96630 -89.96630  -8.32696  -8.32687  -6.24790
  Beta  occ. eigenvalues --   -6.24787  -6.24698  -6.24668  -6.23927  -6.23925
  Beta  occ. eigenvalues --   -0.89237  -0.70475  -0.44171  -0.40177  -0.39461
  Beta  occ. eigenvalues --   -0.28612
  Beta virt. eigenvalues --   -0.16076  -0.01580   0.03174   0.04541   0.05354
  Beta virt. eigenvalues --    0.05503   0.07006   0.07700   0.08288   0.14911
  Beta virt. eigenvalues --    0.29473   0.33207   0.33291   0.34462   0.36355

 Mulliken charges and spin densities:
               1          2
     1  S    0.000000   0.000000
     2  S    0.000000   0.000000
 Sum of Mulliken charges =   0.00000   0.00000

 Dipole moment (field-independent basis, Debye):
    X=              0.0000    Y=             -0.0000    Z=              0.0000  Tot=              0.0000
 Quadrupole moment (field-independent basis, Debye-Ang):
   XX=            -29.1729   YY=            -24.0641   ZZ=            -24.7805
   XY=              0.0000   XZ=              0.0000   YZ=              0.0000

 Summary of Natural Population Analysis:

                                       Natural Population
                Natural  -----------------------------------------------
    Atom  No    Charge         Core      Valence    Rydberg      Total
 -----------------------------------------------------------------------
      S    1    0.00000      4.99988     2.98340    0.01672     8.00000
      S    2   -0.00000      4.99988     2.98340    0.01672     8.00000
 =======================================================================
   * Total *    0.00000      9.99976     5.96680    0.03344    16.00000

 Normal termination of Gaussian 16 at Mon Apr 21 20:08:44 2025.
