 Gaussian 16, Revision A.03,
 Gaussian 16:  ES64L-G16RevA.03 25-Dec-2016

 --------------------------------------------
 #p opt UM062X/6-311+G** nosymm int=superfine
 --------------------------------------------

 -------------------
 Title Card Required
 -------------------
 Symbolic Z-matrix:
 Charge =  1 Multiplicity = 2

 SCF Done:  E(UM062X) =  -379.458144078     A.U. after   52 cycles
 SCF Done:  E(UM062X) =  -379.458318649     A.U. after   52 cycles
 Optimization completed.
    -- Stationary point found.

                          Input orientation:
 ---------------------------------------------------------------------
 Center     Atomic      Atomic             Coordinates (Angstroms)
 Number     Number       Type             X           Y           Z
 ---------------------------------------------------------------------
      1          6           0       -1.069427    0.000000    0.000000
      2         15           0        1.069427    0.000000    0.000000
      3          1           0       -2.170907    0.000000    0.000000
 ---------------------------------------------------------------------

 Alpha  occ. eigenvalues --  -78.40587 -10.96110  -7.21636  -5.33598  -5.32936
 Alpha  occ. eigenvalues --   -5.32699  -1.02712  -0.91593  -0.70171  -0.57656
 Alpha  occ. eigenvalues --   -0.55707
 Alpha virt. eigenvalues --   -0.37332  -0.35579  -0.28224  -0.13788  -0.10470
 Alpha virt. eigenvalues --   -0.09522  -0.09256  -0.09001  -0.05341  -0.05185
 Alpha virt. eigenvalues --   -0.00206   0.04207   0.11342   0.14080   0.14145

  Beta  occ. eigenvalues --  -78.40118 -10.95986  -7.21525  -5.32834  -5.32529
  Beta  occ. eigenvalues --   -5.32294  -1.00071  -0.89069  -0.69021  -0.54380
  Beta virt. eigenvalues --   -0.38887  -0.34497  -0.30567  -0.26714  -0.14952
  Beta virt. eigenvalues --   -0.10932  -0.09354  -0.09336  -0.09101  -0.05353
  Beta virt. eigenvalues --   -0.05344  -0.00994   0.04394   0.11253   0.11281

 Mulliken charges and spin densities:
               1          2
     1  C   -0.017316   0.377713
     2  P    0.695027   0.636644
     3  H    0.322288  -0.014357
 Sum of Mulliken charges =   1.00000   1.00000

 Dipole moment (field-independent basis, Debye):
    X=              0.2085    Y=              0.0000    Z=              0.0000  Tot=              0.2085
 Quadrupole moment (field-independent basis, Debye-Ang):
   XX=             -3.5196   YY=            -16.1000   ZZ=            -18.2703
   XY=             -0.0000   XZ=             -0.0000   YZ=             -0.8573

 Normal termination of Gaussian 16 at Mon Apr 21 19:25:03 2025.
