 Gaussian 16, Revision A.03,
 Gaussian 16:  ES64L-G16RevA.03 25-Dec-2016

 --------------------------------------------
 #p opt UM062X/6-311+G** nosymm int=superfine
 --------------------------------------------

 -------------------
 Title Card Required
 -------------------
 Symbolic Z-matrix:
 Charge =  0 Multiplicity = 1

 SCF Done:  E(UM062X) =  -581.150065557     A.U. after   10 cycles
 SCF Done:  E(UM062X) =  -581.150747024     A.U. after    8 cycles
 SCF Done:  E(UM062X) =  -581.150977455     A.U. after    9 cycles
 SCF Done:  E(UM062X) =  -581.150976785     A.U. after   10 cycles
 SCF Done:  E(UM062X) =  -581.150979070     A.U. after    9 cycles
 SCF Done:  E(UM062X) =  -581.157504168     A.U. after   16 cycles
 SCF Done:  E(UM062X) =  -581.174207762     A.U. after   16 cycles
 SCF Done:  E(UM062X) =  -581.201380715     A.U. after   12 cycles
 SCF Done:  E(UM062X) =  -581.207083913     A.U. after   11 cycles
 SCF Done:  E(UM062X) =  -581.207103040     A.U. after   11 cycles
 SCF Done:  E(UM062X) =  -581.207379051     A.U. after   11 cycles
 SCF Done:  E(UM062X) =  -581.207433144     A.U. after   10 cycles
 SCF Done:  E(UM062X) =  -581.207434075     A.U. after    8 cycles
 SCF Done:  E(UM062X) =  -581.207438138     A.U. after   10 cycles
 SCF Done:  E(UM062X) =  -581.207444749     A.U. after    9 cycles
 SCF Done:  E(UM062X) =  -581.207448793     A.U. after   10 cycles
 SCF Done:  E(UM062X) =  -581.207448985     A.U. after    8 cycles
 Optimization completed.
    -- Stationary point found.

                          Input orientation:
 ---------------------------------------------------------------------
 Center     Atomic      Atomic             Coordinates (Angstroms)
 Number     Number       Type             X           Y           Z
 ---------------------------------------------------------------------
      1         14           0       -1.537518    0.000000    0.000000
      2         14           0        1.537518    0.000000    0.000000
      3          1           0       -2.069889   -1.132488    0.832181
      4          1           0        2.065648    1.134690   -0.831819
      5          1           0       -2.065826    1.133809    0.832975
      6          1           0        2.069067   -1.131740   -0.833641
 ---------------------------------------------------------------------

 Alpha  occ. eigenvalues --  -67.02514 -67.02512  -5.57145  -5.57143  -3.88417
 Alpha  occ. eigenvalues --   -3.88415  -3.87936  -3.87934  -3.87834  -3.87832
 Alpha  occ. eigenvalues --   -0.59397  -0.57166  -0.40198  -0.39434  -0.32295
 Alpha  occ. eigenvalues --   -0.26241
 Alpha virt. eigenvalues --   -0.10322  -0.02790   0.02239   0.02767   0.04053
 Alpha virt. eigenvalues --    0.04946   0.05490   0.05562   0.05586   0.06417
 Alpha virt. eigenvalues --    0.08641   0.08693   0.12436   0.15713   0.27834

  Beta  occ. eigenvalues --  -67.02514 -67.02512  -5.57145  -5.57143  -3.88417
  Beta  occ. eigenvalues --   -3.88415  -3.87936  -3.87934  -3.87834  -3.87832
  Beta  occ. eigenvalues --   -0.59397  -0.57166  -0.40198  -0.39434  -0.32295
  Beta  occ. eigenvalues --   -0.26241
  Beta virt. eigenvalues --   -0.10322  -0.02790   0.02239   0.02767   0.04053
  Beta virt. eigenvalues --    0.04946   0.05490   0.05562   0.05586   0.06417
  Beta virt. eigenvalues --    0.08641   0.08693   0.12436   0.15713   0.27834

 Mulliken charges and spin densities:
               1          2
     1  Si   0.234091  -0.000007
     2  Si   0.234025   0.000007
     3  H   -0.117016  -0.000000
     4  H   -0.117038   0.000000
     5  H   -0.117046  -0.000000
     6  H   -0.117015   0.000000
 Sum of Mulliken charges =  -0.00000   0.00000

 Dipole moment (field-independent basis, Debye):
    X=             -0.0004    Y=             -0.0000    Z=             -0.0004  Tot=              0.0006
 Quadrupole moment (field-independent basis, Debye-Ang):
   XX=            -25.4128   YY=            -31.5800   ZZ=            -33.2841
   XY=             -0.0018   XZ=              2.5488   YZ=              0.0004

 Normal termination of Gaussian 16 at Mon Apr 21 20:33:42 2025.
