 Gaussian 16, Revision A.03,
 Gaussian 16:  ES64L-G16RevA.03 25-Dec-2016

 ---------------------------------------------------
 #p UM062X/6-311+G** force int=superfine pop=saveNBO
 ---------------------------------------------------

 -------------------
 Title Card Required
 -------------------
 Symbolic Z-matrix:
 Charge =  0 Multiplicity = 1

                         Standard orientation:
 ---------------------------------------------------------------------
 Center     Atomic      Atomic             Coordinates (Angstroms)
 Number     Number       Type             X           Y           Z
 ---------------------------------------------------------------------
      1          8           0        0.000000    0.000000    1.268562
      2          8           0        0.000000    0.000000   -1.268562
 ---------------------------------------------------------------------

 SCF Done:  E(UM062X) =  -149.866907333     A.U. after    9 cycles

 Unable to determine electronic state:  partially filled degenerate orbitals.
 Alpha  occ. eigenvalues --  -19.83555 -19.83551  -1.11541  -1.09489  -0.49450
 Alpha  occ. eigenvalues --   -0.48225  -0.44427  -0.41809
 Alpha virt. eigenvalues --   -0.29572  -0.26598   0.10102   0.12743   0.14792
 Alpha virt. eigenvalues --    0.14856   0.20148   0.20436   0.21282   0.30733
 Alpha virt. eigenvalues --    0.90372   0.97930   0.99047   1.03596   1.04928

  Beta  occ. eigenvalues --  -19.83555 -19.83551  -1.11541  -1.09489  -0.49450
  Beta  occ. eigenvalues --   -0.48225  -0.44427  -0.41809
  Beta virt. eigenvalues --   -0.29572  -0.26598   0.10102   0.12743   0.14792
  Beta virt. eigenvalues --    0.14856   0.20148   0.20436   0.21282   0.30733
  Beta virt. eigenvalues --    0.90372   0.97930   0.99047   1.03596   1.04928

 Mulliken charges and spin densities:
               1          2
     1  O   -0.000000   0.000000
     2  O   -0.000000   0.000000
 Sum of Mulliken charges =  -0.00000   0.00000

 Dipole moment (field-independent basis, Debye):
    X=             -0.0000    Y=             -0.0000    Z=             -0.0000  Tot=              0.0000
 Quadrupole moment (field-independent basis, Debye-Ang):
   XX=            -11.9734   YY=            -10.1888   ZZ=             -9.1133
   XY=              0.0000   XZ=             -0.0000   YZ=              0.0000

 Summary of Natural Population Analysis:

                                       Natural Population
                Natural  -----------------------------------------------
    Atom  No    Charge         Core      Valence    Rydberg      Total
 -----------------------------------------------------------------------
      O    1    0.00000      1.00000     2.99912    0.00088     4.00000
      O    2   -0.00000      1.00000     2.99912    0.00088     4.00000
 =======================================================================
   * Total *    0.00000      2.00000     5.99824    0.00176     8.00000

 Normal termination of Gaussian 16 at Mon Apr 21 19:53:22 2025.
