 Gaussian 16, Revision A.03,
 Gaussian 16:  ES64L-G16RevA.03 25-Dec-2016

 --------------------------------------------
 #p opt UM062X/6-311+G** nosymm int=superfine
 --------------------------------------------

 -------------------
 Title Card Required
 -------------------
 Symbolic Z-matrix:
 Charge =  1 Multiplicity = 2

 SCF Done:  E(UM062X) =  -582.127840190     A.U. after   11 cycles
 SCF Done:  E(UM062X) =  -582.128677618     A.U. after    9 cycles
 SCF Done:  E(UM062X) =  -582.129041566     A.U. after   10 cycles
 SCF Done:  E(UM062X) =  -582.129043604     A.U. after    8 cycles
 Optimization completed.
    -- Stationary point found.

                          Input orientation:
 ---------------------------------------------------------------------
 Center     Atomic      Atomic             Coordinates (Angstroms)
 Number     Number       Type             X           Y           Z
 ---------------------------------------------------------------------
      1         14           0       -2.726292    0.000000    0.000000
      2         14           0        2.726292    0.000000    0.000000
      3          1           0        2.817281   -1.461141   -0.000021
      4          1           0       -2.816466   -0.730436    1.265517
      5          1           0        2.817012    0.730615   -1.265374
      6          1           0        2.816241    0.730520    1.265485
      7          1           0       -2.817308    1.461139   -0.000150
      8          1           0       -2.816760   -0.730701   -1.265343
 ---------------------------------------------------------------------

 Alpha  occ. eigenvalues --  -67.21510 -67.21510  -5.76375  -5.76375  -4.08073
 Alpha  occ. eigenvalues --   -4.08072  -4.07252  -4.07252  -4.07252  -4.07252
 Alpha  occ. eigenvalues --   -0.80136  -0.79972  -0.60621  -0.60620  -0.60600
 Alpha  occ. eigenvalues --   -0.60599  -0.37826
 Alpha virt. eigenvalues --   -0.30572  -0.11306  -0.11281  -0.09636  -0.08702
 Alpha virt. eigenvalues --   -0.08701  -0.07624  -0.07623  -0.07428  -0.06770
 Alpha virt. eigenvalues --   -0.06769  -0.05875  -0.05874  -0.04897  -0.00001

  Beta  occ. eigenvalues --  -67.21224 -67.21224  -5.76289  -5.76289  -4.07401
  Beta  occ. eigenvalues --   -4.07401  -4.07153  -4.07153  -4.07153  -4.07153
  Beta  occ. eigenvalues --   -0.78398  -0.78343  -0.60546  -0.60545  -0.60525
  Beta  occ. eigenvalues --   -0.60525
  Beta virt. eigenvalues --   -0.29615  -0.23620  -0.15754  -0.10794  -0.10793
  Beta virt. eigenvalues --   -0.10411  -0.09722  -0.08226  -0.08225  -0.07432
  Beta virt. eigenvalues --   -0.06190  -0.06189  -0.05343  -0.05343  -0.05240

 Mulliken charges and spin densities:
               1          2
     1  Si   0.522199   0.566176
     2  Si   0.522199   0.566177
     3  H   -0.007400  -0.022063
     4  H   -0.007401  -0.022056
     5  H   -0.007396  -0.022058
     6  H   -0.007404  -0.022055
     7  H   -0.007399  -0.022063
     8  H   -0.007399  -0.022058
 Sum of Mulliken charges =   1.00000   1.00000

 Dipole moment (field-independent basis, Debye):
    X=             -0.0000    Y=             -0.0000    Z=              0.0000  Tot=              0.0000
 Quadrupole moment (field-independent basis, Debye-Ang):
   XX=             14.3962   YY=            -26.2461   ZZ=            -26.2459
   XY=              0.0008   XZ=              0.0000   YZ=             -0.0000

 Normal termination of Gaussian 16 at Mon Apr 21 20:12:54 2025.
