 Gaussian 16, Revision A.03,
 Gaussian 16:  ES64L-G16RevA.03 25-Dec-2016

 --------------------------------------------
 #p opt UM062X/6-311+G** nosymm int=superfine
 --------------------------------------------

 -------------------
 Title Card Required
 -------------------
 Symbolic Z-matrix:
 Charge =  1 Multiplicity = 2

 SCF Done:  E(UM062X) =  -78.1344483814     A.U. after    9 cycles
 SCF Done:  E(UM062X) =  -78.1440763318     A.U. after    8 cycles
 SCF Done:  E(UM062X) =  -78.1446924772     A.U. after    8 cycles
 Optimization completed.
    -- Stationary point found.

                          Input orientation:
 ---------------------------------------------------------------------
 Center     Atomic      Atomic             Coordinates (Angstroms)
 Number     Number       Type             X           Y           Z
 ---------------------------------------------------------------------
      1          6           0       -0.614996    0.000000    0.000000
      2          6           0        0.614996    0.000000    0.000000
      3          1           0       -1.203778   -0.917261    0.000000
      4          1           0       -1.203820    0.917170    0.000000
      5          1           0        1.203778    0.917261   -0.000000
      6          1           0        1.203820   -0.917170   -0.000000
 ---------------------------------------------------------------------

 Alpha  occ. eigenvalues --  -10.88277 -10.88051  -1.25008  -0.96806  -0.87419
 Alpha  occ. eigenvalues --   -0.83079  -0.72083  -0.70159
 Alpha virt. eigenvalues --   -0.25742  -0.14839  -0.13616  -0.12463  -0.10395
 Alpha virt. eigenvalues --   -0.08007  -0.06593  -0.04958  -0.04232  -0.03171
 Alpha virt. eigenvalues --   -0.00091   0.03075   0.11747   0.13933   0.21558

  Beta  occ. eigenvalues --  -10.88022 -10.87811  -1.20528  -0.94952  -0.86026
  Beta  occ. eigenvalues --   -0.82168  -0.69892
  Beta virt. eigenvalues --   -0.45468  -0.19546  -0.16480  -0.13493  -0.12433
  Beta virt. eigenvalues --   -0.11064  -0.08959  -0.06639  -0.04773  -0.03034
  Beta virt. eigenvalues --   -0.02791  -0.00346   0.03230   0.12203   0.14489

 Mulliken charges and spin densities:
               1          2
     1  C   -0.044228   0.536561
     2  C   -0.044228   0.536561
     3  H    0.272113  -0.018282
     4  H    0.272115  -0.018279
     5  H    0.272113  -0.018282
     6  H    0.272115  -0.018279
 Sum of Mulliken charges =   1.00000   1.00000

 Dipole moment (field-independent basis, Debye):
    X=              0.0000    Y=              0.0000    Z=              0.0000  Tot=              0.0000
 Quadrupole moment (field-independent basis, Debye-Ang):
   XX=             -6.2435   YY=             -8.5111   ZZ=            -11.0775
   XY=              0.0000   XZ=             -0.0000   YZ=             -0.0000

 Normal termination of Gaussian 16 at Tue Nov 19 10:55:42 2024.
