 Gaussian 16, Revision A.03,
 Gaussian 16:  ES64L-G16RevA.03 25-Dec-2016

 ----------------------------------------------------------------------
 #p opt UM062X/6-311+G** nosymm int=superfine SCF=(MaxCycle=200,NoVarAc
 c,noincfock) guess=read
 ----------------------------------------------------------------------

 -------------------
 Title Card Required
 -------------------
 Symbolic Z-matrix:
 Charge =  0 Multiplicity = 1

 SCF Done:  E(UM062X) =  -474.345124485     A.U. after   33 cycles
 SCF Done:  E(UM062X) =  -474.345414871     A.U. after   23 cycles
 SCF Done:  E(UM062X) =  -474.345421089     A.U. after   22 cycles
 SCF Done:  E(UM062X) =  -474.345427228     A.U. after   35 cycles
 SCF Done:  E(UM062X) =  -474.285855097     A.U. after   94 cycles
 SCF Done:  E(UM062X) =  -474.346588997     A.U. after  106 cycles
 SCF Done:  E(UM062X) =  -474.350356892     A.U. after   37 cycles
 SCF Done:  E(UM062X) =  -474.352244151     A.U. after   30 cycles
 SCF Done:  E(UM062X) =  -474.355562730     A.U. after   22 cycles
 SCF Done:  E(UM062X) =  -474.360555099     A.U. after   25 cycles
 SCF Done:  E(UM062X) =  -474.366687748     A.U. after   23 cycles
 SCF Done:  E(UM062X) =  -474.367381230     A.U. after   36 cycles
 SCF Done:  E(UM062X) =  -474.367970656     A.U. after   20 cycles
 SCF Done:  E(UM062X) =  -474.368741805     A.U. after   28 cycles
 SCF Done:  E(UM062X) =  -474.368752775     A.U. after   18 cycles
 Optimization completed.
    -- Stationary point found.

                          Input orientation:
 ---------------------------------------------------------------------
 Center     Atomic      Atomic             Coordinates (Angstroms)
 Number     Number       Type             X           Y           Z
 ---------------------------------------------------------------------
      1          8           0       -1.786007    0.000000    0.000000
      2         16           0        1.786007    0.000000    0.000000
      3          1           0       -1.788679   -0.970186   -0.000649
      4          1           0        1.680565   -1.306282    0.313950
 ---------------------------------------------------------------------

 Alpha  occ. eigenvalues --  -89.97931 -19.67216  -8.34088  -6.26285  -6.25940
 Alpha  occ. eigenvalues --   -6.25356  -1.08451  -0.84044  -0.52474  -0.49851
 Alpha  occ. eigenvalues --   -0.39712  -0.35825  -0.33739
 Alpha virt. eigenvalues --   -0.22784   0.00947   0.04016   0.05243   0.05421
 Alpha virt. eigenvalues --    0.06506   0.12764   0.19289   0.19895   0.21639
 Alpha virt. eigenvalues --    0.25215   0.30876   0.33989   0.34559   0.38677

  Beta  occ. eigenvalues --  -89.97931 -19.67216  -8.34088  -6.26285  -6.25940
  Beta  occ. eigenvalues --   -6.25356  -1.08451  -0.84044  -0.52474  -0.49851
  Beta  occ. eigenvalues --   -0.39712  -0.35825  -0.33739
  Beta virt. eigenvalues --   -0.22784   0.00947   0.04016   0.05243   0.05421
  Beta virt. eigenvalues --    0.06506   0.12764   0.19289   0.19895   0.21639
  Beta virt. eigenvalues --    0.25215   0.30876   0.33989   0.34559   0.38677

 Mulliken charges and spin densities:
               1          2
     1  O   -0.382706   0.000000
     2  S    0.056119  -0.000000
     3  H    0.238449  -0.000000
     4  H    0.088138   0.000000
 Sum of Mulliken charges =  -0.00000   0.00000

 Dipole moment (field-independent basis, Debye):
    X=              2.3930    Y=             -2.8655    Z=              0.2711  Tot=              3.7431
 Quadrupole moment (field-independent basis, Debye-Ang):
   XX=            -17.8606   YY=            -16.4251   ZZ=            -22.4984
   XY=              1.2954   XZ=              0.4803   YZ=             -0.9131

 Normal termination of Gaussian 16 at Tue Apr 22 01:45:21 2025.
