 Gaussian 16, Revision A.03,
 Gaussian 16:  ES64L-G16RevA.03 25-Dec-2016

 ----------------------------------------------------------------------
 #p opt UM062X/6-311+G** nosymm int=superfine SCF=(MaxCycle=200,NoVarAc
 c,noincfock) guess=read
 ----------------------------------------------------------------------

 -------------------
 Title Card Required
 -------------------
 Symbolic Z-matrix:
 Charge =  0 Multiplicity = 1

 SCF Done:  E(UM062X) =  -435.839355814     A.U. after    9 cycles
 SCF Done:  E(UM062X) =  -435.847094348     A.U. after   11 cycles
 SCF Done:  E(UM062X) =  -435.870030671     A.U. after   14 cycles
 SCF Done:  E(UM062X) =  -435.955672369     A.U. after   12 cycles
 SCF Done:  E(UM062X) =  -436.109714417     A.U. after   11 cycles
 SCF Done:  E(UM062X) =  -436.174330386     A.U. after   11 cycles
 SCF Done:  E(UM062X) =  -436.198931931     A.U. after   11 cycles
 SCF Done:  E(UM062X) =  -436.198955079     A.U. after    8 cycles
 Optimization completed.
    -- Stationary point found.

                          Input orientation:
 ---------------------------------------------------------------------
 Center     Atomic      Atomic             Coordinates (Angstroms)
 Number     Number       Type             X           Y           Z
 ---------------------------------------------------------------------
      1          6           0       -0.764142    0.000000    0.000000
      2         16           0        0.764142    0.000000    0.000000
 ---------------------------------------------------------------------

 Alpha  occ. eigenvalues --  -89.94592 -10.64448  -8.31586  -6.23407  -6.23354
 Alpha  occ. eigenvalues --   -6.23354  -0.93511  -0.59454  -0.41563  -0.41563
 Alpha  occ. eigenvalues --   -0.37680
 Alpha virt. eigenvalues --   -0.04630  -0.04630   0.02795   0.03608   0.04828
 Alpha virt. eigenvalues --    0.04828   0.09340   0.11249   0.11249   0.17235
 Alpha virt. eigenvalues --    0.18007   0.33368   0.33368   0.40262   0.51994

  Beta  occ. eigenvalues --  -89.94592 -10.64448  -8.31586  -6.23407  -6.23354
  Beta  occ. eigenvalues --   -6.23354  -0.93511  -0.59454  -0.41563  -0.41563
  Beta  occ. eigenvalues --   -0.37680
  Beta virt. eigenvalues --   -0.04630  -0.04630   0.02795   0.03608   0.04828
  Beta virt. eigenvalues --    0.04828   0.09340   0.11249   0.11249   0.17235
  Beta virt. eigenvalues --    0.18007   0.33368   0.33368   0.40262   0.51994

 Mulliken charges and spin densities:
               1          2
     1  C   -0.195605   0.000000
     2  S    0.195605  -0.000000
 Sum of Mulliken charges =  -0.00000   0.00000

 Dipole moment (field-independent basis, Debye):
    X=              1.8507    Y=              0.0000    Z=              0.0000  Tot=              1.8507
 Quadrupole moment (field-independent basis, Debye-Ang):
   XX=            -19.7127   YY=            -18.3188   ZZ=            -18.3188
   XY=             -0.0000   XZ=             -0.0000   YZ=              0.0000

 Normal termination of Gaussian 16 at Tue Apr 22 01:25:05 2025.
