 Gaussian 16, Revision A.03,
 Gaussian 16:  ES64L-G16RevA.03 25-Dec-2016

 --------------------------------------------
 #p opt UM062X/6-311+G** nosymm int=superfine
 --------------------------------------------

 -------------------
 Title Card Required
 -------------------
 Symbolic Z-matrix:
 Charge =  0 Multiplicity = 1

 SCF Done:  E(UM062X) =  -77.1852210268     A.U. after    9 cycles
 SCF Done:  E(UM062X) =  -77.2189695960     A.U. after    9 cycles
 SCF Done:  E(UM062X) =  -77.2323373980     A.U. after    9 cycles
 SCF Done:  E(UM062X) =  -77.2323719122     A.U. after    8 cycles
 Optimization completed.
    -- Stationary point found.

                          Input orientation:
 ---------------------------------------------------------------------
 Center     Atomic      Atomic             Coordinates (Angstroms)
 Number     Number       Type             X           Y           Z
 ---------------------------------------------------------------------
      1          6           0       -0.724204    0.000000    0.000000
      2          6           0        0.724204    0.000000    0.000000
      3          1           0       -1.794143    0.000000   -0.000000
      4          1           0        1.794138   -0.000000   -0.000000
 ---------------------------------------------------------------------

 Alpha  occ. eigenvalues --  -10.61365 -10.61298  -0.80635  -0.67615  -0.55586
 Alpha  occ. eigenvalues --   -0.32440  -0.32440
 Alpha virt. eigenvalues --   -0.00104  -0.00104   0.02079   0.02429   0.08072
 Alpha virt. eigenvalues --    0.08072   0.09360   0.11973   0.12058   0.12058
 Alpha virt. eigenvalues --    0.18357   0.23505   0.32876   0.45898   0.58544

  Beta  occ. eigenvalues --  -10.61365 -10.61298  -0.80635  -0.67615  -0.55586
  Beta  occ. eigenvalues --   -0.32440  -0.32440
  Beta virt. eigenvalues --   -0.00104  -0.00104   0.02079   0.02429   0.08072
  Beta virt. eigenvalues --    0.08072   0.09360   0.11973   0.12058   0.12058
  Beta virt. eigenvalues --    0.18357   0.23505   0.32876   0.45898   0.58544

 Mulliken charges and spin densities:
               1          2
     1  C   -0.217073   0.000000
     2  C   -0.217073  -0.000000
     3  H    0.217074  -0.000000
     4  H    0.217072  -0.000000
 Sum of Mulliken charges =  -0.00000  -0.00000

 Dipole moment (field-independent basis, Debye):
    X=             -0.0000    Y=              0.0000    Z=             -0.0000  Tot=              0.0000
 Quadrupole moment (field-independent basis, Debye-Ang):
   XX=             -5.9727   YY=            -14.9060   ZZ=            -14.9060
   XY=             -0.0000   XZ=             -0.0000   YZ=             -0.0000

 Normal termination of Gaussian 16 at Tue Dec  3 20:08:04 2024.
