 Gaussian 16, Revision A.03,
 Gaussian 16:  ES64L-G16RevA.03 25-Dec-2016

 --------------------------------------------
 #p opt UM062X/6-311+G** nosymm int=superfine
 --------------------------------------------

 -------------------
 Title Card Required
 -------------------
 Symbolic Z-matrix:
 Charge =  0 Multiplicity = 1

 SCF Done:  E(UM062X) =  -582.501332296     A.U. after    9 cycles
 SCF Done:  E(UM062X) =  -582.501652141     A.U. after    8 cycles
 SCF Done:  E(UM062X) =  -582.501686748     A.U. after    7 cycles
 Optimization completed.
    -- Stationary point found.

                          Input orientation:
 ---------------------------------------------------------------------
 Center     Atomic      Atomic             Coordinates (Angstroms)
 Number     Number       Type             X           Y           Z
 ---------------------------------------------------------------------
      1         14           0       -1.394819    0.000000    0.000000
      2         14           0        1.394819    0.000000    0.000000
      3          1           0        1.874187   -1.398738   -0.000044
      4          1           0       -1.874244   -0.699213    1.211420
      5          1           0        1.874324    0.699363   -1.211301
      6          1           0        1.874247    0.699264    1.211390
      7          1           0       -1.874189    1.398738   -0.000105
      8          1           0       -1.874326   -0.699415   -1.211270
 ---------------------------------------------------------------------

 Alpha  occ. eigenvalues --  -67.00182 -67.00182  -5.55098  -5.55097  -3.86264
 Alpha  occ. eigenvalues --   -3.86254  -3.86187  -3.86187  -3.86186  -3.86186
 Alpha  occ. eigenvalues --   -0.62152  -0.58825  -0.41632  -0.41631  -0.40365
 Alpha  occ. eigenvalues --   -0.40365  -0.30495
 Alpha virt. eigenvalues --   -0.00721   0.01995   0.03060   0.03060   0.04524
 Alpha virt. eigenvalues --    0.05304   0.05633   0.05633   0.06146   0.06147
 Alpha virt. eigenvalues --    0.08720   0.09105   0.09106   0.15514   0.17733

  Beta  occ. eigenvalues --  -67.00182 -67.00182  -5.55098  -5.55097  -3.86264
  Beta  occ. eigenvalues --   -3.86254  -3.86187  -3.86187  -3.86186  -3.86186
  Beta  occ. eigenvalues --   -0.62152  -0.58825  -0.41632  -0.41631  -0.40365
  Beta  occ. eigenvalues --   -0.40365  -0.30495
  Beta virt. eigenvalues --   -0.00721   0.01995   0.03060   0.03060   0.04524
  Beta virt. eigenvalues --    0.05304   0.05633   0.05633   0.06146   0.06147
  Beta virt. eigenvalues --    0.08720   0.09105   0.09106   0.15514   0.17733

 Mulliken charges and spin densities:
               1          2
     1  Si   0.298072   0.000000
     2  Si   0.298072  -0.000000
     3  H   -0.099360   0.000000
     4  H   -0.099356  -0.000000
     5  H   -0.099356   0.000000
     6  H   -0.099356   0.000000
     7  H   -0.099360  -0.000000
     8  H   -0.099356  -0.000000
 Sum of Mulliken charges =  -0.00000  -0.00000

 Dipole moment (field-independent basis, Debye):
    X=              0.0000    Y=              0.0000    Z=             -0.0000  Tot=              0.0000
 Quadrupole moment (field-independent basis, Debye-Ang):
   XX=            -31.5673   YY=            -31.5531   ZZ=            -31.5530
   XY=              0.0004   XZ=              0.0000   YZ=              0.0000

 Normal termination of Gaussian 16 at Mon Apr 21 20:17:46 2025.
