 Gaussian 16, Revision A.03,
 Gaussian 16:  ES64L-G16RevA.03 25-Dec-2016

 --------------------------------------------
 #p opt UM062X/6-311+G** nosymm int=superfine
 --------------------------------------------

 -------------------
 Title Card Required
 -------------------
 Symbolic Z-matrix:
 Charge =  0 Multiplicity = 1

 SCF Done:  E(UM062X) =  -437.207646882     A.U. after   18 cycles
 SCF Done:  E(UM062X) =  -437.207749811     A.U. after   13 cycles
 SCF Done:  E(UM062X) =  -437.207793387     A.U. after   13 cycles
 SCF Done:  E(UM062X) =  -437.207785646     A.U. after   13 cycles
 SCF Done:  E(UM062X) =  -437.207793754     A.U. after   11 cycles
 Optimization completed.
    -- Stationary point found.

                          Input orientation:
 ---------------------------------------------------------------------
 Center     Atomic      Atomic             Coordinates (Angstroms)
 Number     Number       Type             X           Y           Z
 ---------------------------------------------------------------------
      1          6           0       -1.402140    0.000000    0.000000
      2         16           0        1.402140    0.000000    0.000000
      3          1           0       -2.003015   -0.914552    0.000122
      4          1           0       -2.003642    0.914141   -0.000034
 ---------------------------------------------------------------------

 Alpha  occ. eigenvalues --  -89.90998 -10.69126  -8.26895  -6.19466  -6.18284
 Alpha  occ. eigenvalues --   -6.18179  -0.81389  -0.71448  -0.55586  -0.37491
 Alpha  occ. eigenvalues --   -0.28721  -0.28672
 Alpha virt. eigenvalues --   -0.13681  -0.11633   0.00594   0.04995   0.05994
 Alpha virt. eigenvalues --    0.06551   0.08655   0.08929   0.09084   0.14096
 Alpha virt. eigenvalues --    0.16446   0.16985   0.36054   0.36739   0.37583

  Beta  occ. eigenvalues --  -89.90998 -10.69126  -8.26895  -6.19466  -6.18284
  Beta  occ. eigenvalues --   -6.18179  -0.81389  -0.71448  -0.55586  -0.37491
  Beta  occ. eigenvalues --   -0.28721  -0.28672
  Beta virt. eigenvalues --   -0.13681  -0.11633   0.00594   0.04995   0.05994
  Beta virt. eigenvalues --    0.06551   0.08655   0.08929   0.09084   0.14096
  Beta virt. eigenvalues --    0.16446   0.16985   0.36054   0.36739   0.37583

 Mulliken charges and spin densities:
               1          2
     1  C   -0.240142  -0.000000
     2  S   -0.139551   0.000000
     3  H    0.189844   0.000000
     4  H    0.189849  -0.000000
 Sum of Mulliken charges =  -0.00000   0.00000

 Dipole moment (field-independent basis, Debye):
    X=             -4.4437    Y=             -0.0005    Z=              0.0001  Tot=              4.4437
 Quadrupole moment (field-independent basis, Debye-Ang):
   XX=            -13.4612   YY=            -22.0272   ZZ=            -22.2177
   XY=             -0.0003   XZ=              0.0001   YZ=             -0.0000

 Normal termination of Gaussian 16 at Mon Apr 21 19:39:02 2025.
