 Gaussian 16, Revision A.03,
 Gaussian 16:  ES64L-G16RevA.03 25-Dec-2016

 ---------------------------------------------------------
 #p opt UM062X/6-311+G** nosymm int=superfine SCF=NoVarAcc
 ---------------------------------------------------------

 -------------------
 Title Card Required
 -------------------
 Symbolic Z-matrix:
 Charge =  0 Multiplicity = 1

 SCF Done:  E(UM062X) =  -76.8239489702     A.U. after   10 cycles
 SCF Done:  E(UM062X) =  -76.8239551150     A.U. after    8 cycles
 Optimization completed.
    -- Stationary point found.

                          Input orientation:
 ---------------------------------------------------------------------
 Center     Atomic      Atomic             Coordinates (Angstroms)
 Number     Number       Type             X           Y           Z
 ---------------------------------------------------------------------
      1          6           0       -3.432625    0.000000    0.000000
      2          6           0        3.432625    0.000000    0.000000
      3          1           0       -4.553200   -0.000009    0.000009
      4          1           0        4.553200    0.000007   -0.000007
 ---------------------------------------------------------------------

 Alpha  occ. eigenvalues --  -10.66491 -10.66491  -0.72285  -0.72271  -0.38434
 Alpha  occ. eigenvalues --   -0.38412  -0.19954
 Alpha virt. eigenvalues --   -0.15863  -0.09484  -0.09464   0.03296   0.03586
 Alpha virt. eigenvalues --    0.06092   0.07832   0.08681   0.08786   0.09634
 Alpha virt. eigenvalues --    0.12331   0.17382   0.18093   0.45604   0.46182

  Beta  occ. eigenvalues --  -10.66491 -10.66491  -0.72285  -0.72271  -0.38434
  Beta  occ. eigenvalues --   -0.38412  -0.19954
  Beta virt. eigenvalues --   -0.15863  -0.09484  -0.09464   0.03296   0.03586
  Beta virt. eigenvalues --    0.06092   0.07832   0.08681   0.08786   0.09634
  Beta virt. eigenvalues --    0.12331   0.17382   0.18093   0.45604   0.46182

 Mulliken charges and spin densities:
               1          2
     1  C   -0.128154  -0.000000
     2  C   -0.128154   0.000000
     3  H    0.128154   0.000000
     4  H    0.128154  -0.000000
 Sum of Mulliken charges =  -0.00000   0.00000

 Dipole moment (field-independent basis, Debye):
    X=              0.0000    Y=             -0.0000    Z=              0.0000  Tot=              0.0000
 Quadrupole moment (field-independent basis, Debye-Ang):
   XX=              7.8131   YY=            -14.6007   ZZ=            -14.5989
   XY=              0.0001   XZ=             -0.0001   YZ=             -2.7091

 Normal termination of Gaussian 16 at Tue Dec  3 20:20:37 2024.
