 Gaussian 16, Revision A.03,
 Gaussian 16:  ES64L-G16RevA.03 25-Dec-2016

 --------------------------------------------
 #p opt UM062X/6-311+G** nosymm int=superfine
 --------------------------------------------

 -------------------
 Title Card Required
 -------------------
 Symbolic Z-matrix:
 Charge =  1 Multiplicity = 2

 SCF Done:  E(UM062X) =  -582.132158555     A.U. after   11 cycles
 SCF Done:  E(UM062X) =  -582.132972337     A.U. after    9 cycles
 SCF Done:  E(UM062X) =  -582.133231645     A.U. after    9 cycles
 SCF Done:  E(UM062X) =  -582.133232233     A.U. after    8 cycles
 Optimization completed.
    -- Stationary point found.

                          Input orientation:
 ---------------------------------------------------------------------
 Center     Atomic      Atomic             Coordinates (Angstroms)
 Number     Number       Type             X           Y           Z
 ---------------------------------------------------------------------
      1         14           0       -2.476292    0.000000    0.000000
      2         14           0        2.476292    0.000000    0.000000
      3          1           0        2.581331   -1.460512   -0.000011
      4          1           0       -2.580600   -0.730127    1.264977
      5          1           0        2.581129    0.730291   -1.264838
      6          1           0        2.580393    0.730213    1.264945
      7          1           0       -2.581358    1.460510   -0.000135
      8          1           0       -2.580895   -0.730379   -1.264807
 ---------------------------------------------------------------------

 Alpha  occ. eigenvalues --  -67.22101 -67.22101  -5.76949  -5.76948  -4.08637
 Alpha  occ. eigenvalues --   -4.08637  -4.07822  -4.07822  -4.07822  -4.07822
 Alpha  occ. eigenvalues --   -0.80642  -0.80381  -0.61069  -0.61068  -0.61020
 Alpha  occ. eigenvalues --   -0.61019  -0.39301
 Alpha virt. eigenvalues --   -0.30238  -0.11731  -0.11572  -0.09909  -0.09187
 Alpha virt. eigenvalues --   -0.09185  -0.08028  -0.08028  -0.07569  -0.07087
 Alpha virt. eigenvalues --   -0.07087  -0.06027  -0.06027  -0.04824   0.00447

  Beta  occ. eigenvalues --  -67.21826 -67.21826  -5.76866  -5.76865  -4.07994
  Beta  occ. eigenvalues --   -4.07994  -4.07727  -4.07727  -4.07727  -4.07727
  Beta  occ. eigenvalues --   -0.78921  -0.78785  -0.60975  -0.60974  -0.60919
  Beta  occ. eigenvalues --   -0.60918
  Beta virt. eigenvalues --   -0.32251  -0.23421  -0.16011  -0.12155  -0.12153
  Beta virt. eigenvalues --   -0.10695  -0.10376  -0.08573  -0.08572  -0.07402
  Beta virt. eigenvalues --   -0.06623  -0.06623  -0.05620  -0.05610  -0.05609

 Mulliken charges and spin densities:
               1          2
     1  Si   0.508912   0.556598
     2  Si   0.508912   0.556598
     3  H   -0.002984  -0.018886
     4  H   -0.002966  -0.018855
     5  H   -0.002960  -0.018858
     6  H   -0.002968  -0.018854
     7  H   -0.002984  -0.018887
     8  H   -0.002963  -0.018857
 Sum of Mulliken charges =   1.00000   1.00000

 Dipole moment (field-independent basis, Debye):
    X=              0.0000    Y=             -0.0000    Z=              0.0001  Tot=              0.0001
 Quadrupole moment (field-independent basis, Debye-Ang):
   XX=              8.8342   YY=            -26.2518   ZZ=            -26.2514
   XY=              0.0009   XZ=              0.0001   YZ=             -0.0000

 Normal termination of Gaussian 16 at Mon Apr 21 20:17:24 2025.
