 Gaussian 16, Revision A.03,
 Gaussian 16:  ES64L-G16RevA.03 25-Dec-2016

 --------------------------------------------
 #p opt UM062X/6-311+G** nosymm int=superfine
 --------------------------------------------

 -------------------
 Title Card Required
 -------------------
 Symbolic Z-matrix:
 Charge =  0 Multiplicity = 1

 SCF Done:  E(UM062X) =  -114.138659582     A.U. after   16 cycles
 SCF Done:  E(UM062X) =  -114.138979526     A.U. after   10 cycles
 SCF Done:  E(UM062X) =  -114.139018134     A.U. after    9 cycles
 SCF Done:  E(UM062X) =  -114.139026083     A.U. after   13 cycles
 SCF Done:  E(UM062X) =  -114.139026134     A.U. after   10 cycles
 SCF Done:  E(UM062X) =  -114.139026133     A.U. after   10 cycles
 Optimization completed.
    -- Stationary point found.

                          Input orientation:
 ---------------------------------------------------------------------
 Center     Atomic      Atomic             Coordinates (Angstroms)
 Number     Number       Type             X           Y           Z
 ---------------------------------------------------------------------
      1          6           0       -1.198311    0.000000    0.000000
      2          8           0        1.198311    0.000000    0.000000
      3          1           0       -1.802773   -0.913579   -0.000780
      4          1           0       -1.802776    0.913577   -0.000779
 ---------------------------------------------------------------------

 Alpha  occ. eigenvalues --  -19.66041 -10.69653  -0.97183  -0.81545  -0.55853
 Alpha  occ. eigenvalues --   -0.37345  -0.35413  -0.35327
 Alpha virt. eigenvalues --   -0.13437  -0.09435   0.00561   0.04831   0.06632
 Alpha virt. eigenvalues --    0.07135   0.15321   0.15752   0.20395   0.23190
 Alpha virt. eigenvalues --    0.26175   0.32324   0.41486   0.42664   0.54240

  Beta  occ. eigenvalues --  -19.66041 -10.69653  -0.97183  -0.81545  -0.55853
  Beta  occ. eigenvalues --   -0.37345  -0.35413  -0.35327
  Beta virt. eigenvalues --   -0.13437  -0.09435   0.00561   0.04831   0.06632
  Beta virt. eigenvalues --    0.07135   0.15321   0.15752   0.20395   0.23190
  Beta virt. eigenvalues --    0.26175   0.32324   0.41486   0.42664   0.54240

 Mulliken charges and spin densities:
               1          2
     1  C   -0.155720  -0.000000
     2  O   -0.218766   0.000000
     3  H    0.187243  -0.000000
     4  H    0.187243   0.000000
 Sum of Mulliken charges =  -0.00000   0.00000

 Dipole moment (field-independent basis, Debye):
    X=             -4.9883    Y=             -0.0000    Z=             -0.0020  Tot=              4.9883
 Quadrupole moment (field-independent basis, Debye-Ang):
   XX=             -8.1505   YY=            -12.4137   ZZ=            -12.5721
   XY=             -0.0000   XZ=             -0.0005   YZ=              0.0000

 Normal termination of Gaussian 16 at Mon Apr 21 18:49:14 2025.
