 Gaussian 16, Revision A.03,
 Gaussian 16:  ES64L-G16RevA.03 25-Dec-2016

 --------------------------------------------
 #p opt UM062X/6-311+G** nosymm int=superfine
 --------------------------------------------

 -------------------
 Title Card Required
 -------------------
 Symbolic Z-matrix:
 Charge =  0 Multiplicity = 1

 SCF Done:  E(UM062X) =  -78.2950998767     A.U. after    8 cycles
 SCF Done:  E(UM062X) =  -78.3388683610     A.U. after    8 cycles
 SCF Done:  E(UM062X) =  -78.3801459971     A.U. after   10 cycles
 SCF Done:  E(UM062X) =  -78.3894938189     A.U. after    8 cycles
 SCF Done:  E(UM062X) =  -78.3904609023     A.U. after    9 cycles
 SCF Done:  E(UM062X) =  -78.3904758834     A.U. after    8 cycles
 Optimization completed.
    -- Stationary point found.

                          Input orientation:
 ---------------------------------------------------------------------
 Center     Atomic      Atomic             Coordinates (Angstroms)
 Number     Number       Type             X           Y           Z
 ---------------------------------------------------------------------
      1          6           0       -0.981051    0.000000    0.000000
      2          6           0        0.981051    0.000000    0.000000
      3          1           0       -1.452464   -0.970006    0.000000
      4          1           0       -1.452438    0.970003   -0.000000
      5          1           0        1.452464    0.970006    0.000000
      6          1           0        1.452438   -0.970003   -0.000000
 ---------------------------------------------------------------------

 Alpha  occ. eigenvalues --  -10.60763 -10.60748  -0.77772  -0.71178  -0.52958
 Alpha  occ. eigenvalues --   -0.49435  -0.38624  -0.26456
 Alpha virt. eigenvalues --   -0.06066   0.02225   0.03363   0.05393   0.07376
 Alpha virt. eigenvalues --    0.09033   0.09852   0.10585   0.11442   0.15421
 Alpha virt. eigenvalues --    0.16484   0.20929   0.21219   0.28281   0.39862

  Beta  occ. eigenvalues --  -10.60763 -10.60748  -0.77772  -0.71178  -0.52958
  Beta  occ. eigenvalues --   -0.49435  -0.38624  -0.26456
  Beta virt. eigenvalues --   -0.06066   0.02225   0.03363   0.05393   0.07376
  Beta virt. eigenvalues --    0.09033   0.09852   0.10585   0.11442   0.15421
  Beta virt. eigenvalues --    0.16484   0.20929   0.21219   0.28281   0.39862

 Mulliken charges and spin densities:
               1          2
     1  C   -0.357190  -0.000000
     2  C   -0.357190   0.000000
     3  H    0.178595   0.000000
     4  H    0.178595   0.000000
     5  H    0.178595  -0.000000
     6  H    0.178595  -0.000000
 Sum of Mulliken charges =  -0.00000   0.00000

 Dipole moment (field-independent basis, Debye):
    X=             -0.0000    Y=             -0.0000    Z=             -0.0000  Tot=              0.0000
 Quadrupole moment (field-independent basis, Debye-Ang):
   XX=            -11.3328   YY=            -12.1092   ZZ=            -18.0518
   XY=              0.0001   XZ=              0.0000   YZ=             -0.0000

 Normal termination of Gaussian 16 at Tue Nov 19 11:01:25 2024.
