 Gaussian 16, Revision A.03,
 Gaussian 16:  ES64L-G16RevA.03 25-Dec-2016

 ---------------------------------------------------
 #p UM062X/6-311+G** force int=superfine pop=saveNBO
 ---------------------------------------------------

 -------------------
 Title Card Required
 -------------------
 Symbolic Z-matrix:
 Charge =  0 Multiplicity = 1

                         Standard orientation:
 ---------------------------------------------------------------------
 Center     Atomic      Atomic             Coordinates (Angstroms)
 Number     Number       Type             X           Y           Z
 ---------------------------------------------------------------------
      1         16           0        0.000000    0.000000    1.950200
      2         16           0        0.000000    0.000000   -1.950200
 ---------------------------------------------------------------------

 SCF Done:  E(UM062X) =  -796.039035111     A.U. after    9 cycles

 Unable to determine electronic state:  partially filled degenerate orbitals.
 Alpha  occ. eigenvalues --  -89.98835 -89.98835  -8.34624  -8.34624  -6.26653
 Alpha  occ. eigenvalues --   -6.26653  -6.26634  -6.26634  -6.25807  -6.25807
 Alpha  occ. eigenvalues --   -0.78198  -0.77409  -0.34946  -0.34421  -0.32742
 Alpha  occ. eigenvalues --   -0.31271
 Alpha virt. eigenvalues --   -0.23669  -0.22134   0.02992   0.03854   0.04742
 Alpha virt. eigenvalues --    0.05192   0.07075   0.07342   0.07530   0.12457
 Alpha virt. eigenvalues --    0.31335   0.32268   0.33123   0.35931   0.36043

  Beta  occ. eigenvalues --  -89.98835 -89.98835  -8.34624  -8.34624  -6.26653
  Beta  occ. eigenvalues --   -6.26653  -6.26634  -6.26634  -6.25807  -6.25807
  Beta  occ. eigenvalues --   -0.78198  -0.77409  -0.34946  -0.34421  -0.32742
  Beta  occ. eigenvalues --   -0.31271
  Beta virt. eigenvalues --   -0.23669  -0.22134   0.02992   0.03854   0.04742
  Beta virt. eigenvalues --    0.05192   0.07075   0.07342   0.07530   0.12457
  Beta virt. eigenvalues --    0.31335   0.32268   0.33123   0.35931   0.36043

 Mulliken charges and spin densities:
               1          2
     1  S   -0.000000  -0.000000
     2  S   -0.000000  -0.000000
 Sum of Mulliken charges =  -0.00000  -0.00000

 Dipole moment (field-independent basis, Debye):
    X=             -0.0000    Y=             -0.0000    Z=              0.0000  Tot=              0.0000
 Quadrupole moment (field-independent basis, Debye-Ang):
   XX=            -30.3994   YY=            -25.3941   ZZ=            -22.5912
   XY=              0.0000   XZ=             -0.0000   YZ=              0.0000

 Summary of Natural Population Analysis:

                                       Natural Population
                Natural  -----------------------------------------------
    Atom  No    Charge         Core      Valence    Rydberg      Total
 -----------------------------------------------------------------------
      S    1    0.00000      5.00000     2.99925    0.00076     8.00000
      S    2   -0.00000      5.00000     2.99925    0.00076     8.00000
 =======================================================================
   * Total *    0.00000      9.99999     5.99850    0.00151    16.00000

 Normal termination of Gaussian 16 at Mon Apr 21 20:06:14 2025.
