 Gaussian 16, Revision A.03,
 Gaussian 16:  ES64L-G16RevA.03 25-Dec-2016

 ---------------------------------------
 #p UM062X/6-311+G** force int=superfine
 ---------------------------------------

 -------------------
 Title Card Required
 -------------------
 Symbolic Z-matrix:
 Charge =  0 Multiplicity = 1

                         Standard orientation:
 ---------------------------------------------------------------------
 Center     Atomic      Atomic             Coordinates (Angstroms)
 Number     Number       Type             X           Y           Z
 ---------------------------------------------------------------------
      1          6           0       -0.000000    0.464010    0.000000
      2          6           0       -0.000000   -0.464010    0.000000
      3          1           0        0.877878    1.127001    0.000000
      4          1           0       -0.877744    1.127056    0.000000
      5          1           0       -0.877878   -1.127001    0.000000
      6          1           0        0.877744   -1.127056    0.000000
 ---------------------------------------------------------------------

 SCF Done:  E(UM062X) =  -78.1550009608     A.U. after    9 cycles

 The electronic state is 1-AG.
 Alpha  occ. eigenvalues --  -10.49294 -10.46819  -0.95114  -0.62152  -0.59344
 Alpha  occ. eigenvalues --   -0.53391  -0.44280  -0.33016
 Alpha virt. eigenvalues --    0.03241   0.04082   0.04265   0.06482   0.07430
 Alpha virt. eigenvalues --    0.08957   0.09846   0.16091   0.17246   0.18397
 Alpha virt. eigenvalues --    0.20756   0.25103   0.35062   0.42302   0.42703

  Beta  occ. eigenvalues --  -10.49294 -10.46819  -0.95114  -0.62152  -0.59344
  Beta  occ. eigenvalues --   -0.53391  -0.44280  -0.33016
  Beta virt. eigenvalues --    0.03241   0.04082   0.04265   0.06482   0.07430
  Beta virt. eigenvalues --    0.08957   0.09846   0.16091   0.17246   0.18397
  Beta virt. eigenvalues --    0.20756   0.25103   0.35062   0.42302   0.42703

 Mulliken charges and spin densities:
               1          2
     1  C   -0.250750   0.000000
     2  C   -0.250750   0.000000
     3  H    0.125365   0.000000
     4  H    0.125385  -0.000000
     5  H    0.125365   0.000000
     6  H    0.125385  -0.000000
 Sum of Mulliken charges =  -0.00000  -0.00000

 Dipole moment (field-independent basis, Debye):
    X=             -0.0000    Y=             -0.0000    Z=              0.0000  Tot=              0.0000
 Quadrupole moment (field-independent basis, Debye-Ang):
   XX=            -12.4187   YY=            -12.5643   ZZ=            -13.9910
   XY=             -0.0003   XZ=             -0.0000   YZ=             -0.0000

 Normal termination of Gaussian 16 at Tue Nov 19 11:40:54 2024.
