 Gaussian 16, Revision A.03,
 Gaussian 16:  ES64L-G16RevA.03 25-Dec-2016

 --------------------------------------------
 #p opt UM062X/6-311+G** nosymm int=superfine
 --------------------------------------------

 -------------------
 Title Card Required
 -------------------
 Symbolic Z-matrix:
 Charge =  1 Multiplicity = 2

 SCF Done:  E(UM062X) =  -76.4576722104     A.U. after   12 cycles
 SCF Done:  E(UM062X) =  -76.4923430742     A.U. after   13 cycles
 SCF Done:  E(UM062X) =  -76.5523136683     A.U. after   14 cycles
 SCF Done:  E(UM062X) =  -76.6098320554     A.U. after   11 cycles
 SCF Done:  E(UM062X) =  -76.6107548475     A.U. after   11 cycles
 SCF Done:  E(UM062X) =  -76.6107567847     A.U. after   21 cycles
 Optimization completed.
    -- Stationary point found.

                          Input orientation:
 ---------------------------------------------------------------------
 Center     Atomic      Atomic             Coordinates (Angstroms)
 Number     Number       Type             X           Y           Z
 ---------------------------------------------------------------------
      1          6           0       -0.975508    0.000000    0.000000
      2          6           0        0.975508    0.000000    0.000000
      3          1           0       -2.081688   -0.000001   -0.000001
      4          1           0        2.081632    0.000000   -0.000000
 ---------------------------------------------------------------------

 Alpha  occ. eigenvalues --  -11.01249 -11.01228  -1.06421  -0.99753  -0.79983
 Alpha  occ. eigenvalues --   -0.60272  -0.58279
 Alpha virt. eigenvalues --   -0.39104  -0.37139  -0.36722  -0.14068  -0.11953
 Alpha virt. eigenvalues --   -0.09906  -0.08657  -0.08434  -0.05377  -0.05099
 Alpha virt. eigenvalues --    0.00227   0.02934   0.05835   0.24048   0.30743

  Beta  occ. eigenvalues --  -11.00978 -11.00963  -1.03134  -0.97852  -0.78872
  Beta  occ. eigenvalues --   -0.56441
  Beta virt. eigenvalues --   -0.38691  -0.35382  -0.34707  -0.30275  -0.14951
  Beta virt. eigenvalues --   -0.12260  -0.10546  -0.08997  -0.08862  -0.05417
  Beta virt. eigenvalues --   -0.05208  -0.00742   0.03018   0.05890   0.24151

 Mulliken charges and spin densities:
               1          2
     1  C    0.121050   0.523277
     2  C    0.121048   0.523279
     3  H    0.378962  -0.023279
     4  H    0.378940  -0.023277
 Sum of Mulliken charges =   1.00000   1.00000

 Dipole moment (field-independent basis, Debye):
    X=             -0.0002    Y=             -0.0000    Z=             -0.0000  Tot=              0.0002
 Quadrupole moment (field-independent basis, Debye-Ang):
   XX=              5.6050   YY=            -11.2284   ZZ=            -13.1653
   XY=              0.0000   XZ=              0.0000   YZ=             -0.4941

 Normal termination of Gaussian 16 at Tue Nov 19 13:42:12 2024.
