 Gaussian 16, Revision A.03,
 Gaussian 16:  ES64L-G16RevA.03 25-Dec-2016

 --------------------------------------------
 #p opt UM062X/6-311+G** nosymm int=superfine
 --------------------------------------------

 -------------------
 Title Card Required
 -------------------
 Symbolic Z-matrix:
 Charge =  1 Multiplicity = 2

 SCF Done:  E(UM062X) =  -379.365825708     A.U. after   41 cycles
 SCF Done:  E(UM062X) =  -379.366225598     A.U. after   69 cycles
 Optimization completed.
    -- Stationary point found.

                          Input orientation:
 ---------------------------------------------------------------------
 Center     Atomic      Atomic             Coordinates (Angstroms)
 Number     Number       Type             X           Y           Z
 ---------------------------------------------------------------------
      1          6           0       -1.269427    0.000000    0.000000
      2         15           0        1.269427    0.000000    0.000000
      3          1           0       -2.379258   -0.000000    0.000000
 ---------------------------------------------------------------------

 Alpha  occ. eigenvalues --  -78.39615 -10.97219  -7.20749  -5.32636  -5.32243
 Alpha  occ. eigenvalues --   -5.31559  -1.00772  -0.90534  -0.68169  -0.54125
 Alpha  occ. eigenvalues --   -0.52370
 Alpha virt. eigenvalues --   -0.39469  -0.36909  -0.34321  -0.13338  -0.10530
 Alpha virt. eigenvalues --   -0.08980  -0.08757  -0.08311  -0.05432  -0.05368
 Alpha virt. eigenvalues --   -0.00760   0.03147   0.12144   0.14510   0.14549

  Beta  occ. eigenvalues --  -78.39190 -10.97005  -7.20657  -5.32137  -5.31564
  Beta  occ. eigenvalues --   -5.31303  -0.98458  -0.87558  -0.66999  -0.50944
  Beta virt. eigenvalues --   -0.36693  -0.35785  -0.32832  -0.31711  -0.14444
  Beta virt. eigenvalues --   -0.11079  -0.09010  -0.08885  -0.08598  -0.05530
  Beta virt. eigenvalues --   -0.05525  -0.01883   0.03615   0.11574   0.11854

 Mulliken charges and spin densities:
               1          2
     1  C    0.004874   0.440522
     2  P    0.686827   0.577534
     3  H    0.308299  -0.018056
 Sum of Mulliken charges =   1.00000   1.00000

 Dipole moment (field-independent basis, Debye):
    X=             -0.0932    Y=             -0.0000    Z=              0.0000  Tot=              0.0932
 Quadrupole moment (field-independent basis, Debye-Ang):
   XX=              0.4288   YY=            -19.1782   ZZ=            -16.5454
   XY=              0.0000   XZ=             -0.0000   YZ=             -1.0247

 Normal termination of Gaussian 16 at Mon Apr 21 19:25:11 2025.
