 Gaussian 16, Revision A.03,
 Gaussian 16:  ES64L-G16RevA.03 25-Dec-2016

 --------------------------------------------
 #p opt UM062X/6-311+G** nosymm int=superfine
 --------------------------------------------

 -------------------
 Title Card Required
 -------------------
 Symbolic Z-matrix:
 Charge =  0 Multiplicity = 1

 SCF Done:  E(UM062X) =  -80.4283019084     A.U. after   20 cycles
 SCF Done:  E(UM062X) =  -80.4283065910     A.U. after   15 cycles
 SCF Done:  E(UM062X) =  -80.4283393142     A.U. after   14 cycles
 SCF Done:  E(UM062X) =  -80.4283402958     A.U. after   14 cycles
 SCF Done:  E(UM062X) =  -80.4283405146     A.U. after   12 cycles
 SCF Done:  E(UM062X) =  -80.4283405269     A.U. after   13 cycles
 Optimization completed.
    -- Stationary point found.

                          Input orientation:
 ---------------------------------------------------------------------
 Center     Atomic      Atomic             Coordinates (Angstroms)
 Number     Number       Type             X           Y           Z
 ---------------------------------------------------------------------
      1          5           0       -1.617032    0.000091    0.000000
      2          7           0        1.617083   -0.000037    0.000000
      3          1           0       -2.791721   -0.223844    0.242024
      4          1           0        1.400927    0.689414   -0.742677
 ---------------------------------------------------------------------

 Alpha  occ. eigenvalues --  -14.79985  -7.16329  -0.86454  -0.57793  -0.43330
 Alpha  occ. eigenvalues --   -0.31064  -0.30743
 Alpha virt. eigenvalues --   -0.09761  -0.06619  -0.06440   0.01338   0.04291
 Alpha virt. eigenvalues --    0.05512   0.05532   0.11341   0.15035   0.16430
 Alpha virt. eigenvalues --    0.17244   0.20804   0.24554   0.35499   0.39911

  Beta  occ. eigenvalues --  -14.79985  -7.16329  -0.86454  -0.57793  -0.43330
  Beta  occ. eigenvalues --   -0.31064  -0.30743
  Beta virt. eigenvalues --   -0.09761  -0.06619  -0.06440   0.01338   0.04291
  Beta virt. eigenvalues --    0.05512   0.05532   0.11341   0.15035   0.16430
  Beta virt. eigenvalues --    0.17244   0.20804   0.24554   0.35499   0.39911

 Mulliken charges and spin densities:
               1          2
     1  B    0.031279   0.000000
     2  N   -0.245787  -0.000000
     3  H    0.021744  -0.000000
     4  H    0.192764   0.000000
 Sum of Mulliken charges =  -0.00000   0.00000

 Dipole moment (field-independent basis, Debye):
    X=             -3.2926    Y=              0.7797    Z=             -0.8388  Tot=              3.4861
 Quadrupole moment (field-independent basis, Debye-Ang):
   XX=             -9.9247   YY=            -13.9428   ZZ=            -13.7516
   XY=              2.0020   XZ=             -2.1562   YZ=             -1.2893

 Normal termination of Gaussian 16 at Mon Apr 21 23:04:30 2025.
