 Gaussian 16, Revision A.03,
 Gaussian 16:  ES64L-G16RevA.03 25-Dec-2016

 --------------------------------------------
 #p opt UM062X/6-311+G** nosymm int=superfine
 --------------------------------------------

 -------------------
 Title Card Required
 -------------------
 Symbolic Z-matrix:
 Charge =  1 Multiplicity = 2

 SCF Done:  E(UM062X) =  -76.0657696177     A.U. after   13 cycles
 SCF Done:  E(UM062X) =  -76.1640364104     A.U. after   11 cycles
 SCF Done:  E(UM062X) =  -76.2902787509     A.U. after   10 cycles
 SCF Done:  E(UM062X) =  -76.3637692078     A.U. after   11 cycles
 SCF Done:  E(UM062X) =  -76.3799198923     A.U. after   10 cycles
 SCF Done:  E(UM062X) =  -76.3860763724     A.U. after   10 cycles
 SCF Done:  E(UM062X) =  -76.3861779268     A.U. after    8 cycles
 SCF Done:  E(UM062X) =  -76.3861800882     A.U. after    8 cycles
 Optimization completed.
    -- Stationary point found.

                          Input orientation:
 ---------------------------------------------------------------------
 Center     Atomic      Atomic             Coordinates (Angstroms)
 Number     Number       Type             X           Y           Z
 ---------------------------------------------------------------------
      1          6           0       -0.346377    0.000000    0.000000
      2          6           0        0.346377    0.000000    0.000000
      3          1           0       -1.254356   -0.702194   -0.000000
      4          1           0       -1.253221    0.704565   -0.000000
      5          1           0        1.254356    0.702194    0.000000
      6          1           0        1.253221   -0.704565    0.000000
 ---------------------------------------------------------------------

 Alpha  occ. eigenvalues --  -10.98712 -10.79003  -1.20367  -0.96109  -0.95020
 Alpha  occ. eigenvalues --   -0.86965  -0.86126  -0.55348
 Alpha virt. eigenvalues --   -0.21998  -0.16071  -0.14195  -0.12191  -0.11219
 Alpha virt. eigenvalues --   -0.09350  -0.07940  -0.05950  -0.01338   0.00046
 Alpha virt. eigenvalues --    0.02394   0.02507   0.17837   0.18357   0.21680

  Beta  occ. eigenvalues --  -10.98848 -10.79091  -1.19459  -0.92655  -0.91683
  Beta  occ. eigenvalues --   -0.86916  -0.83861
  Beta virt. eigenvalues --   -0.35515  -0.19114  -0.15904  -0.13801  -0.11795
  Beta virt. eigenvalues --   -0.11091  -0.09178  -0.04250  -0.01946  -0.00472
  Beta virt. eigenvalues --    0.01123   0.03807   0.03865   0.16983   0.17269

 Mulliken charges and spin densities:
               1          2
     1  C   -0.121232   0.070028
     2  C   -0.121232   0.070028
     3  H    0.310547   0.214447
     4  H    0.310685   0.215525
     5  H    0.310547   0.214447
     6  H    0.310685   0.215525
 Sum of Mulliken charges =   1.00000   1.00000

 Dipole moment (field-independent basis, Debye):
    X=              0.0000    Y=             -0.0000    Z=             -0.0000  Tot=              0.0000
 Quadrupole moment (field-independent basis, Debye-Ang):
   XX=             -2.3361   YY=             -8.0914   ZZ=            -10.9366
   XY=             -0.0068   XZ=              0.0000   YZ=             -0.0000

 Normal termination of Gaussian 16 at Tue Nov 19 10:25:20 2024.
