 Gaussian 16, Revision A.03,
 Gaussian 16:  ES64L-G16RevA.03 25-Dec-2016

 --------------------------------------------
 #p opt UM062X/6-311+G** nosymm int=superfine
 --------------------------------------------

 -------------------
 Title Card Required
 -------------------
 Symbolic Z-matrix:
 Charge =  0 Multiplicity = 1

 SCF Done:  E(UM062X) =  -579.892939600     A.U. after   10 cycles
 SCF Done:  E(UM062X) =  -579.896059347     A.U. after    9 cycles
 SCF Done:  E(UM062X) =  -579.896067433     A.U. after    8 cycles
 Optimization completed.
    -- Stationary point found.

                          Input orientation:
 ---------------------------------------------------------------------
 Center     Atomic      Atomic             Coordinates (Angstroms)
 Number     Number       Type             X           Y           Z
 ---------------------------------------------------------------------
      1         14           0       -1.828705    0.000000    0.000000
      2         14           0        1.828705    0.000000    0.000000
      3          1           0       -3.357898   -0.000019   -0.000000
      4          1           0        3.357898    0.000048    0.000000
 ---------------------------------------------------------------------

 Alpha  occ. eigenvalues --  -67.04445 -67.04445  -5.58861  -5.58860  -3.89957
 Alpha  occ. eigenvalues --   -3.89957  -3.89511  -3.89510  -3.89379  -3.89379
 Alpha  occ. eigenvalues --   -0.55097  -0.54352  -0.34846  -0.30106  -0.18716
 Alpha virt. eigenvalues --   -0.09778  -0.09690  -0.07736   0.02298   0.02962
 Alpha virt. eigenvalues --    0.04551   0.05450   0.05748   0.06026   0.07095
 Alpha virt. eigenvalues --    0.08055   0.09377   0.19035   0.29211   0.29533

  Beta  occ. eigenvalues --  -67.04445 -67.04445  -5.58861  -5.58860  -3.89957
  Beta  occ. eigenvalues --   -3.89957  -3.89511  -3.89510  -3.89379  -3.89379
  Beta  occ. eigenvalues --   -0.55097  -0.54352  -0.34846  -0.30106  -0.18716
  Beta virt. eigenvalues --   -0.09778  -0.09690  -0.07736   0.02298   0.02962
  Beta virt. eigenvalues --    0.04551   0.05450   0.05748   0.06026   0.07095
  Beta virt. eigenvalues --    0.08055   0.09377   0.19035   0.29211   0.29533

 Mulliken charges and spin densities:
               1          2
     1  Si   0.143818   0.000000
     2  Si   0.143818  -0.000000
     3  H   -0.143818  -0.000000
     4  H   -0.143818   0.000000
 Sum of Mulliken charges =  -0.00000  -0.00000

 Dipole moment (field-independent basis, Debye):
    X=             -0.0000    Y=              0.0000    Z=             -0.0000  Tot=              0.0000
 Quadrupole moment (field-independent basis, Debye-Ang):
   XX=            -31.2216   YY=            -24.2347   ZZ=            -35.5748
   XY=             -0.0002   XZ=             -0.0000   YZ=              0.0005

 Normal termination of Gaussian 16 at Mon Apr 21 21:24:50 2025.
