 Gaussian 16, Revision A.03,
 Gaussian 16:  ES64L-G16RevA.03 25-Dec-2016

 --------------------------------------------
 #p opt UM062X/6-311+G** nosymm int=superfine
 --------------------------------------------

 -------------------
 Title Card Required
 -------------------
 Symbolic Z-matrix:
 Charge = -1 Multiplicity = 2

 SCF Done:  E(UM062X) =  -51.9992468318     A.U. after   11 cycles
 SCF Done:  E(UM062X) =  -52.0001539320     A.U. after    9 cycles
 SCF Done:  E(UM062X) =  -52.0004318172     A.U. after    9 cycles
 SCF Done:  E(UM062X) =  -52.0004303630     A.U. after   10 cycles
 SCF Done:  E(UM062X) =  -52.0004149809     A.U. after   10 cycles
 SCF Done:  E(UM062X) =  -52.0004327564     A.U. after   10 cycles
 SCF Done:  E(UM062X) =  -52.0004332868     A.U. after    9 cycles
 SCF Done:  E(UM062X) =  -52.0004334811     A.U. after    7 cycles
 Optimization completed.
    -- Stationary point found.

                          Input orientation:
 ---------------------------------------------------------------------
 Center     Atomic      Atomic             Coordinates (Angstroms)
 Number     Number       Type             X           Y           Z
 ---------------------------------------------------------------------
      1          5           0       -1.047274    0.000000    0.000000
      2          5           0        1.047274    0.000000    0.000000
      3          1           0       -1.663728   -1.035921    0.000207
      4          1           0        1.663728    1.035921   -0.000287
      5          1           0       -1.663729    1.035920   -0.000237
      6          1           0        1.663729   -1.035920    0.000252
 ---------------------------------------------------------------------

 Alpha  occ. eigenvalues --   -6.83118  -6.83101  -0.36958  -0.32453  -0.20522
 Alpha  occ. eigenvalues --   -0.17637  -0.08676   0.00365
 Alpha virt. eigenvalues --    0.15750   0.16978   0.17364   0.19253   0.19437
 Alpha virt. eigenvalues --    0.22495   0.22735   0.25569   0.26684   0.33821
 Alpha virt. eigenvalues --    0.34583   0.35648   0.38548   0.43731   0.51658

  Beta  occ. eigenvalues --   -6.83094  -6.83082  -0.35064  -0.31284  -0.20212
  Beta  occ. eigenvalues --   -0.17572  -0.07806
  Beta virt. eigenvalues --    0.11595   0.14445   0.15203   0.16676   0.17157
  Beta virt. eigenvalues --    0.18537   0.18857   0.21934   0.23557   0.28436
  Beta virt. eigenvalues --    0.32950   0.35554   0.35660   0.37910   0.43748

 Mulliken charges and spin densities:
               1          2
     1  B   -0.373542   0.544944
     2  B   -0.373543   0.544945
     3  H   -0.063229  -0.022472
     4  H   -0.063229  -0.022472
     5  H   -0.063229  -0.022472
     6  H   -0.063229  -0.022472
 Sum of Mulliken charges =  -1.00000   1.00000

 Dipole moment (field-independent basis, Debye):
    X=             -0.0000    Y=             -0.0000    Z=             -0.0000  Tot=              0.0000
 Quadrupole moment (field-independent basis, Debye-Ang):
   XX=            -29.7080   YY=            -23.2491   ZZ=            -23.3840
   XY=             -0.0000   XZ=              0.0000   YZ=             -0.0000

 Normal termination of Gaussian 16 at Mon Apr 21 17:21:07 2025.
