 Gaussian 16, Revision A.03,
 Gaussian 16:  ES64L-G16RevA.03 25-Dec-2016

 --------------------------------------------
 #p opt UM062X/6-311+G** nosymm int=superfine
 --------------------------------------------

 -------------------
 Title Card Required
 -------------------
 Symbolic Z-matrix:
 Charge =  1 Multiplicity = 2

 SCF Done:  E(UM062X) =  -1615.52280441     A.U. after   28 cycles
 SCF Done:  E(UM062X) =  -1615.55960818     A.U. after   24 cycles
 SCF Done:  E(UM062X) =  -1615.56298010     A.U. after   28 cycles
 SCF Done:  E(UM062X) =  -1615.56480768     A.U. after   27 cycles
 SCF Done:  E(UM062X) =  -1615.56301743     A.U. after   30 cycles
 SCF Done:  E(UM062X) =  -1615.55818090     A.U. after   30 cycles
 SCF Done:  E(UM062X) =  -1615.55855947     A.U. after   30 cycles
 SCF Done:  E(UM062X) =  -1615.56482707     A.U. after   24 cycles
 SCF Done:  E(UM062X) =  -1615.56440407     A.U. after   30 cycles
 SCF Done:  E(UM062X) =  -1615.56514113     A.U. after   26 cycles
 SCF Done:  E(UM062X) =  -1615.56518627     A.U. after   25 cycles
 SCF Done:  E(UM062X) =  -1615.56519512     A.U. after   24 cycles
 SCF Done:  E(UM062X) =  -1615.56520036     A.U. after   20 cycles
 SCF Done:  E(UM062X) =  -1615.56520392     A.U. after   19 cycles
 SCF Done:  E(UM062X) =  -1615.56520559     A.U. after   20 cycles
 SCF Done:  E(UM062X) =  -1615.56520598     A.U. after   23 cycles
 SCF Done:  E(UM062X) =  -1615.56520628     A.U. after   18 cycles
 SCF Done:  E(UM062X) =  -1615.56520645     A.U. after   17 cycles
 SCF Done:  E(UM062X) =  -1615.56520648     A.U. after   20 cycles
 Optimization completed.
    -- Stationary point found.

                          Input orientation:
 ---------------------------------------------------------------------
 Center     Atomic      Atomic             Coordinates (Angstroms)
 Number     Number       Type             X           Y           Z
 ---------------------------------------------------------------------
      1          6           0       -1.740494    0.000000    0.000000
      2          6           0        1.740494    0.000000    0.000000
      3          6           0       -0.000023   -2.028790   -0.001917
      4          6           0       -0.000011   -3.435694   -0.003238
      5          6           0       -1.132305   -4.277906    0.177609
      6          6           0       -1.347207   -1.457423    0.144356
      7          6           0        0.665440   -5.670456   -0.115162
      8          1           0        1.302421   -6.536578   -0.223891
      9          6           0       -1.717769    0.751773    1.228978
     10          6           0       -0.665435   -5.670672    0.104418
     11          1           0       -1.302406   -6.537006    0.211500
     12          6           0        1.132294   -4.277548   -0.185699
     13          6           0        1.347156   -1.457131   -0.147133
     14          6           0        1.835438    2.178211   -1.366860
     15          6           0       -1.855350    0.424909   -1.368926
     16          6           0       -1.824986    2.744109    2.657929
     17          1           0       -1.929353    3.819846    2.738811
     18          6           0       -2.355308   -3.707773    0.380126
     19          1           0       -3.253443   -4.293397    0.537453
     20          6           0       -1.866876    1.778655   -1.846615
     21          6           0        2.426867   -2.294170   -0.352319
     22          1           0        3.402488   -1.830205   -0.459152
     23          6           0        1.855304    0.422307    1.369736
     24          6           0        1.866985    1.775150    1.849971
     25          6           0        2.355279   -3.707019   -0.387192
     26          1           0        3.253415   -4.292333   -0.545665
     27          6           0       -1.834998    2.175652    1.370972
     28          6           0       -1.525071    0.017149    2.437779
     29          1           0       -1.397588   -1.053199    2.388652
     30          6           0        1.896846   -0.600842    2.370073
     31          1           0        1.915508   -1.636048    2.065630
     32          6           0       -1.679049    1.988660    3.802677
     33          1           0       -1.683190    2.463211    4.776401
     34          6           0       -2.426914   -2.294865    0.347915
     35          1           0       -3.402545   -1.831115    0.455590
     36          6           0       -1.879504    2.018831   -3.234899
     37          1           0       -1.871514    3.049040   -3.571354
     38          6           0        1.717817    0.754104   -1.227542
     39          6           0       -1.893062    3.133174    0.298880
     40          1           0       -1.931724    4.164473    0.635571
     41          6           0       -1.915082    1.003803   -4.163784
     42          1           0       -1.938744    1.231244   -5.222655
     43          6           0       -1.876742    2.967792   -1.038992
     44          1           0       -1.894969    3.886796   -1.616786
     45          6           0        1.879339    2.012706    3.238708
     46          1           0        1.871441    3.042281    3.577101
     47          6           0       -1.511660    0.607615    3.680952
     48          1           0       -1.370555   -0.007670    4.561275
     49          6           0       -1.897170   -0.596344   -2.371187
     50          1           0       -1.915879   -1.632120   -2.068695
     51          6           0        1.914562    0.995922    4.165683
     52          1           0        1.938000    1.221363    5.224987
     53          6           0        1.825436    2.749093   -2.652745
     54          1           0        1.930131    3.824946   -2.731621
     55          6           0        1.940793   -0.329309    3.715508
     56          1           0        1.991285   -1.147612    4.423445
     57          6           0        1.679104    1.995842   -3.798891
     58          1           0        1.683241    2.472226   -4.771720
     59          6           0        1.893919    3.133689   -0.292974
     60          1           0        1.933041    4.165602   -0.627725
     61          6           0       -1.941349   -0.322269   -3.716102
     62          1           0       -1.992051   -1.139232   -4.425569
     63          6           0        1.877395    2.965797    1.044586
     64          1           0        1.895928    3.883706    1.624110
     65          6           0        1.524761    0.021805   -2.437700
     66          1           0        1.397000   -1.048600   -2.390551
     67          6           0        1.511330    0.614615   -3.679753
     68          1           0        1.369914    0.001037   -4.561217
 ---------------------------------------------------------------------

 Alpha  occ. eigenvalues --  -10.70662 -10.70661 -10.68693 -10.68693 -10.68619
 Alpha  occ. eigenvalues --  -10.68618 -10.68266 -10.68266 -10.68242 -10.68241
 Alpha  occ. eigenvalues --  -10.67996 -10.67655 -10.67650 -10.66696 -10.66695
 Alpha  occ. eigenvalues --  -10.66592 -10.66592 -10.65892 -10.65892 -10.65892
 Alpha  occ. eigenvalues --  -10.65891 -10.65726 -10.65726 -10.65647 -10.65646
 Alpha  occ. eigenvalues --  -10.65604 -10.65604 -10.65554 -10.65554 -10.65370
 Alpha  occ. eigenvalues --  -10.65370 -10.65355 -10.65355 -10.65271 -10.65271
 Alpha  occ. eigenvalues --  -10.65117 -10.65117 -10.64794 -10.64793 -10.63954
 Alpha  occ. eigenvalues --  -10.63671 -10.63569  -1.11572  -1.10380  -1.09884
 Alpha  occ. eigenvalues --   -1.08198  -1.07828  -1.05016  -1.04985  -1.02430
 Alpha  occ. eigenvalues --   -1.02159  -1.01026  -1.00079  -0.97891  -0.97656
 Alpha  occ. eigenvalues --   -0.96632  -0.96305  -0.94776  -0.93537  -0.93433
 Alpha  occ. eigenvalues --   -0.92859  -0.91638  -0.87295  -0.87058  -0.84944
 Alpha  occ. eigenvalues --   -0.84807  -0.82955  -0.81528  -0.80562  -0.79709
 Alpha  occ. eigenvalues --   -0.79637  -0.79524  -0.77211  -0.76238  -0.76125
 Alpha  occ. eigenvalues --   -0.75888  -0.75237  -0.73193  -0.70059  -0.69563
 Alpha  occ. eigenvalues --   -0.68585  -0.68493  -0.67735  -0.67626  -0.66877
 Alpha  occ. eigenvalues --   -0.66859  -0.65715  -0.65324  -0.65214  -0.64606
 Alpha  occ. eigenvalues --   -0.63209  -0.62657  -0.62392  -0.62079  -0.60885
 Alpha  occ. eigenvalues --   -0.60876  -0.60499  -0.60111  -0.59981  -0.59861
 Alpha  occ. eigenvalues --   -0.59505  -0.58762  -0.58601  -0.58064  -0.57559
 Alpha  occ. eigenvalues --   -0.57392  -0.57109  -0.55872  -0.55633  -0.55627
 Alpha  occ. eigenvalues --   -0.54899  -0.54164  -0.52977  -0.52831  -0.52565
 Alpha  occ. eigenvalues --   -0.52415  -0.52338  -0.51933  -0.51018  -0.50970
 Alpha  occ. eigenvalues --   -0.50838  -0.50575  -0.49595  -0.49554  -0.49396
 Alpha  occ. eigenvalues --   -0.48299  -0.48085  -0.48047  -0.45727  -0.44658
 Alpha  occ. eigenvalues --   -0.43694  -0.42823  -0.40684  -0.40398  -0.39194
 Alpha  occ. eigenvalues --   -0.38107  -0.37567  -0.36957  -0.29922
 Alpha virt. eigenvalues --   -0.21712  -0.15942  -0.15505  -0.14374  -0.10725
 Alpha virt. eigenvalues --   -0.09928  -0.08911  -0.08566  -0.08317  -0.07602
 Alpha virt. eigenvalues --   -0.07530  -0.07469  -0.06620  -0.06269  -0.06233

  Beta  occ. eigenvalues --  -10.70495 -10.70494 -10.68742 -10.68741 -10.68664
  Beta  occ. eigenvalues --  -10.68664 -10.68221 -10.68220 -10.68202 -10.68201
  Beta  occ. eigenvalues --  -10.67967 -10.67674 -10.67669 -10.66692 -10.66691
  Beta  occ. eigenvalues --  -10.66586 -10.66585 -10.65857 -10.65856 -10.65851
  Beta  occ. eigenvalues --  -10.65851 -10.65694 -10.65693 -10.65624 -10.65623
  Beta  occ. eigenvalues --  -10.65607 -10.65607 -10.65573 -10.65572 -10.65387
  Beta  occ. eigenvalues --  -10.65387 -10.65374 -10.65374 -10.65267 -10.65267
  Beta  occ. eigenvalues --  -10.65104 -10.65104 -10.64794 -10.64793 -10.63951
  Beta  occ. eigenvalues --  -10.63671 -10.63569  -1.11428  -1.10210  -1.09813
  Beta  occ. eigenvalues --   -1.08095  -1.07741  -1.04844  -1.04836  -1.02321
  Beta  occ. eigenvalues --   -1.02065  -1.00844  -0.99917  -0.97790  -0.97562
  Beta  occ. eigenvalues --   -0.96526  -0.96216  -0.94734  -0.93467  -0.93337
  Beta  occ. eigenvalues --   -0.92795  -0.91554  -0.86991  -0.86701  -0.84880
  Beta  occ. eigenvalues --   -0.84747  -0.82881  -0.81433  -0.80470  -0.79629
  Beta  occ. eigenvalues --   -0.79569  -0.79454  -0.77109  -0.76103  -0.75957
  Beta  occ. eigenvalues --   -0.75727  -0.75194  -0.73078  -0.69944  -0.69419
  Beta  occ. eigenvalues --   -0.68478  -0.68377  -0.67692  -0.67583  -0.66758
  Beta  occ. eigenvalues --   -0.66743  -0.65622  -0.65171  -0.65070  -0.64512
  Beta  occ. eigenvalues --   -0.63042  -0.62604  -0.62312  -0.62013  -0.60748
  Beta  occ. eigenvalues --   -0.60665  -0.60380  -0.60027  -0.59927  -0.59616
  Beta  occ. eigenvalues --   -0.59355  -0.58664  -0.58470  -0.57986  -0.57469
  Beta  occ. eigenvalues --   -0.57180  -0.56679  -0.55658  -0.55585  -0.55581
  Beta  occ. eigenvalues --   -0.54862  -0.53874  -0.52880  -0.52747  -0.52513
  Beta  occ. eigenvalues --   -0.52313  -0.52221  -0.51911  -0.50956  -0.50833
  Beta  occ. eigenvalues --   -0.50769  -0.50160  -0.49435  -0.49414  -0.48851
  Beta  occ. eigenvalues --   -0.48211  -0.47799  -0.47371  -0.44947  -0.44185
  Beta  occ. eigenvalues --   -0.42988  -0.42467  -0.40416  -0.40339  -0.38579
  Beta  occ. eigenvalues --   -0.38045  -0.37181  -0.36944
  Beta virt. eigenvalues --   -0.20371  -0.18428  -0.15888  -0.15509  -0.14445
  Beta virt. eigenvalues --   -0.10372  -0.09525  -0.08559  -0.08535  -0.07979
  Beta virt. eigenvalues --   -0.07626  -0.07551  -0.07302  -0.06612  -0.06328

 Mulliken charges and spin densities:
               1          2
     1  C   -0.060111   0.332084
     2  C   -0.060275   0.331972
     3  C    0.384041   0.027199
     4  C    0.101572  -0.007787
     5  C    0.103332   0.008837
     6  C    0.325340  -0.031412
     7  C   -0.377345   0.000615
     8  H    0.176639   0.000008
     9  C   -0.087173  -0.056945
    10  C   -0.377293   0.000615
    11  H    0.176638   0.000008
    12  C    0.103299   0.008850
    13  C    0.325448  -0.031409
    14  C    0.607512   0.043147
    15  C    0.277201  -0.077544
    16  C   -0.432000  -0.038167
    17  H    0.163709   0.001134
    18  C   -0.354367  -0.001450
    19  H    0.174933   0.000052
    20  C    0.367024   0.114805
    21  C   -0.191499   0.033480
    22  H    0.178542  -0.000518
    23  C    0.277143  -0.077474
    24  C    0.367288   0.114738
    25  C   -0.354366  -0.001448
    26  H    0.174934   0.000051
    27  C    0.606988   0.043126
    28  C   -0.099795   0.089779
    29  H    0.215897  -0.005118
    30  C   -0.263379   0.038827
    31  H    0.223272  -0.003988
    32  C   -0.385564   0.066271
    33  H    0.181724  -0.003819
    34  C   -0.191260   0.033534
    35  H    0.178553  -0.000518
    36  C   -0.065598  -0.069277
    37  H    0.159704   0.001446
    38  C   -0.087485  -0.056955
    39  C   -0.377880   0.040963
    40  H    0.163712  -0.001714
    41  C   -0.205473   0.076638
    42  H    0.181521  -0.004081
    43  C   -0.390928   0.006805
    44  H    0.161471  -0.000471
    45  C   -0.065304  -0.069255
    46  H    0.159696   0.001445
    47  C    0.055605  -0.040010
    48  H    0.166459   0.000362
    49  C   -0.263454   0.038882
    50  H    0.223277  -0.003987
    51  C   -0.205220   0.076663
    52  H    0.181519  -0.004083
    53  C   -0.431763  -0.038164
    54  H    0.163712   0.001134
    55  C   -0.511754  -0.032004
    56  H    0.176449   0.001530
    57  C   -0.385605   0.066254
    58  H    0.181725  -0.003818
    59  C   -0.378397   0.040939
    60  H    0.163734  -0.001711
    61  C   -0.511468  -0.032008
    62  H    0.176444   0.001530
    63  C   -0.391364   0.006837
    64  H    0.161496  -0.000471
    65  C   -0.099443   0.089785
    66  H    0.215896  -0.005117
    67  C    0.055661  -0.039983
    68  H    0.166452   0.000363
 Sum of Mulliken charges =   1.00000   1.00000

 Dipole moment (field-independent basis, Debye):
    X=              0.0006    Y=              2.6008    Z=              0.0024  Tot=              2.6008
 Quadrupole moment (field-independent basis, Debye-Ang):
   XX=           -221.5692   YY=           -174.5923   ZZ=           -176.5357
   XY=              0.0042   XZ=              2.3575   YZ=              0.0013

 Normal termination of Gaussian 16 at Sat Nov 16 05:01:40 2024.
