 Gaussian 16, Revision A.03,
 Gaussian 16:  ES64L-G16RevA.03 25-Dec-2016

 --------------------------------------------
 #p opt UM062X/6-311+G** nosymm int=superfine
 --------------------------------------------

 -------------------
 Title Card Required
 -------------------
 Symbolic Z-matrix:
 Charge =  0 Multiplicity = 1

 SCF Done:  E(UM062X) =  -92.8669072954     A.U. after   14 cycles
 SCF Done:  E(UM062X) =  -92.8688397588     A.U. after   11 cycles
 SCF Done:  E(UM062X) =  -92.8688506095     A.U. after    8 cycles
 Optimization completed.
    -- Stationary point found.

                          Input orientation:
 ---------------------------------------------------------------------
 Center     Atomic      Atomic             Coordinates (Angstroms)
 Number     Number       Type             X           Y           Z
 ---------------------------------------------------------------------
      1          6           0       -1.372395    0.000000    0.000000
      2          7           0        1.372395    0.000000    0.000000
      3          1           0       -2.497417    0.000000    0.000000
 ---------------------------------------------------------------------

 Alpha  occ. eigenvalues --  -14.84307 -10.75363  -0.79630  -0.77869  -0.44423
 Alpha  occ. eigenvalues --   -0.28479  -0.28479
 Alpha virt. eigenvalues --   -0.16416  -0.16416  -0.08871   0.00553   0.07004
 Alpha virt. eigenvalues --    0.07004   0.07287   0.13156   0.17099   0.17099
 Alpha virt. eigenvalues --    0.17537   0.25446   0.43516   0.52710   0.52710

  Beta  occ. eigenvalues --  -14.84307 -10.75363  -0.79630  -0.77869  -0.44423
  Beta  occ. eigenvalues --   -0.28479  -0.28479
  Beta virt. eigenvalues --   -0.16416  -0.16416  -0.08871   0.00553   0.07004
  Beta virt. eigenvalues --    0.07004   0.07287   0.13156   0.17099   0.17099
  Beta virt. eigenvalues --    0.17537   0.25446   0.43516   0.52710   0.52710

 Mulliken charges and spin densities:
               1          2
     1  C   -0.006724  -0.000000
     2  N   -0.180298   0.000000
     3  H    0.187022   0.000000
 Sum of Mulliken charges =  -0.00000   0.00000

 Dipole moment (field-independent basis, Debye):
    X=             -4.6005    Y=              0.0000    Z=              0.0000  Tot=              4.6005
 Quadrupole moment (field-independent basis, Debye-Ang):
   XX=             -5.6256   YY=            -14.3008   ZZ=            -14.3008
   XY=             -0.0000   XZ=             -0.0000   YZ=              0.0000

 Normal termination of Gaussian 16 at Mon Apr 21 18:38:33 2025.
