 Gaussian 16, Revision A.03,
 Gaussian 16:  ES64L-G16RevA.03 25-Dec-2016

 ---------------------------------------------------------------------
 #p opt UM062X/6-311+G** nosymm int=superfine SCF=(Tight,MaxCycle=200)
 ---------------------------------------------------------------------

 -------------------
 Title Card Required
 -------------------
 Symbolic Z-matrix:
 Charge =  1 Multiplicity = 2

 SCF Done:  E(UM062X) =  -1615.32622730     A.U. after   22 cycles
 SCF Done:  E(UM062X) =  -1615.44492249     A.U. after   21 cycles
 SCF Done:  E(UM062X) =  -1615.55692597     A.U. after   19 cycles
 SCF Done:  E(UM062X) =  -1615.56006246     A.U. after   19 cycles
 SCF Done:  E(UM062X) =  -1615.54592725     A.U. after   24 cycles
 SCF Done:  E(UM062X) =  -1615.56197037     A.U. after   20 cycles
 SCF Done:  E(UM062X) =  -1615.55950038     A.U. after   21 cycles
 SCF Done:  E(UM062X) =  -1615.56248470     A.U. after   19 cycles
 SCF Done:  E(UM062X) =  -1615.56270787     A.U. after   19 cycles
 SCF Done:  E(UM062X) =  -1615.56292610     A.U. after   19 cycles
 SCF Done:  E(UM062X) =  -1615.56293766     A.U. after   17 cycles
 SCF Done:  E(UM062X) =  -1615.56294505     A.U. after   16 cycles
 SCF Done:  E(UM062X) =  -1615.56294685     A.U. after   14 cycles
 SCF Done:  E(UM062X) =  -1615.56294736     A.U. after   14 cycles
 SCF Done:  E(UM062X) =  -1615.56294768     A.U. after   12 cycles
 Optimization completed.
    -- Stationary point found.

                          Input orientation:
 ---------------------------------------------------------------------
 Center     Atomic      Atomic             Coordinates (Angstroms)
 Number     Number       Type             X           Y           Z
 ---------------------------------------------------------------------
      1          6           0       -1.070038    0.000000    0.000000
      2          6           0        1.070038    0.000000    0.000000
      3          6           0        0.000133   -2.179627    0.000301
      4          6           0        0.000187   -3.547229    0.000380
      5          6           0       -1.122617   -4.328239    0.325923
      6          6           0       -1.174201   -1.478146    0.310317
      7          6           0        0.652455   -5.725340   -0.189810
      8          1           0        1.253411   -6.605570   -0.368531
      9          6           0       -1.422036    0.886699    1.124489
     10          6           0       -0.651899   -5.725359    0.190962
     11          1           0       -1.252784   -6.605606    0.369843
     12          6           0        1.123031   -4.328205   -0.325122
     13          6           0        1.174366   -1.478154   -0.310023
     14          6           0        1.629569    2.297737   -1.067964
     15          6           0       -1.431950    0.242172   -1.426795
     16          6           0       -1.860623    3.010687    2.268360
     17          1           0       -2.020590    4.080416    2.199894
     18          6           0       -2.274122   -3.647034    0.666104
     19          1           0       -3.186492   -4.168485    0.932833
     20          6           0       -1.552379    1.515698   -2.057448
     21          6           0        2.294123   -2.213543   -0.646669
     22          1           0        3.227948   -1.707818   -0.868910
     23          6           0        1.431753    0.242528    1.426815
     24          6           0        1.552084    1.516248    2.057171
     25          6           0        2.274443   -3.646975   -0.665579
     26          1           0        3.186811   -4.168400   -0.932363
     27          6           0       -1.629042    2.298064    1.067504
     28          6           0       -1.447048    0.295577    2.411065
     29          1           0       -1.266859   -0.764065    2.507162
     30          6           0        1.599233   -0.882144    2.274863
     31          1           0        1.555137   -1.880756    1.870824
     32          6           0       -1.888879    2.396801    3.496895
     33          1           0       -2.069798    2.973290    4.395760
     34          6           0       -2.293954   -2.213606    0.646815
     35          1           0       -3.227877   -1.707942    0.868771
     36          6           0       -1.762707    1.591475   -3.452418
     37          1           0       -1.830866    2.575506   -3.901416
     38          6           0        1.422072    0.886439   -1.124628
     39          6           0       -1.583843    3.126027   -0.104814
     40          1           0       -1.627070    4.190170    0.106239
     41          6           0       -1.909085    0.473587   -4.239427
     42          1           0       -2.085688    0.567206   -5.303795
     43          6           0       -1.515976    2.799307   -1.412078
     44          1           0       -1.511202    3.639349   -2.099947
     45          6           0        1.762368    1.592377    3.452124
     46          1           0        1.830280    2.576524    3.900906
     47          6           0       -1.673550    1.015591    3.563449
     48          1           0       -1.674070    0.505741    4.519291
     49          6           0       -1.599145   -0.882740   -2.274620
     50          1           0       -1.554800   -1.881261   -1.870392
     51          6           0        1.909015    0.474672    4.239362
     52          1           0        2.085621    0.568536    5.303708
     53          6           0        1.861705    3.009924   -2.268975
     54          1           0        2.022100    4.079604   -2.200788
     55          6           0        1.841424   -0.777683    3.630032
     56          1           0        1.976123   -1.680565    4.213109
     57          6           0        1.889918    2.395678   -3.497335
     58          1           0        2.071366    2.971822   -4.396313
     59          6           0        1.584192    3.126029    0.104101
     60          1           0        1.627633    4.190104   -0.107255
     61          6           0       -1.841207   -0.778638   -3.629830
     62          1           0       -1.975502   -1.681680   -4.212750
     63          6           0        1.515798    2.799685    1.411457
     64          1           0        1.510692    3.639927    2.099081
     65          6           0        1.447223    0.294911   -2.411013
     66          1           0        1.266855   -0.764734   -2.506750
     67          6           0        1.674079    1.014526   -3.563568
     68          1           0        1.674572    0.504426   -4.519277
 ---------------------------------------------------------------------

 Alpha  occ. eigenvalues --  -10.71978 -10.71973 -10.68808 -10.68807 -10.68540
 Alpha  occ. eigenvalues --  -10.68539 -10.68530 -10.68530 -10.67854 -10.67853
 Alpha  occ. eigenvalues --  -10.66959 -10.66958 -10.66790 -10.66789 -10.66660
 Alpha  occ. eigenvalues --  -10.66659 -10.66084 -10.66084 -10.66004 -10.66004
 Alpha  occ. eigenvalues --  -10.65962 -10.65962 -10.65926 -10.65925 -10.65662
 Alpha  occ. eigenvalues --  -10.65662 -10.65575 -10.65574 -10.65569 -10.65568
 Alpha  occ. eigenvalues --  -10.65380 -10.65380 -10.65347 -10.65347 -10.65242
 Alpha  occ. eigenvalues --  -10.65242 -10.64962 -10.64961 -10.64643 -10.64086
 Alpha  occ. eigenvalues --  -10.63989 -10.62790  -1.12977  -1.10410  -1.09880
 Alpha  occ. eigenvalues --   -1.08533  -1.07847  -1.06160  -1.04343  -1.02755
 Alpha  occ. eigenvalues --   -1.02297  -1.00694  -1.00237  -0.97932  -0.97744
 Alpha  occ. eigenvalues --   -0.96966  -0.96230  -0.94935  -0.93452  -0.93419
 Alpha  occ. eigenvalues --   -0.92705  -0.91919  -0.87844  -0.87096  -0.84978
 Alpha  occ. eigenvalues --   -0.84752  -0.82840  -0.81620  -0.81207  -0.79938
 Alpha  occ. eigenvalues --   -0.79750  -0.79521  -0.77755  -0.76406  -0.76185
 Alpha  occ. eigenvalues --   -0.75514  -0.75335  -0.73842  -0.70154  -0.69937
 Alpha  occ. eigenvalues --   -0.69066  -0.68302  -0.67767  -0.67578  -0.67057
 Alpha  occ. eigenvalues --   -0.66814  -0.65538  -0.65252  -0.64997  -0.64839
 Alpha  occ. eigenvalues --   -0.63558  -0.63072  -0.62259  -0.62202  -0.61466
 Alpha  occ. eigenvalues --   -0.61280  -0.60703  -0.60269  -0.60207  -0.59968
 Alpha  occ. eigenvalues --   -0.59605  -0.58859  -0.58599  -0.58089  -0.57781
 Alpha  occ. eigenvalues --   -0.57424  -0.56255  -0.55819  -0.55739  -0.55698
 Alpha  occ. eigenvalues --   -0.54906  -0.54506  -0.53709  -0.52883  -0.52757
 Alpha  occ. eigenvalues --   -0.52566  -0.52204  -0.52038  -0.51635  -0.51057
 Alpha  occ. eigenvalues --   -0.50927  -0.50907  -0.50559  -0.49304  -0.48840
 Alpha  occ. eigenvalues --   -0.48728  -0.48481  -0.48129  -0.44327  -0.43861
 Alpha  occ. eigenvalues --   -0.43319  -0.43275  -0.40826  -0.40158  -0.39481
 Alpha  occ. eigenvalues --   -0.37956  -0.37925  -0.37212  -0.34750
 Alpha virt. eigenvalues --   -0.16469  -0.15538  -0.15130  -0.15029  -0.10197
 Alpha virt. eigenvalues --   -0.09987  -0.08740  -0.08668  -0.08326  -0.07693
 Alpha virt. eigenvalues --   -0.07659  -0.07494  -0.06810  -0.06556  -0.06350

  Beta  occ. eigenvalues --  -10.71889 -10.71886 -10.68786 -10.68786 -10.68538
  Beta  occ. eigenvalues --  -10.68537 -10.68489 -10.68489 -10.67826 -10.67826
  Beta  occ. eigenvalues --  -10.66935 -10.66934 -10.66759 -10.66759 -10.66662
  Beta  occ. eigenvalues --  -10.66662 -10.66072 -10.66072 -10.65995 -10.65995
  Beta  occ. eigenvalues --  -10.65946 -10.65946 -10.65927 -10.65927 -10.65650
  Beta  occ. eigenvalues --  -10.65650 -10.65581 -10.65581 -10.65575 -10.65575
  Beta  occ. eigenvalues --  -10.65373 -10.65373 -10.65342 -10.65342 -10.65238
  Beta  occ. eigenvalues --  -10.65238 -10.64958 -10.64957 -10.64634 -10.64085
  Beta  occ. eigenvalues --  -10.63989 -10.62792  -1.12838  -1.10301  -1.09699
  Beta  occ. eigenvalues --   -1.08395  -1.07716  -1.06030  -1.04247  -1.02570
  Beta  occ. eigenvalues --   -1.02127  -1.00565  -1.00092  -0.97806  -0.97631
  Beta  occ. eigenvalues --   -0.96840  -0.96123  -0.94892  -0.93333  -0.93321
  Beta  occ. eigenvalues --   -0.92555  -0.91797  -0.87569  -0.86850  -0.84874
  Beta  occ. eigenvalues --   -0.84655  -0.82772  -0.81501  -0.81129  -0.79825
  Beta  occ. eigenvalues --   -0.79676  -0.79449  -0.77613  -0.76218  -0.76015
  Beta  occ. eigenvalues --   -0.75350  -0.75302  -0.73719  -0.70044  -0.69791
  Beta  occ. eigenvalues --   -0.68966  -0.68214  -0.67657  -0.67487  -0.66927
  Beta  occ. eigenvalues --   -0.66707  -0.65440  -0.65141  -0.64875  -0.64711
  Beta  occ. eigenvalues --   -0.63252  -0.63029  -0.62183  -0.62093  -0.61220
  Beta  occ. eigenvalues --   -0.61099  -0.60554  -0.60145  -0.60145  -0.59895
  Beta  occ. eigenvalues --   -0.59464  -0.58671  -0.58518  -0.57972  -0.57425
  Beta  occ. eigenvalues --   -0.57261  -0.56133  -0.55715  -0.55640  -0.55151
  Beta  occ. eigenvalues --   -0.54887  -0.54043  -0.53413  -0.52776  -0.52660
  Beta  occ. eigenvalues --   -0.52508  -0.52112  -0.51915  -0.51155  -0.50966
  Beta  occ. eigenvalues --   -0.50794  -0.50636  -0.49808  -0.49129  -0.48714
  Beta  occ. eigenvalues --   -0.48675  -0.48361  -0.47637  -0.43739  -0.43134
  Beta  occ. eigenvalues --   -0.42888  -0.42858  -0.40407  -0.40106  -0.38857
  Beta  occ. eigenvalues --   -0.37634  -0.37294  -0.36804
  Beta virt. eigenvalues --   -0.25135  -0.15752  -0.15477  -0.14904  -0.14565
  Beta virt. eigenvalues --   -0.10057  -0.09591  -0.08596  -0.08359  -0.08212
  Beta virt. eigenvalues --   -0.07580  -0.07551  -0.07403  -0.06544  -0.06340

 Mulliken charges and spin densities:
               1          2
     1  C   -0.022061   0.076638
     2  C   -0.022477   0.076550
     3  C    0.134727   0.001348
     4  C    0.119621  -0.004307
     5  C    0.123065   0.007438
     6  C    0.139871   0.001775
     7  C   -0.301403   0.001366
     8  H    0.176031  -0.000072
     9  C    0.188267   0.057198
    10  C   -0.301493   0.001378
    11  H    0.176031  -0.000073
    12  C    0.123131   0.007454
    13  C    0.140178   0.001769
    14  C    0.028708   0.055577
    15  C    0.208516   0.030649
    16  C   -0.110100  -0.002646
    17  H    0.164605  -0.000003
    18  C   -0.482498  -0.000426
    19  H    0.174887   0.000490
    20  C    0.212663   0.065702
    21  C   -0.173750   0.014020
    22  H    0.174590  -0.000597
    23  C    0.208323   0.030660
    24  C    0.213218   0.065744
    25  C   -0.482660  -0.000432
    26  H    0.174891   0.000490
    27  C    0.028274   0.055603
    28  C   -0.102606  -0.013674
    29  H    0.198764  -0.000045
    30  C   -0.298247   0.006458
    31  H    0.219762   0.000052
    32  C   -0.305554   0.035022
    33  H    0.180827  -0.001814
    34  C   -0.173713   0.014008
    35  H    0.174593  -0.000597
    36  C   -0.146920  -0.019800
    37  H    0.163014   0.000514
    38  C    0.188182   0.057233
    39  C   -0.196010   0.084800
    40  H    0.168513  -0.006114
    41  C   -0.248808   0.023069
    42  H    0.178488  -0.000957
    43  C   -0.162762   0.049600
    44  H    0.161058  -0.003036
    45  C   -0.147053  -0.019813
    46  H    0.163006   0.000513
    47  C   -0.152209   0.044369
    48  H    0.173089  -0.003635
    49  C   -0.298312   0.006479
    50  H    0.219754   0.000051
    51  C   -0.248979   0.023036
    52  H    0.178489  -0.000956
    53  C   -0.109703  -0.002592
    54  H    0.164598  -0.000003
    55  C   -0.133505  -0.000108
    56  H    0.174939  -0.000359
    57  C   -0.305192   0.035067
    58  H    0.180822  -0.001815
    59  C   -0.196390   0.084781
    60  H    0.168533  -0.006112
    61  C   -0.133468  -0.000121
    62  H    0.174935  -0.000359
    63  C   -0.163067   0.049606
    64  H    0.161053  -0.003040
    65  C   -0.102367  -0.013648
    66  H    0.198770  -0.000046
    67  C   -0.152560   0.044325
    68  H    0.173083  -0.003633
 Sum of Mulliken charges =   1.00000   1.00000

 Dipole moment (field-independent basis, Debye):
    X=              0.0014    Y=              2.8510    Z=             -0.0006  Tot=              2.8510
 Quadrupole moment (field-independent basis, Debye-Ang):
   XX=           -222.4110   YY=           -174.3795   ZZ=           -177.0797
   XY=              0.0019   XZ=             -1.6815   YZ=              0.0025

 Normal termination of Gaussian 16 at Fri Mar 21 07:54:53 2025.
