 Gaussian 16, Revision A.03,
 Gaussian 16:  ES64L-G16RevA.03 25-Dec-2016

 ---------------------------------------------------
 #p UM062X/6-311+G** force int=superfine pop=saveNBO
 ---------------------------------------------------

 -------------------
 Title Card Required
 -------------------
 Symbolic Z-matrix:
 Charge =  0 Multiplicity = 1

                         Standard orientation:
 ---------------------------------------------------------------------
 Center     Atomic      Atomic             Coordinates (Angstroms)
 Number     Number       Type             X           Y           Z
 ---------------------------------------------------------------------
      1          5           0       -0.779367   -0.000000   -0.000016
      2          7           0        0.611431    0.000000   -0.000016
      3          1           0       -1.354388    1.041830   -0.000016
      4          1           0        1.162795   -0.843395    0.000096
      5          1           0       -1.354387   -1.041830    0.000233
      6          1           0        1.162793    0.843397   -0.000124
 ---------------------------------------------------------------------

 SCF Done:  E(UM062X) =  -82.0223716092     A.U. after   10 cycles

 The electronic state is 1-A.
 Alpha  occ. eigenvalues --  -14.74655  -7.02477  -0.97496  -0.60359  -0.58694
 Alpha  occ. eigenvalues --   -0.45854  -0.38068  -0.36799
 Alpha virt. eigenvalues --    0.00641   0.02271   0.03565   0.04022   0.07703
 Alpha virt. eigenvalues --    0.10642   0.12057   0.16588   0.17147   0.18390
 Alpha virt. eigenvalues --    0.20193   0.23088   0.29018   0.29421   0.44008

  Beta  occ. eigenvalues --  -14.74655  -7.02477  -0.97496  -0.60359  -0.58694
  Beta  occ. eigenvalues --   -0.45854  -0.38068  -0.36799
  Beta virt. eigenvalues --    0.00641   0.02271   0.03565   0.04022   0.07703
  Beta virt. eigenvalues --    0.10642   0.12057   0.16588   0.17147   0.18390
  Beta virt. eigenvalues --    0.20193   0.23088   0.29018   0.29421   0.44008

 Mulliken charges and spin densities:
               1          2
     1  B    0.060112  -0.000000
     2  N   -0.526787  -0.000000
     3  H   -0.026568   0.000000
     4  H    0.259906   0.000000
     5  H   -0.026568   0.000000
     6  H    0.259906  -0.000000
 Sum of Mulliken charges =  -0.00000   0.00000

 Dipole moment (field-independent basis, Debye):
    X=              1.7864    Y=             -0.0000    Z=             -0.0001  Tot=              1.7864
 Quadrupole moment (field-independent basis, Debye-Ang):
   XX=            -13.1983   YY=            -13.1860   ZZ=            -15.1241
   XY=              0.0000   XZ=              0.0002   YZ=             -0.0003

 Summary of Natural Population Analysis:

                                       Natural Population
                Natural  -----------------------------------------------
    Atom  No    Charge         Core      Valence    Rydberg      Total
 -----------------------------------------------------------------------
      B    1    0.21509      0.99977     1.27788    0.00726     2.28491
      N    2   -0.51095      0.99976     3.00827    0.00291     4.01095
      H    3   -0.04495      0.00000     0.54421    0.00073     0.54495
      H    4    0.19287      0.00000     0.30617    0.00096     0.30713
      H    5   -0.04495      0.00000     0.54421    0.00073     0.54495
      H    6    0.19287      0.00000     0.30617    0.00096     0.30713
 =======================================================================
   * Total *    0.00000      1.99953     5.98692    0.01355     8.00000

 Optimization completed.
    -- Stationary point found.

 1\1\GINC-NODE01\Force\UM062X\6-311+G(d,p)\B1H4N1\SZHAO\16-Apr-2025\0\\
 #p UM062X/6-311+G** force int=superfine pop=saveNBO\\Title Card Requir
 ed\\0,1\B,-0.695399,0.,0.\N,0.695399,0.,0.\H,-1.27041962,-1.0418308,0.
 \H,1.24676246,0.84339581,-0.00011191\H,-1.27041938,1.04182927,-0.00024
 861\H,1.24676055,-0.84339625,0.00010849\\Version=ES64L-G16RevA.03\Stat
 e=1-A\HF=-82.0223716\S2=0.\S2-1=0.\S2A=0.\RMSD=1.414e-09\RMSF=1.031e-0
 4\Dipole=0.702829,0.0000006,0.0000475\Quadrupole=0.4742088,0.4833644,-
 0.9575731,0.,-0.0001277,-0.000198\PG=C01 [X(B1H4N1)]\\@

 Normal termination of Gaussian 16 at Wed Apr 16 01:21:59 2025.
