 Gaussian 16, Revision A.03,
 Gaussian 16:  ES64L-G16RevA.03 25-Dec-2016

 ---------------------------------------
 #p UM062X/6-311+G** force int=superfine
 ---------------------------------------

 -------------------
 Title Card Required
 -------------------
 Symbolic Z-matrix:
 Charge =  1 Multiplicity = 2

                         Standard orientation:
 ---------------------------------------------------------------------
 Center     Atomic      Atomic             Coordinates (Angstroms)
 Number     Number       Type             X           Y           Z
 ---------------------------------------------------------------------
      1          6           0        0.000000    0.000000    0.739398
      2          6           0        0.000000    0.000000   -0.739398
      3          1           0        0.000000    0.000000    1.827906
      4          1           0        0.000000    0.000000   -1.827904
 ---------------------------------------------------------------------

 SCF Done:  E(UM062X) =  -76.8368602500     A.U. after   10 cycles

 Unable to determine electronic state:  an orbital has unidentified symmetry.
 Alpha  occ. eigenvalues --  -10.97797 -10.97731  -1.15129  -0.98418  -0.87233
 Alpha  occ. eigenvalues --   -0.67264  -0.64948
 Alpha virt. eigenvalues --   -0.32795  -0.30779  -0.20280  -0.14332  -0.11062
 Alpha virt. eigenvalues --   -0.09796  -0.09591  -0.09346  -0.05167  -0.04809
 Alpha virt. eigenvalues --    0.01992   0.04272   0.10755   0.20807   0.31080

  Beta  occ. eigenvalues --  -10.97559 -10.97509  -1.10818  -0.96745  -0.86613
  Beta  occ. eigenvalues --   -0.62723
  Beta virt. eigenvalues --   -0.42986  -0.29084  -0.25326  -0.18399  -0.15461
  Beta virt. eigenvalues --   -0.11354  -0.09919  -0.09865  -0.09703  -0.04915
  Beta virt. eigenvalues --   -0.04500   0.01380   0.04417   0.11290   0.21712

 Mulliken charges and spin densities:
               1          2
     1  C    0.158420   0.520395
     2  C    0.158420   0.520395
     3  H    0.341581  -0.020395
     4  H    0.341580  -0.020395
 Sum of Mulliken charges =   1.00000   1.00000

 Dipole moment (field-independent basis, Debye):
    X=              0.0000    Y=              0.0000    Z=              0.0000  Tot=              0.0000
 Quadrupole moment (field-independent basis, Debye-Ang):
   XX=            -10.2228   YY=            -12.1965   ZZ=              1.2898
   XY=              0.0000   XZ=              0.0000   YZ=              0.0000

 Normal termination of Gaussian 16 at Tue Nov 19 13:33:56 2024.
