 Gaussian 16, Revision A.03,
 Gaussian 16:  ES64L-G16RevA.03 25-Dec-2016

 ---------------------------------------
 #p UM062X/6-311+G** force int=superfine
 ---------------------------------------

 -------------------
 Title Card Required
 -------------------
 Symbolic Z-matrix:
 Charge =  1 Multiplicity = 2

                         Standard orientation:
 ---------------------------------------------------------------------
 Center     Atomic      Atomic             Coordinates (Angstroms)
 Number     Number       Type             X           Y           Z
 ---------------------------------------------------------------------
      1          6           0        0.955870   -0.000001    0.000058
      2          6           0       -0.955870   -0.000007   -0.000058
      3          1           0       -1.110322    0.038578    1.074557
      4          1           0        1.109560    0.950052    0.503993
      5          1           0       -1.109706   -0.950001   -0.504059
      6          1           0       -1.109574    0.911433   -0.570867
      7          1           0        1.110329   -0.038628   -1.074553
      8          1           0        1.109711   -0.911381    0.570925
 ---------------------------------------------------------------------

 SCF Done:  E(UM062X) =  -79.3687996794     A.U. after    9 cycles

 The electronic state is 2-A.
 Alpha  occ. eigenvalues --  -10.86133 -10.86119  -1.12275  -1.01023  -0.79598
 Alpha  occ. eigenvalues --   -0.79595  -0.73289  -0.73289  -0.65202
 Alpha virt. eigenvalues --   -0.20789  -0.16736  -0.11367  -0.11367  -0.09712
 Alpha virt. eigenvalues --   -0.07518  -0.06533  -0.06531  -0.05715  -0.05714
 Alpha virt. eigenvalues --   -0.01601   0.01455   0.01459   0.03991   0.07499

  Beta  occ. eigenvalues --  -10.85908 -10.85908  -1.08622  -0.97867  -0.78523
  Beta  occ. eigenvalues --   -0.78521  -0.72428  -0.72427
  Beta virt. eigenvalues --   -0.41234  -0.16238  -0.15867  -0.11222  -0.11222
  Beta virt. eigenvalues --   -0.07720  -0.07224  -0.06690  -0.06689  -0.05294
  Beta virt. eigenvalues --   -0.05291  -0.00535   0.02171   0.02175   0.04548

 Mulliken charges and spin densities:
               1          2
     1  C   -0.323693   0.538119
     2  C   -0.323694   0.538119
     3  H    0.274569  -0.012746
     4  H    0.274559  -0.012684
     5  H    0.274565  -0.012688
     6  H    0.274559  -0.012685
     7  H    0.274569  -0.012747
     8  H    0.274565  -0.012688
 Sum of Mulliken charges =   1.00000   1.00000

 Dipole moment (field-independent basis, Debye):
    X=              0.0000    Y=              0.0000    Z=             -0.0000  Tot=              0.0000
 Quadrupole moment (field-independent basis, Debye-Ang):
   XX=             -6.8876   YY=            -10.7134   ZZ=            -10.7139
   XY=             -0.0000   XZ=             -0.0002   YZ=             -0.0000

 Normal termination of Gaussian 16 at Wed Nov 13 13:43:11 2024.
