 Gaussian 16, Revision A.03,
 Gaussian 16:  ES64L-G16RevA.03 25-Dec-2016

 --------------------------------------------
 #p opt UM062X/6-311+G** nosymm int=superfine
 --------------------------------------------

 -------------------
 Title Card Required
 -------------------
 Symbolic Z-matrix:
 Charge =  0 Multiplicity = 1

 SCF Done:  E(UM062X) =  -83.1299699663     A.U. after   10 cycles
 SCF Done:  E(UM062X) =  -83.1441984520     A.U. after    9 cycles
 SCF Done:  E(UM062X) =  -83.1468061803     A.U. after    9 cycles
 SCF Done:  E(UM062X) =  -83.1468194707     A.U. after    7 cycles
 Optimization completed.
    -- Stationary point found.

                          Input orientation:
 ---------------------------------------------------------------------
 Center     Atomic      Atomic             Coordinates (Angstroms)
 Number     Number       Type             X           Y           Z
 ---------------------------------------------------------------------
      1          5           0       -1.552429    0.000000    0.000000
      2          7           0        1.552429    0.000000    0.000000
      3          1           0        1.912635   -0.946684    0.000001
      4          1           0       -1.581032   -0.594231    1.029202
      5          1           0        1.912520    0.473398   -0.819874
      6          1           0        1.912507    0.473394    0.819882
      7          1           0       -1.581059    1.188427    0.000015
      8          1           0       -1.581046   -0.594208   -1.029215
 ---------------------------------------------------------------------

 Alpha  occ. eigenvalues --  -14.73894  -7.03423  -0.96941  -0.56614  -0.54815
 Alpha  occ. eigenvalues --   -0.54815  -0.39040  -0.39040  -0.35236
 Alpha virt. eigenvalues --   -0.01092   0.02152   0.04829   0.04829   0.05937
 Alpha virt. eigenvalues --    0.08489   0.10947   0.10947   0.17439   0.17439
 Alpha virt. eigenvalues --    0.18124   0.19849   0.19849   0.23104   0.28729

  Beta  occ. eigenvalues --  -14.73894  -7.03423  -0.96941  -0.56614  -0.54815
  Beta  occ. eigenvalues --   -0.54815  -0.39040  -0.39040  -0.35236
  Beta virt. eigenvalues --   -0.01092   0.02152   0.04829   0.04829   0.05937
  Beta virt. eigenvalues --    0.08489   0.10947   0.10947   0.17439   0.17439
  Beta virt. eigenvalues --    0.18124   0.19849   0.19849   0.23104   0.28729

 Mulliken charges and spin densities:
               1          2
     1  B    0.013189  -0.000000
     2  N   -0.746438   0.000000
     3  H    0.253439  -0.000000
     4  H   -0.009022   0.000000
     5  H    0.253440  -0.000000
     6  H    0.253440  -0.000000
     7  H   -0.009025   0.000000
     8  H   -0.009022   0.000000
 Sum of Mulliken charges =   0.00000  -0.00000

 Dipole moment (field-independent basis, Debye):
    X=              2.2933    Y=              0.0002    Z=              0.0000  Tot=              2.2933
 Quadrupole moment (field-independent basis, Debye-Ang):
   XX=            -11.5775   YY=            -15.7311   ZZ=            -15.7312
   XY=              0.0000   XZ=             -0.0000   YZ=              0.0000

 Normal termination of Gaussian 16 at Mon Apr 21 17:38:22 2025.
