 Gaussian 16, Revision A.03,
 Gaussian 16:  ES64L-G16RevA.03 25-Dec-2016

 --------------------------------------------
 #p opt UM062X/6-311+G** nosymm int=superfine
 --------------------------------------------

 -------------------
 Title Card Required
 -------------------
 Symbolic Z-matrix:
 Charge =  1 Multiplicity = 2

 SCF Done:  E(UM062X) =  -76.5073212404     A.U. after   21 cycles
 SCF Done:  E(UM062X) =  -76.5075844020     A.U. after   11 cycles
 SCF Done:  E(UM062X) =  -76.5075851756     A.U. after    8 cycles
 Optimization completed.
    -- Stationary point found.

                          Input orientation:
 ---------------------------------------------------------------------
 Center     Atomic      Atomic             Coordinates (Angstroms)
 Number     Number       Type             X           Y           Z
 ---------------------------------------------------------------------
      1          6           0       -1.107160    0.000000    0.000000
      2          6           0        1.107160    0.000000    0.000000
      3          1           0       -2.223492   -0.000000   -0.000000
      4          1           0        2.223492    0.000000    0.000000
 ---------------------------------------------------------------------

 Alpha  occ. eigenvalues --  -11.01548 -11.01533  -1.04097  -0.99913  -0.75854
 Alpha  occ. eigenvalues --   -0.57767  -0.55832
 Alpha virt. eigenvalues --   -0.43017  -0.40793  -0.38847  -0.13961  -0.12241
 Alpha virt. eigenvalues --   -0.09217  -0.08376  -0.08169  -0.05350  -0.05098
 Alpha virt. eigenvalues --   -0.00888   0.01949   0.05234   0.24204   0.29308

  Beta  occ. eigenvalues --  -11.01257 -11.01247  -1.01137  -0.97885  -0.74544
  Beta  occ. eigenvalues --   -0.54050
  Beta virt. eigenvalues --   -0.40928  -0.37106  -0.37054  -0.31473  -0.14712
  Beta virt. eigenvalues --   -0.12509  -0.09999  -0.08658  -0.08539  -0.05424
  Beta virt. eigenvalues --   -0.05259  -0.01789   0.02023   0.05103   0.23809

 Mulliken charges and spin densities:
               1          2
     1  C    0.109981   0.525735
     2  C    0.109981   0.525734
     3  H    0.390019  -0.025735
     4  H    0.390019  -0.025735
 Sum of Mulliken charges =   1.00000   1.00000

 Dipole moment (field-independent basis, Debye):
    X=              0.0000    Y=             -0.0000    Z=              0.0000  Tot=              0.0000
 Quadrupole moment (field-independent basis, Debye-Ang):
   XX=              8.2555   YY=            -11.9653   ZZ=            -13.0938
   XY=              0.0000   XZ=              0.0000   YZ=              0.9605

 Normal termination of Gaussian 16 at Tue Dec  3 11:23:09 2024.
