 Gaussian 16, Revision A.03,
 Gaussian 16:  ES64L-G16RevA.03 25-Dec-2016

 --------------------------------------------
 #p opt UM062X/6-311+G** nosymm int=superfine
 --------------------------------------------

 -------------------
 Title Card Required
 -------------------
 Symbolic Z-matrix:
 Charge = -1 Multiplicity = 2

 SCF Done:  E(UM062X) =  -53.2250831989     A.U. after   11 cycles
 SCF Done:  E(UM062X) =  -53.2262331015     A.U. after   10 cycles
 SCF Done:  E(UM062X) =  -53.2264619669     A.U. after   10 cycles
 Optimization completed.
    -- Stationary point found.

                          Input orientation:
 ---------------------------------------------------------------------
 Center     Atomic      Atomic             Coordinates (Angstroms)
 Number     Number       Type             X           Y           Z
 ---------------------------------------------------------------------
      1          5           0       -1.415672    0.000000    0.000000
      2          5           0        1.415672    0.000000    0.000000
      3          1           0        1.550005   -1.193376   -0.000009
      4          1           0       -1.550023   -0.596676    1.033495
      5          1           0        1.550171    0.596690   -1.033469
      6          1           0        1.549980    0.596662    1.033508
      7          1           0       -1.550012    1.193375    0.000004
      8          1           0       -1.550121   -0.596678   -1.033482
 ---------------------------------------------------------------------

 Alpha  occ. eigenvalues --   -6.82091  -6.82088  -0.39226  -0.36379  -0.20401
 Alpha  occ. eigenvalues --   -0.20401  -0.18769  -0.18769  -0.00967
 Alpha virt. eigenvalues --    0.15542   0.17229   0.17585   0.17585   0.19071
 Alpha virt. eigenvalues --    0.19071   0.21765   0.22949   0.23820   0.32986
 Alpha virt. eigenvalues --    0.32987   0.36797   0.36797   0.38998   0.40689

  Beta  occ. eigenvalues --   -6.82035  -6.82034  -0.36824  -0.34852  -0.19992
  Beta  occ. eigenvalues --   -0.19992  -0.18574  -0.18574
  Beta virt. eigenvalues --    0.13695   0.14874   0.17075   0.17075   0.17492
  Beta virt. eigenvalues --    0.18602   0.18602   0.23993   0.24155   0.29719
  Beta virt. eigenvalues --    0.32748   0.32748   0.36912   0.36912   0.39462

 Mulliken charges and spin densities:
               1          2
     1  B   -0.283143   0.604846
     2  B   -0.283143   0.604846
     3  H   -0.072268  -0.034928
     4  H   -0.072291  -0.034958
     5  H   -0.072300  -0.034960
     6  H   -0.072289  -0.034957
     7  H   -0.072268  -0.034928
     8  H   -0.072297  -0.034960
 Sum of Mulliken charges =  -1.00000   1.00000

 Dipole moment (field-independent basis, Debye):
    X=              0.0000    Y=             -0.0000    Z=              0.0000  Tot=              0.0000
 Quadrupole moment (field-independent basis, Debye-Ang):
   XX=            -34.9122   YY=            -24.0587   ZZ=            -24.0589
   XY=             -0.0001   XZ=              0.0000   YZ=              0.0000

 Normal termination of Gaussian 16 at Mon Apr 21 16:52:41 2025.
