 Gaussian 16, Revision A.03,
 Gaussian 16:  ES64L-G16RevA.03 25-Dec-2016

 --------------------------------------------
 #p opt UM062X/6-311+G** nosymm int=superfine
 --------------------------------------------

 -------------------
 Title Card Required
 -------------------
 Symbolic Z-matrix:
 Charge =  0 Multiplicity = 1

 SCF Done:  E(UM062X) =  -579.968941907     A.U. after    8 cycles
 SCF Done:  E(UM062X) =  -579.968944035     A.U. after    8 cycles
 Optimization completed.
    -- Stationary point found.

                          Input orientation:
 ---------------------------------------------------------------------
 Center     Atomic      Atomic             Coordinates (Angstroms)
 Number     Number       Type             X           Y           Z
 ---------------------------------------------------------------------
      1         14           0       -1.103705    0.000000    0.000000
      2         14           0        1.103705    0.000000    0.000000
      3          1           0       -2.563966   -0.000061    0.000000
      4          1           0        2.563966    0.000004   -0.000000
 ---------------------------------------------------------------------

 Alpha  occ. eigenvalues --  -67.03954 -67.03953  -5.58534  -5.58519  -3.89715
 Alpha  occ. eigenvalues --   -3.89715  -3.89701  -3.89701  -3.89559  -3.89460
 Alpha  occ. eigenvalues --   -0.61694  -0.55587  -0.43298  -0.24588  -0.24588
 Alpha virt. eigenvalues --   -0.07904  -0.05018  -0.05018   0.01555   0.02285
 Alpha virt. eigenvalues --    0.03737   0.05057   0.05057   0.07125   0.07125
 Alpha virt. eigenvalues --    0.12208   0.14722   0.24146   0.28369   0.29631

  Beta  occ. eigenvalues --  -67.03954 -67.03953  -5.58534  -5.58519  -3.89715
  Beta  occ. eigenvalues --   -3.89715  -3.89701  -3.89701  -3.89559  -3.89460
  Beta  occ. eigenvalues --   -0.61694  -0.55587  -0.43298  -0.24588  -0.24588
  Beta virt. eigenvalues --   -0.07904  -0.05018  -0.05018   0.01555   0.02285
  Beta virt. eigenvalues --    0.03737   0.05057   0.05057   0.07125   0.07125
  Beta virt. eigenvalues --    0.12208   0.14722   0.24146   0.28369   0.29631

 Mulliken charges and spin densities:
               1          2
     1  Si  -0.038069   0.000000
     2  Si  -0.038069  -0.000000
     3  H    0.038069   0.000000
     4  H    0.038069  -0.000000
 Sum of Mulliken charges =   0.00000   0.00000

 Dipole moment (field-independent basis, Debye):
    X=              0.0000    Y=             -0.0000    Z=              0.0000  Tot=              0.0000
 Quadrupole moment (field-independent basis, Debye-Ang):
   XX=            -19.6621   YY=            -31.5266   ZZ=            -31.5266
   XY=              0.0002   XZ=             -0.0000   YZ=             -0.0000

 Normal termination of Gaussian 16 at Mon Apr 21 21:23:21 2025.
