 Gaussian 16, Revision A.03,
 Gaussian 16:  ES64L-G16RevA.03 25-Dec-2016

 ---------------------------------------
 #p UM062X/6-311+G** force int=superfine
 ---------------------------------------

 -------------------
 Title Card Required
 -------------------
 Symbolic Z-matrix:
 Charge =  1 Multiplicity = 2

                         Standard orientation:
 ---------------------------------------------------------------------
 Center     Atomic      Atomic             Coordinates (Angstroms)
 Number     Number       Type             X           Y           Z
 ---------------------------------------------------------------------
      1          6           0        0.000000    0.000000    0.478434
      2          6           0        0.000000    0.000000   -0.478434
      3          1           0        0.000000    0.000000    1.550651
      4          1           0        0.000000    0.000000   -1.550651
 ---------------------------------------------------------------------

 SCF Done:  E(UM062X) =  -76.6507976077     A.U. after    9 cycles

 Unable to determine electronic state:  an orbital has unidentified symmetry.
 Alpha  occ. eigenvalues --  -10.90653 -10.88651  -1.32751  -0.94918  -0.91498
 Alpha  occ. eigenvalues --   -0.83539  -0.79961
 Alpha virt. eigenvalues --   -0.18701  -0.17013  -0.14757  -0.13722  -0.11979
 Alpha virt. eigenvalues --   -0.11541  -0.11215  -0.03246  -0.02484  -0.01969
 Alpha virt. eigenvalues --    0.02475   0.04177   0.16994   0.21270   0.25275

  Beta  occ. eigenvalues --  -10.90275 -10.88358  -1.26653  -0.93405  -0.90614
  Beta  occ. eigenvalues --   -0.77314
  Beta virt. eigenvalues --   -0.52747  -0.15969  -0.15544  -0.14863  -0.13336
  Beta virt. eigenvalues --   -0.11901  -0.11710  -0.11290  -0.01977  -0.01515
  Beta virt. eigenvalues --   -0.00920   0.02738   0.04628   0.17543   0.21651

 Mulliken charges and spin densities:
               1          2
     1  C    0.241194   0.521341
     2  C    0.241194   0.521341
     3  H    0.258806  -0.021341
     4  H    0.258806  -0.021341
 Sum of Mulliken charges =   1.00000   1.00000

 Dipole moment (field-independent basis, Debye):
    X=              0.0000    Y=              0.0000    Z=              0.0000  Tot=              0.0000
 Quadrupole moment (field-independent basis, Debye-Ang):
   XX=            -10.2591   YY=             -8.7442   ZZ=             -2.2589
   XY=             -0.0000   XZ=             -0.0000   YZ=             -0.0000

 Normal termination of Gaussian 16 at Tue Nov 19 13:26:31 2024.
