 Gaussian 16, Revision A.03,
 Gaussian 16:  ES64L-G16RevA.03 25-Dec-2016

 --------------------------------------------
 #p opt UM062X/6-311+G** nosymm int=superfine
 --------------------------------------------

 -------------------
 Title Card Required
 -------------------
 Symbolic Z-matrix:
 Charge =  1 Multiplicity = 2

 SCF Done:  E(UM062X) =  -580.863260398     A.U. after   14 cycles
 SCF Done:  E(UM062X) =  -580.870605907     A.U. after    9 cycles
 SCF Done:  E(UM062X) =  -580.872677276     A.U. after   12 cycles
 SCF Done:  E(UM062X) =  -580.872680010     A.U. after    6 cycles
 Optimization completed.
    -- Stationary point found.

                          Input orientation:
 ---------------------------------------------------------------------
 Center     Atomic      Atomic             Coordinates (Angstroms)
 Number     Number       Type             X           Y           Z
 ---------------------------------------------------------------------
      1         14           0       -2.341295    0.000000    0.000000
      2         14           0        2.341295    0.000000    0.000000
      3          1           0       -3.239380   -1.190410    0.000048
      4          1           0        3.239380    1.190410    0.001077
      5          1           0       -3.239395    1.190399   -0.000043
      6          1           0        3.239395   -1.190399   -0.001072
 ---------------------------------------------------------------------

 Alpha  occ. eigenvalues --  -67.23964 -67.23964  -5.78454  -5.78453  -4.09724
 Alpha  occ. eigenvalues --   -4.09724  -4.09404  -4.09403  -4.09060  -4.09060
 Alpha  occ. eigenvalues --   -0.77975  -0.77890  -0.59777  -0.59756  -0.49143
 Alpha  occ. eigenvalues --   -0.47451
 Alpha virt. eigenvalues --   -0.26826  -0.26339  -0.12267  -0.11988  -0.09234
 Alpha virt. eigenvalues --   -0.08368  -0.07830  -0.07014  -0.06708  -0.05933
 Alpha virt. eigenvalues --   -0.05690  -0.05651  -0.05413  -0.03443   0.12888

  Beta  occ. eigenvalues --  -67.23627 -67.23627  -5.78199  -5.78199  -4.09621
  Beta  occ. eigenvalues --   -4.09620  -4.08950  -4.08950  -4.08625  -4.08625
  Beta  occ. eigenvalues --   -0.76159  -0.75928  -0.58602  -0.58570  -0.42586
  Beta virt. eigenvalues --   -0.33105  -0.25642  -0.25020  -0.11372  -0.11113
  Beta virt. eigenvalues --   -0.09278  -0.07276  -0.06729  -0.06638  -0.06302
  Beta virt. eigenvalues --   -0.05916  -0.05421  -0.05244  -0.04874  -0.03002

 Mulliken charges and spin densities:
               1          2
     1  Si   0.562106   0.388766
     2  Si   0.562106   0.388766
     3  H   -0.031053   0.055617
     4  H   -0.031053   0.055617
     5  H   -0.031053   0.055617
     6  H   -0.031053   0.055617
 Sum of Mulliken charges =   1.00000   1.00000

 Dipole moment (field-independent basis, Debye):
    X=              0.0000    Y=              0.0000    Z=              0.0000  Tot=              0.0000
 Quadrupole moment (field-independent basis, Debye-Ang):
   XX=              6.2193   YY=            -25.8990   ZZ=            -20.8830
   XY=             -0.0000   XZ=              0.0000   YZ=             -0.0022

 Normal termination of Gaussian 16 at Mon Apr 21 20:28:13 2025.
