 Gaussian 16, Revision A.03,
 Gaussian 16:  ES64L-G16RevA.03 25-Dec-2016

 --------------------------------------------
 #p opt UM062X/6-311+G** nosymm int=superfine
 --------------------------------------------

 -------------------
 Title Card Required
 -------------------
 Symbolic Z-matrix:
 Charge =  1 Multiplicity = 2

 SCF Done:  E(UM062X) =  -379.294279261     A.U. after   45 cycles
 SCF Done:  E(UM062X) =  -379.295073523     A.U. after   31 cycles
 SCF Done:  E(UM062X) =  -379.295075321     A.U. after   10 cycles
 Optimization completed.
    -- Stationary point found.

                          Input orientation:
 ---------------------------------------------------------------------
 Center     Atomic      Atomic             Coordinates (Angstroms)
 Number     Number       Type             X           Y           Z
 ---------------------------------------------------------------------
      1          6           0       -2.244427    0.000000    0.000000
      2         15           0        2.244427    0.000000    0.000000
      3          1           0       -3.366099   -0.000000    0.000000
 ---------------------------------------------------------------------

 Alpha  occ. eigenvalues --  -78.30843 -10.97254  -7.12419  -5.24566  -5.24218
 Alpha  occ. eigenvalues --   -5.23161  -0.99202  -0.84499  -0.65006  -0.50175
 Alpha  occ. eigenvalues --   -0.44467
 Alpha virt. eigenvalues --   -0.38101  -0.34606  -0.32896  -0.13148  -0.09550
 Alpha virt. eigenvalues --   -0.08340  -0.07998  -0.06649  -0.05316  -0.04959
 Alpha virt. eigenvalues --   -0.02536   0.00076   0.17391   0.17760   0.18037

  Beta  occ. eigenvalues --  -78.30089 -10.97216  -7.12192  -5.24005  -5.23010
  Beta  occ. eigenvalues --   -5.22290  -0.99003  -0.79304  -0.64849  -0.43453
  Beta virt. eigenvalues --   -0.37051  -0.34436  -0.31739  -0.27908  -0.13493
  Beta virt. eigenvalues --   -0.10683  -0.08079  -0.07975  -0.06513  -0.04996
  Beta virt. eigenvalues --   -0.04516  -0.02747  -0.00082   0.15278   0.16006

 Mulliken charges and spin densities:
               1          2
     1  C    0.293941   0.048204
     2  P    0.471466   0.953744
     3  H    0.234592  -0.001947
 Sum of Mulliken charges =   1.00000   1.00000

 Dipole moment (field-independent basis, Debye):
    X=             -2.6652    Y=             -0.0000    Z=              0.0000  Tot=              2.6652
 Quadrupole moment (field-independent basis, Debye-Ang):
   XX=             20.2484   YY=            -16.8250   ZZ=            -19.8484
   XY=              0.0000   XZ=             -0.0000   YZ=             -0.4728

 Normal termination of Gaussian 16 at Mon Apr 21 19:29:17 2025.
