 Gaussian 16, Revision A.03,
 Gaussian 16:  ES64L-G16RevA.03 25-Dec-2016

 --------------------------------------------
 #p opt UM062X/6-311+G** nosymm int=superfine
 --------------------------------------------

 -------------------
 Title Card Required
 -------------------
 Symbolic Z-matrix:
 Charge =  0 Multiplicity = 1

 SCF Done:  E(UM062X) =  -78.5038523124     A.U. after    8 cycles
 SCF Done:  E(UM062X) =  -78.5182316579     A.U. after    8 cycles
 SCF Done:  E(UM062X) =  -78.5200396835     A.U. after    7 cycles
 SCF Done:  E(UM062X) =  -78.5201430969     A.U. after    7 cycles
 Optimization completed.
    -- Stationary point found.

                          Input orientation:
 ---------------------------------------------------------------------
 Center     Atomic      Atomic             Coordinates (Angstroms)
 Number     Number       Type             X           Y           Z
 ---------------------------------------------------------------------
      1          6           0       -0.782189    0.000000    0.000000
      2          6           0        0.782189    0.000000    0.000000
      3          1           0       -1.310254   -0.942768   -0.000000
      4          1           0       -1.310378    0.942717    0.000000
      5          1           0        1.310254    0.942768   -0.000000
      6          1           0        1.310378   -0.942717    0.000000
 ---------------------------------------------------------------------

 Alpha  occ. eigenvalues --  -10.57238 -10.57198  -0.81643  -0.68418  -0.53292
 Alpha  occ. eigenvalues --   -0.45424  -0.44875  -0.30044
 Alpha virt. eigenvalues --   -0.01076   0.03382   0.03785   0.05320   0.07832
 Alpha virt. eigenvalues --    0.08306   0.09722   0.12164   0.15874   0.16937
 Alpha virt. eigenvalues --    0.20664   0.21319   0.27805   0.29874   0.42010

  Beta  occ. eigenvalues --  -10.57238 -10.57198  -0.81643  -0.68418  -0.53292
  Beta  occ. eigenvalues --   -0.45424  -0.44875  -0.30044
  Beta virt. eigenvalues --   -0.01076   0.03382   0.03785   0.05320   0.07832
  Beta virt. eigenvalues --    0.08306   0.09722   0.12164   0.15874   0.16937
  Beta virt. eigenvalues --    0.20664   0.21319   0.27805   0.29874   0.42010

 Mulliken charges and spin densities:
               1          2
     1  C   -0.322893  -0.000000
     2  C   -0.322893   0.000000
     3  H    0.161443   0.000000
     4  H    0.161450   0.000000
     5  H    0.161443   0.000000
     6  H    0.161450   0.000000
 Sum of Mulliken charges =  -0.00000  -0.00000

 Dipole moment (field-independent basis, Debye):
    X=              0.0000    Y=             -0.0000    Z=              0.0000  Tot=              0.0000
 Quadrupole moment (field-independent basis, Debye-Ang):
   XX=            -11.9772   YY=            -12.2555   ZZ=            -16.8557
   XY=             -0.0003   XZ=              0.0000   YZ=             -0.0000

 Normal termination of Gaussian 16 at Tue Nov 19 10:43:52 2024.
