 Gaussian 16, Revision A.03,
 Gaussian 16:  ES64L-G16RevA.03 25-Dec-2016

 --------------------------------------------
 #p opt UM062X/6-311+G** nosymm int=superfine
 --------------------------------------------

 -------------------
 Title Card Required
 -------------------
 Symbolic Z-matrix:
 Charge =  0 Multiplicity = 1

 SCF Done:  E(UM062X) =  -114.282644050     A.U. after   11 cycles
 SCF Done:  E(UM062X) =  -114.285705580     A.U. after   10 cycles
 SCF Done:  E(UM062X) =  -114.286744616     A.U. after   10 cycles
 SCF Done:  E(UM062X) =  -114.286757379     A.U. after    9 cycles
 SCF Done:  E(UM062X) =  -114.286757078     A.U. after    9 cycles
 SCF Done:  E(UM062X) =  -114.286757063     A.U. after   10 cycles
 Optimization completed.
    -- Stationary point found.

                          Input orientation:
 ---------------------------------------------------------------------
 Center     Atomic      Atomic             Coordinates (Angstroms)
 Number     Number       Type             X           Y           Z
 ---------------------------------------------------------------------
      1          6           0       -0.898311    0.000000    0.000000
      2          8           0        0.898311    0.000000    0.000000
      3          1           0       -1.345001   -0.984751   -0.000193
      4          1           0       -1.345002    0.984751   -0.000193
 ---------------------------------------------------------------------

 Alpha  occ. eigenvalues --  -19.67359 -10.70729  -1.00857  -0.80067  -0.58609
 Alpha  occ. eigenvalues --   -0.43416  -0.36408  -0.35659
 Alpha virt. eigenvalues --   -0.12232  -0.00629   0.02147   0.04180   0.06650
 Alpha virt. eigenvalues --    0.08387   0.13504   0.18841   0.21372   0.23923
 Alpha virt. eigenvalues --    0.26500   0.33050   0.40153   0.46785   0.54052

  Beta  occ. eigenvalues --  -19.67359 -10.70729  -1.00857  -0.80067  -0.58609
  Beta  occ. eigenvalues --   -0.43416  -0.36408  -0.35659
  Beta virt. eigenvalues --   -0.12232  -0.00629   0.02147   0.04180   0.06650
  Beta virt. eigenvalues --    0.08387   0.13504   0.18841   0.21372   0.23923
  Beta virt. eigenvalues --    0.26500   0.33050   0.40153   0.46785   0.54052

 Mulliken charges and spin densities:
               1          2
     1  C   -0.101942   0.000000
     2  O   -0.315192  -0.000000
     3  H    0.208567  -0.000000
     4  H    0.208567  -0.000000
 Sum of Mulliken charges =  -0.00000   0.00000

 Dipole moment (field-independent basis, Debye):
    X=             -4.2620    Y=             -0.0000    Z=             -0.0004  Tot=              4.2620
 Quadrupole moment (field-independent basis, Debye-Ang):
   XX=            -10.7863   YY=            -11.3671   ZZ=            -13.0648
   XY=             -0.0000   XZ=              0.0003   YZ=              0.0000

 Normal termination of Gaussian 16 at Mon Apr 21 18:47:59 2025.
