 Gaussian 16, Revision A.03,
 Gaussian 16:  ES64L-G16RevA.03 25-Dec-2016

 ---------------------------------------
 #p UM062X/6-311+G** force int=superfine
 ---------------------------------------

 -------------------
 Title Card Required
 -------------------
 Symbolic Z-matrix:
 Charge =  1 Multiplicity = 2

                         Standard orientation:
 ---------------------------------------------------------------------
 Center     Atomic      Atomic             Coordinates (Angstroms)
 Number     Number       Type             X           Y           Z
 ---------------------------------------------------------------------
      1          6           0       -0.000000    0.000000    0.888519
      2          6           0        0.000000   -0.000000   -0.888521
      3          1           0        0.000000    0.000000    1.987968
      4          1           0       -0.000000    0.000000   -1.987953
 ---------------------------------------------------------------------

 SCF Done:  E(UM062X) =  -76.6915505390     A.U. after   10 cycles

 Unable to determine electronic state:  an orbital has unidentified symmetry.
 Alpha  occ. eigenvalues --  -11.00518 -11.00488  -1.08722  -0.99433  -0.82882
 Alpha  occ. eigenvalues --   -0.62357  -0.60292
 Alpha virt. eigenvalues --   -0.37366  -0.35383  -0.31045  -0.14148  -0.11566
 Alpha virt. eigenvalues --   -0.10358  -0.08920  -0.08689  -0.05346  -0.05046
 Alpha virt. eigenvalues --    0.01023   0.03506   0.06786   0.23217   0.31262

  Beta  occ. eigenvalues --  -11.00260 -11.00240  -1.05082  -0.97620  -0.81905
  Beta  occ. eigenvalues --   -0.58385
  Beta virt. eigenvalues --   -0.40034  -0.33651  -0.28977  -0.28965  -0.15136
  Beta virt. eigenvalues --   -0.11891  -0.10871  -0.09292  -0.09133  -0.05332
  Beta virt. eigenvalues --   -0.05073   0.00079   0.03599   0.07004   0.23756

 Mulliken charges and spin densities:
               1          2
     1  C    0.131658   0.522274
     2  C    0.131656   0.522287
     3  H    0.368346  -0.022281
     4  H    0.368340  -0.022281
 Sum of Mulliken charges =   1.00000   1.00000

 Dipole moment (field-independent basis, Debye):
    X=             -0.0000    Y=              0.0000    Z=              0.0001  Tot=              0.0001
 Quadrupole moment (field-independent basis, Debye-Ang):
   XX=            -10.8363   YY=            -12.9540   ZZ=              3.9324
   XY=              0.0000   XZ=              0.0000   YZ=             -0.0000

 Normal termination of Gaussian 16 at Tue Nov 19 13:38:44 2024.
