 Gaussian 16, Revision A.03,
 Gaussian 16:  ES64L-G16RevA.03 25-Dec-2016

 --------------------------------------------
 #p opt UM062X/6-311+G** nosymm int=superfine
 --------------------------------------------

 -------------------
 Title Card Required
 -------------------
 Symbolic Z-matrix:
 Charge = -1 Multiplicity = 2

 SCF Done:  E(UM062X) =  -51.8480336580     A.U. after   12 cycles
 SCF Done:  E(UM062X) =  -51.8480476659     A.U. after   13 cycles
 Optimization completed.
    -- Stationary point found.

                          Input orientation:
 ---------------------------------------------------------------------
 Center     Atomic      Atomic             Coordinates (Angstroms)
 Number     Number       Type             X           Y           Z
 ---------------------------------------------------------------------
      1          5           0       -1.972274    0.000000    0.000000
      2          5           0        1.972274    0.000000    0.000000
      3          1           0       -2.643041   -1.012702   -0.000024
      4          1           0        2.643041    1.012702   -0.000498
      5          1           0       -2.643043    1.012701   -0.000019
      6          1           0        2.643043   -1.012701    0.000456
 ---------------------------------------------------------------------

 Alpha  occ. eigenvalues --   -6.87554  -6.87553  -0.37723  -0.37595  -0.21814
 Alpha  occ. eigenvalues --   -0.21734  -0.05569  -0.01610
 Alpha virt. eigenvalues --    0.11884   0.13328   0.15186   0.15842   0.15879
 Alpha virt. eigenvalues --    0.17629   0.20055   0.20993   0.21045   0.23211
 Alpha virt. eigenvalues --    0.32253   0.33604   0.34240   0.37597   0.50465

  Beta  occ. eigenvalues --   -6.86948  -6.86948  -0.36403  -0.36204  -0.21136
  Beta  occ. eigenvalues --   -0.21040   0.01522
  Beta virt. eigenvalues --    0.13004   0.13168   0.14333   0.14508   0.16885
  Beta virt. eigenvalues --    0.18008   0.18188   0.22354   0.22621   0.23972
  Beta virt. eigenvalues --    0.25273   0.32300   0.33739   0.34347   0.38415

 Mulliken charges and spin densities:
               1          2
     1  B   -0.340415   0.491858
     2  B   -0.340415   0.491858
     3  H   -0.079792   0.004071
     4  H   -0.079792   0.004071
     5  H   -0.079792   0.004071
     6  H   -0.079792   0.004071
 Sum of Mulliken charges =  -1.00000   1.00000

 Dipole moment (field-independent basis, Debye):
    X=              0.0000    Y=             -0.0000    Z=             -0.0002  Tot=              0.0002
 Quadrupole moment (field-independent basis, Debye-Ang):
   XX=            -41.7606   YY=            -24.5886   ZZ=            -19.0313
   XY=              0.0000   XZ=             -0.0000   YZ=              0.0013

 Normal termination of Gaussian 16 at Mon Apr 21 17:21:25 2025.
