 Gaussian 16, Revision A.03,
 Gaussian 16:  ES64L-G16RevA.03 25-Dec-2016

 --------------------------------------------
 #p opt UM062X/6-311+G** nosymm int=superfine
 --------------------------------------------

 -------------------
 Title Card Required
 -------------------
 Symbolic Z-matrix:
 Charge =  0 Multiplicity = 1

 SCF Done:  E(UM062X) =  -437.318184736     A.U. after   12 cycles
 SCF Done:  E(UM062X) =  -437.319474672     A.U. after   10 cycles
 SCF Done:  E(UM062X) =  -437.319950713     A.U. after   12 cycles
 SCF Done:  E(UM062X) =  -437.319635414     A.U. after   11 cycles
 SCF Done:  E(UM062X) =  -437.319955213     A.U. after    8 cycles
 Optimization completed.
    -- Stationary point found.

                          Input orientation:
 ---------------------------------------------------------------------
 Center     Atomic      Atomic             Coordinates (Angstroms)
 Number     Number       Type             X           Y           Z
 ---------------------------------------------------------------------
      1          6           0       -1.102140    0.000000    0.000000
      2         16           0        1.102140    0.000000    0.000000
      3          1           0       -1.591007   -0.965875    0.000167
      4          1           0       -1.591279    0.965738   -0.000307
 ---------------------------------------------------------------------

 Alpha  occ. eigenvalues --  -89.92482 -10.67711  -8.28242  -6.20366  -6.20153
 Alpha  occ. eigenvalues --   -6.19576  -0.81594  -0.72008  -0.56106  -0.40064
 Alpha  occ. eigenvalues --   -0.31403  -0.29991
 Alpha virt. eigenvalues --   -0.12727  -0.03422   0.02383   0.05008   0.06256
 Alpha virt. eigenvalues --    0.06383   0.08332   0.08494   0.09501   0.14325
 Alpha virt. eigenvalues --    0.16259   0.20451   0.34948   0.36252   0.36942

  Beta  occ. eigenvalues --  -89.92482 -10.67711  -8.28242  -6.20366  -6.20153
  Beta  occ. eigenvalues --   -6.19576  -0.81594  -0.72008  -0.56106  -0.40064
  Beta  occ. eigenvalues --   -0.31403  -0.29991
  Beta virt. eigenvalues --   -0.12727  -0.03422   0.02383   0.05008   0.06256
  Beta virt. eigenvalues --    0.06383   0.08332   0.08494   0.09501   0.14325
  Beta virt. eigenvalues --    0.16259   0.20451   0.34948   0.36252   0.36942

 Mulliken charges and spin densities:
               1          2
     1  C   -0.336107   0.000000
     2  S   -0.088228  -0.000000
     3  H    0.212169  -0.000000
     4  H    0.212166  -0.000000
 Sum of Mulliken charges =  -0.00000  -0.00000

 Dipole moment (field-independent basis, Debye):
    X=             -2.8756    Y=             -0.0001    Z=             -0.0001  Tot=              2.8756
 Quadrupole moment (field-independent basis, Debye-Ang):
   XX=            -16.6541   YY=            -21.0828   ZZ=            -21.6259
   XY=             -0.0003   XZ=              0.0001   YZ=             -0.0001

 Normal termination of Gaussian 16 at Mon Apr 21 19:42:26 2025.
