 Gaussian 16, Revision A.03,
 Gaussian 16:  ES64L-G16RevA.03 25-Dec-2016

 --------------------------------------------
 #p opt UM062X/6-311+G** nosymm int=superfine
 --------------------------------------------

 -------------------
 Title Card Required
 -------------------
 Symbolic Z-matrix:
 Charge =  0 Multiplicity = 1

 SCF Done:  E(UM062X) =  -114.085073443     A.U. after   18 cycles
 SCF Done:  E(UM062X) =  -114.087782020     A.U. after   10 cycles
 SCF Done:  E(UM062X) =  -114.088630893     A.U. after    9 cycles
 SCF Done:  E(UM062X) =  -114.088634679     A.U. after    8 cycles
 Optimization completed.
    -- Stationary point found.

                          Input orientation:
 ---------------------------------------------------------------------
 Center     Atomic      Atomic             Coordinates (Angstroms)
 Number     Number       Type             X           Y           Z
 ---------------------------------------------------------------------
      1          6           0       -1.873311    0.000000    0.000000
      2          8           0        1.873311    0.000000    0.000000
      3          1           0       -2.560151   -0.867780    0.000002
      4          1           0       -2.560156    0.867776    0.000002
 ---------------------------------------------------------------------

 Alpha  occ. eigenvalues --  -19.74870 -10.62382  -1.04610  -0.76924  -0.49116
 Alpha  occ. eigenvalues --   -0.43511  -0.43506  -0.32651
 Alpha virt. eigenvalues --   -0.17571  -0.09390   0.01779   0.06053   0.07958
 Alpha virt. eigenvalues --    0.08335   0.15886   0.16379   0.18658   0.19329
 Alpha virt. eigenvalues --    0.21352   0.25167   0.43771   0.47554   0.57855

  Beta  occ. eigenvalues --  -19.74870 -10.62382  -1.04610  -0.76924  -0.49116
  Beta  occ. eigenvalues --   -0.43511  -0.43506  -0.32651
  Beta virt. eigenvalues --   -0.17571  -0.09390   0.01779   0.06053   0.07958
  Beta virt. eigenvalues --    0.08335   0.15886   0.16379   0.18658   0.19329
  Beta virt. eigenvalues --    0.21352   0.25167   0.43771   0.47554   0.57855

 Mulliken charges and spin densities:
               1          2
     1  C   -0.266071  -0.000000
     2  O   -0.014293   0.000000
     3  H    0.140182  -0.000000
     4  H    0.140182   0.000000
 Sum of Mulliken charges =  -0.00000   0.00000

 Dipole moment (field-independent basis, Debye):
    X=             -2.6062    Y=             -0.0000    Z=              0.0000  Tot=              2.6062
 Quadrupole moment (field-independent basis, Debye-Ang):
   XX=             -4.9816   YY=            -13.1425   ZZ=            -12.4895
   XY=              0.0000   XZ=             -0.0000   YZ=             -0.0000

 Normal termination of Gaussian 16 at Mon Apr 21 18:56:26 2025.
