 Gaussian 16, Revision A.03,
 Gaussian 16:  ES64L-G16RevA.03 25-Dec-2016

 --------------------------------------------
 #p opt UM062X/6-311+G** nosymm int=superfine
 --------------------------------------------

 -------------------
 Title Card Required
 -------------------
 Symbolic Z-matrix:
 Charge =  1 Multiplicity = 2

 SCF Done:  E(UM062X) =  -79.3131629008     A.U. after   10 cycles
 SCF Done:  E(UM062X) =  -79.3148435865     A.U. after    9 cycles
 SCF Done:  E(UM062X) =  -79.3148644377     A.U. after    9 cycles
 Optimization completed.
    -- Stationary point found.

                          Input orientation:
 ---------------------------------------------------------------------
 Center     Atomic      Atomic             Coordinates (Angstroms)
 Number     Number       Type             X           Y           Z
 ---------------------------------------------------------------------
      1          6           0       -2.140008    0.000000    0.000000
      2          6           0        2.140008    0.000000    0.000000
      3          1           0        2.163137   -0.937404    0.542555
      4          1           0       -2.161207   -0.938498   -0.540732
      5          1           0        2.162301    0.938593    0.540526
      6          1           0        2.161210   -0.001171   -1.083129
      7          1           0       -2.163196    0.937512   -0.542365
      8          1           0       -2.162247    0.000951    1.083110
 ---------------------------------------------------------------------

 Alpha  occ. eigenvalues --  -10.83005 -10.83004  -1.01615  -1.01395  -0.72717
 Alpha  occ. eigenvalues --   -0.72716  -0.72658  -0.72657  -0.46329
 Alpha virt. eigenvalues --   -0.37836  -0.12409  -0.10063  -0.09108  -0.09108
 Alpha virt. eigenvalues --   -0.06196  -0.06196  -0.04427  -0.02631   0.00468
 Alpha virt. eigenvalues --    0.00471   0.01499   0.01501   0.02343   0.09089

  Beta  occ. eigenvalues --  -10.82779 -10.82779  -0.98953  -0.98840  -0.72180
  Beta  occ. eigenvalues --   -0.72179  -0.72111  -0.72110
  Beta virt. eigenvalues --   -0.31731  -0.26686  -0.17086  -0.10403  -0.10402
  Beta virt. eigenvalues --   -0.10244  -0.06145  -0.06145  -0.05678  -0.01664
  Beta virt. eigenvalues --    0.00362   0.00365   0.01747   0.01749   0.02253

 Mulliken charges and spin densities:
               1          2
     1  C   -0.238800   0.558485
     2  C   -0.238800   0.558485
     3  H    0.246285  -0.019493
     4  H    0.246249  -0.019493
     5  H    0.246270  -0.019495
     6  H    0.246244  -0.019497
     7  H    0.246287  -0.019493
     8  H    0.246264  -0.019499
 Sum of Mulliken charges =   1.00000   1.00000

 Dipole moment (field-independent basis, Debye):
    X=              0.0000    Y=             -0.0000    Z=             -0.0000  Tot=              0.0001
 Quadrupole moment (field-independent basis, Debye-Ang):
   XX=             10.3738   YY=            -11.1213   ZZ=            -11.1214
   XY=             -0.0021   XZ=              0.0012   YZ=              0.0000

 Normal termination of Gaussian 16 at Sat Nov 16 16:10:32 2024.
