 Gaussian 16, Revision A.03,
 Gaussian 16:  ES64L-G16RevA.03 25-Dec-2016

 ---------------------------------------------------------
 #p opt UM062X/6-311+G** nosymm int=superfine SCF=NoVarAcc
 ---------------------------------------------------------

 -------------------
 Title Card Required
 -------------------
 Symbolic Z-matrix:
 Charge =  0 Multiplicity = 1

 SCF Done:  E(UM062X) =  -76.8324372732     A.U. after   10 cycles
 SCF Done:  E(UM062X) =  -76.8324397885     A.U. after    7 cycles
 Optimization completed.
    -- Stationary point found.

                          Input orientation:
 ---------------------------------------------------------------------
 Center     Atomic      Atomic             Coordinates (Angstroms)
 Number     Number       Type             X           Y           Z
 ---------------------------------------------------------------------
      1          6           0       -2.432625    0.000000    0.000000
      2          6           0        2.432625    0.000000    0.000000
      3          1           0       -3.554024   -0.000015    0.000015
      4          1           0        3.554024    0.000012   -0.000012
 ---------------------------------------------------------------------

 Alpha  occ. eigenvalues --  -10.66245 -10.66244  -0.72031  -0.71989  -0.38219
 Alpha  occ. eigenvalues --   -0.37905  -0.20495
 Alpha virt. eigenvalues --   -0.14716  -0.09270  -0.09114   0.03000   0.03321
 Alpha virt. eigenvalues --    0.07620   0.08688   0.09616   0.09653   0.10580
 Alpha virt. eigenvalues --    0.14453   0.17494   0.20835   0.45150   0.47332

  Beta  occ. eigenvalues --  -10.66245 -10.66244  -0.72031  -0.71989  -0.38219
  Beta  occ. eigenvalues --   -0.37905  -0.20495
  Beta virt. eigenvalues --   -0.14716  -0.09270  -0.09114   0.03000   0.03321
  Beta virt. eigenvalues --    0.07620   0.08688   0.09616   0.09653   0.10580
  Beta virt. eigenvalues --    0.14453   0.17494   0.20835   0.45150   0.47332

 Mulliken charges and spin densities:
               1          2
     1  C   -0.131224  -0.000000
     2  C   -0.131224   0.000000
     3  H    0.131224   0.000000
     4  H    0.131224  -0.000000
 Sum of Mulliken charges =  -0.00000  -0.00000

 Dipole moment (field-independent basis, Debye):
    X=              0.0000    Y=             -0.0000    Z=              0.0000  Tot=              0.0000
 Quadrupole moment (field-independent basis, Debye-Ang):
   XX=              1.1758   YY=            -14.6432   ZZ=            -14.6417
   XY=              0.0001   XZ=             -0.0001   YZ=             -2.7322

 Normal termination of Gaussian 16 at Tue Dec  3 20:20:18 2024.
