 Gaussian 16, Revision A.03,
 Gaussian 16:  ES64L-G16RevA.03 25-Dec-2016

 --------------------------------------------
 #p opt UM062X/6-311+G** nosymm int=superfine
 --------------------------------------------

 -------------------
 Title Card Required
 -------------------
 Symbolic Z-matrix:
 Charge =  1 Multiplicity = 2

 SCF Done:  E(UM062X) =  -579.685557830     A.U. after   15 cycles
 SCF Done:  E(UM062X) =  -579.688653400     A.U. after   14 cycles
 SCF Done:  E(UM062X) =  -579.693495843     A.U. after   15 cycles
 SCF Done:  E(UM062X) =  -579.693852770     A.U. after   13 cycles
 SCF Done:  E(UM062X) =  -579.693933153     A.U. after   12 cycles
 SCF Done:  E(UM062X) =  -579.693955568     A.U. after   12 cycles
 SCF Done:  E(UM062X) =  -579.694009345     A.U. after   13 cycles
 SCF Done:  E(UM062X) =  -579.694022760     A.U. after   11 cycles
 SCF Done:  E(UM062X) =  -579.694023255     A.U. after    9 cycles
 Optimization completed.
    -- Stationary point found.

                          Input orientation:
 ---------------------------------------------------------------------
 Center     Atomic      Atomic             Coordinates (Angstroms)
 Number     Number       Type             X           Y           Z
 ---------------------------------------------------------------------
      1         14           0       -1.852975    0.000000    0.000000
      2         14           0        1.852975    0.000000    0.000000
      3          1           0       -1.988559   -1.500615    0.000000
      4          1           0        1.988486    1.500619    0.000000
 ---------------------------------------------------------------------

 Alpha  occ. eigenvalues --  -67.27004 -67.27004  -5.81172  -5.81171  -4.12275
 Alpha  occ. eigenvalues --   -4.12275  -4.12198  -4.12198  -4.11541  -4.11541
 Alpha  occ. eigenvalues --   -0.76658  -0.75315  -0.53058  -0.52738  -0.42896
 Alpha virt. eigenvalues --   -0.28716  -0.27477  -0.26838  -0.11431  -0.10013
 Alpha virt. eigenvalues --   -0.08849  -0.08569  -0.08036  -0.07094  -0.05691
 Alpha virt. eigenvalues --   -0.05683  -0.05400  -0.02892   0.12739   0.14311

  Beta  occ. eigenvalues --  -67.26744 -67.26744  -5.81092  -5.81090  -4.12133
  Beta  occ. eigenvalues --   -4.12133  -4.11603  -4.11603  -4.11408  -4.11407
  Beta  occ. eigenvalues --   -0.74672  -0.73633  -0.52517  -0.51703
  Beta virt. eigenvalues --   -0.28734  -0.28308  -0.26326  -0.22450  -0.13144
  Beta virt. eigenvalues --   -0.10359  -0.08926  -0.08841  -0.08294  -0.06832
  Beta virt. eigenvalues --   -0.05616  -0.05417  -0.05347  -0.02738   0.11613

 Mulliken charges and spin densities:
               1          2
     1  Si   0.576329   0.510935
     2  Si   0.576336   0.510927
     3  H   -0.076332  -0.010931
     4  H   -0.076333  -0.010931
 Sum of Mulliken charges =   1.00000   1.00000

 Dipole moment (field-independent basis, Debye):
    X=              0.0000    Y=              0.0000    Z=              0.0000  Tot=              0.0000
 Quadrupole moment (field-independent basis, Debye-Ang):
   XX=             -2.9448   YY=            -27.4651   ZZ=            -19.7862
   XY=              1.9511   XZ=             -0.0000   YZ=              0.0000

 Normal termination of Gaussian 16 at Mon Apr 21 20:41:00 2025.
