 Gaussian 16, Revision A.03,
 Gaussian 16:  ES64L-G16RevA.03 25-Dec-2016

 --------------------------------------------
 #p opt UM062X/6-311+G** nosymm int=superfine
 --------------------------------------------

 -------------------
 Title Card Required
 -------------------
 Symbolic Z-matrix:
 Charge =  1 Multiplicity = 2

 SCF Done:  E(UM062X) =  -80.1528525412     A.U. after   17 cycles
 SCF Done:  E(UM062X) =  -80.1528586729     A.U. after   13 cycles
 SCF Done:  E(UM062X) =  -80.1528587110     A.U. after   11 cycles
 Optimization completed.
    -- Stationary point found.

                          Input orientation:
 ---------------------------------------------------------------------
 Center     Atomic      Atomic             Coordinates (Angstroms)
 Number     Number       Type             X           Y           Z
 ---------------------------------------------------------------------
      1          5           0       -2.152734    0.000000    0.000000
      2          7           0        2.152734    0.000000    0.000000
      3          1           0       -3.356691    0.054707    0.000000
      4          1           0        3.181301    0.121870   -0.000000
 ---------------------------------------------------------------------

 Alpha  occ. eigenvalues --  -14.93686  -7.54097  -1.06844  -0.86478  -0.60604
 Alpha  occ. eigenvalues --   -0.53246  -0.53041
 Alpha virt. eigenvalues --   -0.45069  -0.35065  -0.35059  -0.16446  -0.12293
 Alpha virt. eigenvalues --   -0.09982  -0.09886  -0.09470  -0.03519   0.02307
 Alpha virt. eigenvalues --    0.02314   0.04222   0.07602   0.11663   0.12811

  Beta  occ. eigenvalues --  -14.91200  -7.55329  -0.94019  -0.90102  -0.68669
  Beta  occ. eigenvalues --   -0.54824
  Beta virt. eigenvalues --   -0.36284  -0.36284  -0.18124  -0.18080  -0.14768
  Beta virt. eigenvalues --   -0.10689  -0.09948  -0.09945  -0.06880  -0.03401
  Beta virt. eigenvalues --    0.04318   0.04342   0.06291   0.09022   0.15605

 Mulliken charges and spin densities:
               1          2
     1  B    0.765601  -0.849020
     2  N   -0.231440   2.053235
     3  H    0.219076  -0.139031
     4  H    0.246763  -0.065184
 Sum of Mulliken charges =   1.00000   1.00000

 Dipole moment (field-independent basis, Debye):
    X=             -8.8846    Y=              0.2386    Z=              0.0000  Tot=              8.8878
 Quadrupole moment (field-independent basis, Debye-Ang):
   XX=             25.3075   YY=            -10.2451   ZZ=            -10.2699
   XY=              0.4776   XZ=             -0.0000   YZ=             -0.0000

 Normal termination of Gaussian 16 at Mon Apr 21 18:51:27 2025.
