 Gaussian 16, Revision A.03,
 Gaussian 16:  ES64L-G16RevA.03 25-Dec-2016

 ----------------------------------------------------------------------
 #p opt UM062X/6-311+G** nosymm int=superfine SCF=(MaxCycle=200,NoVarAc
 c,noincfock) guess=read
 ----------------------------------------------------------------------

 -------------------
 Title Card Required
 -------------------
 Symbolic Z-matrix:
 Charge = -1 Multiplicity = 2

 SCF Done:  E(UM062X) =  -51.8743421790     A.U. after   22 cycles
 SCF Done:  E(UM062X) =  -51.8795798621     A.U. after   17 cycles
 SCF Done:  E(UM062X) =  -51.8842565969     A.U. after   17 cycles
 SCF Done:  E(UM062X) =  -51.8847212157     A.U. after   15 cycles
 SCF Done:  E(UM062X) =  -51.8848724949     A.U. after   15 cycles
 SCF Done:  E(UM062X) =  -51.8849208611     A.U. after   15 cycles
 SCF Done:  E(UM062X) =  -51.8849402112     A.U. after   14 cycles
 SCF Done:  E(UM062X) =  -51.8849592516     A.U. after   14 cycles
 SCF Done:  E(UM062X) =  -51.8849609025     A.U. after   13 cycles
 Optimization completed.
    -- Stationary point found.

                          Input orientation:
 ---------------------------------------------------------------------
 Center     Atomic      Atomic             Coordinates (Angstroms)
 Number     Number       Type             X           Y           Z
 ---------------------------------------------------------------------
      1          5           0       -1.622274    0.000000    0.000000
      2          5           0        1.622274    0.000000    0.000000
      3          1           0       -1.935793   -1.042946   -0.502606
      4          1           0        1.769434    1.081936    0.479167
      5          1           0       -1.935798    1.042666   -0.503182
      6          1           0        1.769446   -1.081593    0.479936
 ---------------------------------------------------------------------

 Alpha  occ. eigenvalues --   -6.87344  -6.85556  -0.37206  -0.35793  -0.22886
 Alpha  occ. eigenvalues --   -0.22186  -0.04655  -0.00837
 Alpha virt. eigenvalues --    0.11212   0.14085   0.16500   0.17028   0.19058
 Alpha virt. eigenvalues --    0.20319   0.21354   0.22228   0.22435   0.24045
 Alpha virt. eigenvalues --    0.33506   0.33964   0.35373   0.36043   0.48303

  Beta  occ. eigenvalues --   -6.87859  -6.84928  -0.37370  -0.32553  -0.23065
  Beta  occ. eigenvalues --   -0.21602  -0.04942
  Beta virt. eigenvalues --    0.07718   0.12127   0.14150   0.15485   0.15865
  Beta virt. eigenvalues --    0.18119   0.19497   0.20531   0.22434   0.23598
  Beta virt. eigenvalues --    0.26375   0.32547   0.33572   0.34856   0.35340

 Mulliken charges and spin densities:
               1          2
     1  B   -0.376283  -0.530977
     2  B   -0.477010   1.585008
     3  H   -0.045748  -0.002606
     4  H   -0.027605  -0.024410
     5  H   -0.045749  -0.002606
     6  H   -0.027605  -0.024410
 Sum of Mulliken charges =  -1.00000   1.00000

 Dipole moment (field-independent basis, Debye):
    X=             -1.0923    Y=             -0.0000    Z=             -0.1371  Tot=              1.1009
 Quadrupole moment (field-independent basis, Debye-Ang):
   XX=            -35.2912   YY=            -22.9103   ZZ=            -25.5874
   XY=              0.0005   XZ=              1.3177   YZ=             -0.0009

 Normal termination of Gaussian 16 at Mon Apr 21 21:23:36 2025.
