 Gaussian 16, Revision A.03,
 Gaussian 16:  ES64L-G16RevA.03 25-Dec-2016

 --------------------------------------------
 #p opt UM062X/6-311+G** nosymm int=superfine
 --------------------------------------------

 -------------------
 Title Card Required
 -------------------
 Symbolic Z-matrix:
 Charge =  1 Multiplicity = 2

 SCF Done:  E(UM062X) =  -92.9107933756     A.U. after   12 cycles
 SCF Done:  E(UM062X) =  -92.9107960561     A.U. after    6 cycles
 Optimization completed.
    -- Stationary point found.

                          Input orientation:
 ---------------------------------------------------------------------
 Center     Atomic      Atomic             Coordinates (Angstroms)
 Number     Number       Type             X           Y           Z
 ---------------------------------------------------------------------
      1          6           0       -0.626540    0.000000    0.000000
      2          7           0        0.626540    0.000000    0.000000
      3          1           0       -1.722866    0.000000   -0.000000
 ---------------------------------------------------------------------

 Alpha  occ. eigenvalues --  -15.22391 -11.04769  -1.42571  -1.04220  -0.84846
 Alpha  occ. eigenvalues --   -0.82617  -0.79492
 Alpha virt. eigenvalues --   -0.35414  -0.32948  -0.20061  -0.16336  -0.11603
 Alpha virt. eigenvalues --   -0.11243  -0.07315  -0.01791  -0.01213  -0.00945
 Alpha virt. eigenvalues --    0.05310   0.14279   0.27564   0.28040   0.35067

  Beta  occ. eigenvalues --  -15.21938 -11.04583  -1.37342  -1.02750  -0.82654
  Beta  occ. eigenvalues --   -0.77151
  Beta virt. eigenvalues --   -0.54052  -0.31354  -0.27454  -0.19120  -0.17029
  Beta virt. eigenvalues --   -0.11462  -0.11292  -0.07082  -0.01652  -0.01511
  Beta virt. eigenvalues --   -0.01071   0.04377   0.14400   0.25711   0.27812

 Mulliken charges and spin densities:
               1          2
     1  C    0.356842   0.431770
     2  N    0.283468   0.584468
     3  H    0.359690  -0.016238
 Sum of Mulliken charges =   1.00000   1.00000

 Dipole moment (field-independent basis, Debye):
    X=             -3.7702    Y=              0.0000    Z=             -0.0000  Tot=              3.7702
 Quadrupole moment (field-independent basis, Debye-Ang):
   XX=             -3.8131   YY=             -8.9303   ZZ=             -9.5918
   XY=             -0.0000   XZ=              0.0000   YZ=              0.6706

 Normal termination of Gaussian 16 at Mon Apr 21 18:30:51 2025.
