 Gaussian 16, Revision A.03,
 Gaussian 16:  ES64L-G16RevA.03 25-Dec-2016

 ---------------------------------------
 #p UM062X/6-311+G** force int=superfine
 ---------------------------------------

 -------------------
 Title Card Required
 -------------------
 Symbolic Z-matrix:
 Charge =  1 Multiplicity = 2

                         Standard orientation:
 ---------------------------------------------------------------------
 Center     Atomic      Atomic             Coordinates (Angstroms)
 Number     Number       Type             X           Y           Z
 ---------------------------------------------------------------------
      1          7           0        0.000000    0.000000    1.855391
      2          7           0        0.000000    0.000000   -1.855391
 ---------------------------------------------------------------------

 SCF Done:  E(UM062X) =  -108.332775185     A.U. after   10 cycles

 Unable to determine electronic state:  partially filled degenerate orbitals.
 Alpha  occ. eigenvalues --  -15.30511 -15.30508  -1.19215  -1.18725  -0.64827
 Alpha  occ. eigenvalues --   -0.63004  -0.62200
 Alpha virt. eigenvalues --   -0.57115  -0.54473  -0.53860  -0.12940  -0.08034
 Alpha virt. eigenvalues --   -0.07672  -0.07507  -0.04308  -0.02920  -0.02734
 Alpha virt. eigenvalues --    0.03571   0.51777   0.52890   0.52985   0.54158

  Beta  occ. eigenvalues --  -15.30022 -15.30019  -1.15477  -1.15058  -0.61247
  Beta  occ. eigenvalues --   -0.60423
  Beta virt. eigenvalues --   -0.52681  -0.51999  -0.43410  -0.43141  -0.13750
  Beta virt. eigenvalues --   -0.08845  -0.07852  -0.07541  -0.04525  -0.03236
  Beta virt. eigenvalues --   -0.02951   0.02479   0.52775   0.53136   0.54185

 Mulliken charges and spin densities:
               1          2
     1  N    0.500000   0.500000
     2  N    0.500000   0.500000
 Sum of Mulliken charges =   1.00000   1.00000

 Dipole moment (field-independent basis, Debye):
    X=              0.0000    Y=             -0.0000    Z=             -0.0000  Tot=              0.0000
 Quadrupole moment (field-independent basis, Debye-Ang):
   XX=            -10.0041   YY=             -8.5627   ZZ=              7.9038
   XY=             -0.0000   XZ=             -0.0000   YZ=             -0.0000

 Optimization completed.
    -- Stationary point found.
 Normal termination of Gaussian 16 at Wed Feb 26 14:02:01 2025.
