 Gaussian 16, Revision A.03,
 Gaussian 16:  ES64L-G16RevA.03 25-Dec-2016

 --------------------------------------------
 #p opt UM062X/6-311+G** nosymm int=superfine
 --------------------------------------------

 -------------------
 Title Card Required
 -------------------
 Symbolic Z-matrix:
 Charge =  0 Multiplicity = 1

 SCF Done:  E(UM062X) =  -683.579040072     A.U. after   11 cycles
 SCF Done:  E(UM062X) =  -683.579249388     A.U. after   10 cycles
 SCF Done:  E(UM062X) =  -683.579667913     A.U. after   13 cycles
 SCF Done:  E(UM062X) =  -683.579801666     A.U. after   15 cycles
 SCF Done:  E(UM062X) =  -683.579805369     A.U. after   15 cycles
 Optimization completed.
    -- Stationary point found.

                          Input orientation:
 ---------------------------------------------------------------------
 Center     Atomic      Atomic             Coordinates (Angstroms)
 Number     Number       Type             X           Y           Z
 ---------------------------------------------------------------------
      1         15           0       -2.284490    0.000000    0.000000
      2         15           0        2.284490    0.000000    0.000000
      3          1           0       -2.127325   -1.415328   -0.000000
      4          1           0        2.127325    1.415328   -0.000000
 ---------------------------------------------------------------------

 Alpha  occ. eigenvalues --  -78.08266 -78.08266  -6.90334  -6.90334  -5.01740
 Alpha  occ. eigenvalues --   -5.01740  -5.01724  -5.01724  -5.01549  -5.01549
 Alpha  occ. eigenvalues --   -0.68560  -0.68151  -0.40552  -0.40480  -0.24844
 Alpha  occ. eigenvalues --   -0.23764
 Alpha virt. eigenvalues --   -0.17351  -0.16154   0.01871   0.03039   0.03718
 Alpha virt. eigenvalues --    0.04436   0.05540   0.06041   0.06379   0.07419
 Alpha virt. eigenvalues --    0.08192   0.11347   0.28718   0.28851   0.30692

  Beta  occ. eigenvalues --  -78.08266 -78.08266  -6.90334  -6.90334  -5.01740
  Beta  occ. eigenvalues --   -5.01740  -5.01724  -5.01724  -5.01549  -5.01549
  Beta  occ. eigenvalues --   -0.68560  -0.68151  -0.40552  -0.40480  -0.24844
  Beta  occ. eigenvalues --   -0.23764
  Beta virt. eigenvalues --   -0.17351  -0.16154   0.01871   0.03039   0.03718
  Beta virt. eigenvalues --    0.04436   0.05540   0.06041   0.06379   0.07419
  Beta virt. eigenvalues --    0.08192   0.11347   0.28718   0.28851   0.30692

 Mulliken charges and spin densities:
               1          2
     1  P    0.012160  -0.000000
     2  P    0.012160   0.000000
     3  H   -0.012160   0.000000
     4  H   -0.012160   0.000000
 Sum of Mulliken charges =  -0.00000  -0.00000

 Dipole moment (field-independent basis, Debye):
    X=              0.0000    Y=             -0.0000    Z=             -0.0000  Tot=              0.0000
 Quadrupole moment (field-independent basis, Debye-Ang):
   XX=            -27.2540   YY=            -28.5144   ZZ=            -30.7554
   XY=              3.4443   XZ=             -0.0000   YZ=             -0.0000

 Normal termination of Gaussian 16 at Mon Apr 21 21:14:32 2025.
