 Gaussian 16, Revision A.03,
 Gaussian 16:  ES64L-G16RevA.03 25-Dec-2016

 ---------------------------------------------------
 #p UM062X/6-311+G** force int=superfine pop=saveNBO
 ---------------------------------------------------

 -------------------
 Title Card Required
 -------------------
 Symbolic Z-matrix:
 Charge =  0 Multiplicity = 1

                         Standard orientation:
 ---------------------------------------------------------------------
 Center     Atomic      Atomic             Coordinates (Angstroms)
 Number     Number       Type             X           Y           Z
 ---------------------------------------------------------------------
      1          8           0        0.000000    0.000000    1.718562
      2          8           0        0.000000    0.000000   -1.718562
 ---------------------------------------------------------------------

 SCF Done:  E(UM062X) =  -149.784832266     A.U. after   10 cycles

 Unable to determine electronic state:  partially filled degenerate orbitals.
 Alpha  occ. eigenvalues --  -19.82532 -19.82530  -1.10288  -1.09886  -0.48587
 Alpha  occ. eigenvalues --   -0.48397  -0.40343  -0.39586
 Alpha virt. eigenvalues --   -0.31195  -0.30293   0.09252   0.12520   0.14393
 Alpha virt. eigenvalues --    0.14448   0.18171   0.19214   0.19450   0.28526
 Alpha virt. eigenvalues --    0.99912   1.01181   1.01305   1.01486   1.02618

  Beta  occ. eigenvalues --  -19.82532 -19.82530  -1.10288  -1.09886  -0.48587
  Beta  occ. eigenvalues --   -0.48397  -0.40343  -0.39586
  Beta virt. eigenvalues --   -0.31195  -0.30293   0.09252   0.12520   0.14393
  Beta virt. eigenvalues --    0.14448   0.18171   0.19214   0.19450   0.28526
  Beta virt. eigenvalues --    0.99912   1.01181   1.01305   1.01486   1.02618

 Mulliken charges and spin densities:
               1          2
     1  O   -0.000000  -0.000000
     2  O   -0.000000  -0.000000
 Sum of Mulliken charges =  -0.00000  -0.00000

 Dipole moment (field-independent basis, Debye):
    X=             -0.0000    Y=             -0.0000    Z=              0.0000  Tot=              0.0000
 Quadrupole moment (field-independent basis, Debye-Ang):
   XX=            -12.0437   YY=            -10.1763   ZZ=             -9.2816
   XY=             -0.0000   XZ=             -0.0000   YZ=              0.0000

 Summary of Natural Population Analysis:

                                       Natural Population
                Natural  -----------------------------------------------
    Atom  No    Charge         Core      Valence    Rydberg      Total
 -----------------------------------------------------------------------
      O    1    0.00000      1.00000     2.99898    0.00102     4.00000
      O    2   -0.00000      1.00000     2.99898    0.00102     4.00000
 =======================================================================
   * Total *    0.00000      2.00000     5.99795    0.00205     8.00000

 Normal termination of Gaussian 16 at Mon Apr 21 19:54:34 2025.
