 Gaussian 16, Revision A.03,
 Gaussian 16:  ES64L-G16RevA.03 25-Dec-2016

 --------------------------------------------
 #p opt UM062X/6-311+G** nosymm int=superfine
 --------------------------------------------

 -------------------
 Title Card Required
 -------------------
 Symbolic Z-matrix:
 Charge =  0 Multiplicity = 1

 SCF Done:  E(UM062X) =  -381.116520106     A.U. after   12 cycles
 SCF Done:  E(UM062X) =  -381.118174505     A.U. after   10 cycles
 SCF Done:  E(UM062X) =  -381.118190484     A.U. after   10 cycles
 SCF Done:  E(UM062X) =  -381.114244357     A.U. after   12 cycles
 SCF Done:  E(UM062X) =  -381.117943552     A.U. after   11 cycles
 SCF Done:  E(UM062X) =  -381.118305281     A.U. after    8 cycles
 SCF Done:  E(UM062X) =  -381.118379328     A.U. after   11 cycles
 SCF Done:  E(UM062X) =  -381.118403719     A.U. after    9 cycles
 SCF Done:  E(UM062X) =  -381.118404072     A.U. after    7 cycles
 SCF Done:  E(UM062X) =  -381.118404188     A.U. after    7 cycles
 Optimization completed.
    -- Stationary point found.

                          Input orientation:
 ---------------------------------------------------------------------
 Center     Atomic      Atomic             Coordinates (Angstroms)
 Number     Number       Type             X           Y           Z
 ---------------------------------------------------------------------
      1          6           0       -1.055452    0.000000    0.000000
      2         15           0        1.055452    0.000000    0.000000
      3          1           0       -1.593156   -0.939943    0.004746
      4          1           0        1.071689   -1.419570    0.007354
      5          1           0       -1.570405    0.952215   -0.004841
 ---------------------------------------------------------------------

 Alpha  occ. eigenvalues --  -78.05352 -10.60838  -6.87345  -4.98818  -4.98806
 Alpha  occ. eigenvalues --   -4.98626  -0.77426  -0.65785  -0.51563  -0.40741
 Alpha  occ. eigenvalues --   -0.35087  -0.28084
 Alpha virt. eigenvalues --   -0.08106   0.00254   0.02314   0.04271   0.05314
 Alpha virt. eigenvalues --    0.05866   0.07411   0.07558   0.10578   0.11353
 Alpha virt. eigenvalues --    0.15059   0.19088   0.21238   0.30454   0.32305

  Beta  occ. eigenvalues --  -78.05352 -10.60838  -6.87345  -4.98818  -4.98806
  Beta  occ. eigenvalues --   -4.98626  -0.77426  -0.65785  -0.51563  -0.40741
  Beta  occ. eigenvalues --   -0.35087  -0.28084
  Beta virt. eigenvalues --   -0.08106   0.00254   0.02314   0.04271   0.05314
  Beta virt. eigenvalues --    0.05866   0.07411   0.07558   0.10578   0.11353
  Beta virt. eigenvalues --    0.15059   0.19088   0.21238   0.30454   0.32305

 Mulliken charges and spin densities:
               1          2
     1  C   -0.455226  -0.000000
     2  P    0.100972   0.000000
     3  H    0.188117   0.000000
     4  H   -0.022407  -0.000000
     5  H    0.188544   0.000000
 Sum of Mulliken charges =  -0.00000  -0.00000

 Dipole moment (field-independent basis, Debye):
    X=             -0.7007    Y=             -0.5713    Z=              0.0029  Tot=              0.9040
 Quadrupole moment (field-independent basis, Debye-Ang):
   XX=            -19.2245   YY=            -20.0413   ZZ=            -23.6650
   XY=             -1.1731   XZ=              0.0060   YZ=             -0.0185

 Normal termination of Gaussian 16 at Mon Apr 21 19:13:16 2025.
