 Gaussian 16, Revision A.03,
 Gaussian 16:  ES64L-G16RevA.03 25-Dec-2016

 --------------------------------------------
 #p opt UM062X/6-311+G** nosymm int=superfine
 --------------------------------------------

 -------------------
 Title Card Required
 -------------------
 Symbolic Z-matrix:
 Charge =  0 Multiplicity = 1

 SCF Done:  E(UM062X) =  -79.5959029791     A.U. after   10 cycles
 SCF Done:  E(UM062X) =  -79.5985981914     A.U. after    9 cycles
 SCF Done:  E(UM062X) =  -79.5995036997     A.U. after    9 cycles
 SCF Done:  E(UM062X) =  -79.5995060832     A.U. after    7 cycles
 Optimization completed.
    -- Stationary point found.

                          Input orientation:
 ---------------------------------------------------------------------
 Center     Atomic      Atomic             Coordinates (Angstroms)
 Number     Number       Type             X           Y           Z
 ---------------------------------------------------------------------
      1          6           0       -1.696675    0.000000    0.000000
      2          6           0        1.696800    0.000000    0.000000
      3          1           0        1.789959   -0.931428    0.538966
      4          1           0       -1.789823   -0.932479   -0.537148
      5          1           0        1.789951    0.932480    0.537147
      6          1           0        1.789947   -0.001050   -1.076126
      7          1           0       -1.789833    0.931429   -0.538966
      8          1           0       -1.789826    0.001049    1.076126
 ---------------------------------------------------------------------

 Alpha  occ. eigenvalues --  -10.57064 -10.57062  -0.76984  -0.76283  -0.48956
 Alpha  occ. eigenvalues --   -0.48956  -0.48611  -0.48611  -0.23105
 Alpha virt. eigenvalues --   -0.09365   0.03030   0.05349   0.05349   0.05354
 Alpha virt. eigenvalues --    0.07659   0.07659   0.11304   0.12466   0.18484
 Alpha virt. eigenvalues --    0.18484   0.20813   0.20813   0.23556   0.25030

  Beta  occ. eigenvalues --  -10.57064 -10.57062  -0.76984  -0.76283  -0.48956
  Beta  occ. eigenvalues --   -0.48956  -0.48611  -0.48611  -0.23105
  Beta virt. eigenvalues --   -0.09365   0.03030   0.05349   0.05349   0.05354
  Beta virt. eigenvalues --    0.07659   0.07659   0.11304   0.12466   0.18484
  Beta virt. eigenvalues --    0.18484   0.20813   0.20813   0.23556   0.25030

 Mulliken charges and spin densities:
               1          2
     1  C   -0.526400   0.000000
     2  C   -0.526401  -0.000000
     3  H    0.175467   0.000000
     4  H    0.175467  -0.000000
     5  H    0.175467   0.000000
     6  H    0.175467   0.000000
     7  H    0.175467  -0.000000
     8  H    0.175467  -0.000000
 Sum of Mulliken charges =  -0.00000  -0.00000

 Dipole moment (field-independent basis, Debye):
    X=             -0.0000    Y=             -0.0000    Z=             -0.0000  Tot=              0.0000
 Quadrupole moment (field-independent basis, Debye-Ang):
   XX=            -15.4163   YY=            -14.8310   ZZ=            -14.8311
   XY=             -0.0000   XZ=              0.0000   YZ=              0.0000

 Normal termination of Gaussian 16 at Tue Dec  3 10:03:24 2024.
