 Gaussian 16, Revision A.03,
 Gaussian 16:  ES64L-G16RevA.03 25-Dec-2016

 --------------------------------------------
 #p opt UM062X/6-311+G** nosymm int=superfine
 --------------------------------------------

 -------------------
 Title Card Required
 -------------------
 Symbolic Z-matrix:
 Charge =  0 Multiplicity = 1

 SCF Done:  E(UM062X) =  -114.133731715     A.U. after   17 cycles
 SCF Done:  E(UM062X) =  -114.134135740     A.U. after   10 cycles
 SCF Done:  E(UM062X) =  -114.134202655     A.U. after    9 cycles
 SCF Done:  E(UM062X) =  -114.134211954     A.U. after   13 cycles
 Optimization completed.
    -- Stationary point found.

                          Input orientation:
 ---------------------------------------------------------------------
 Center     Atomic      Atomic             Coordinates (Angstroms)
 Number     Number       Type             X           Y           Z
 ---------------------------------------------------------------------
      1          6           0       -1.223311    0.000000    0.000000
      2          8           0        1.223311    0.000000    0.000000
      3          1           0       -1.834707   -0.909374   -0.000121
      4          1           0       -1.834710    0.909372   -0.000120
 ---------------------------------------------------------------------

 Alpha  occ. eigenvalues --  -19.66460 -10.69183  -0.97472  -0.81319  -0.55437
 Alpha  occ. eigenvalues --   -0.37037  -0.35819  -0.35769
 Alpha virt. eigenvalues --   -0.13225  -0.09909   0.00605   0.04920   0.06709
 Alpha virt. eigenvalues --    0.07193   0.15548   0.15696   0.20185   0.22995
 Alpha virt. eigenvalues --    0.25985   0.32059   0.41513   0.43031   0.54410

  Beta  occ. eigenvalues --  -19.66460 -10.69183  -0.97472  -0.81319  -0.55437
  Beta  occ. eigenvalues --   -0.37037  -0.35819  -0.35769
  Beta virt. eigenvalues --   -0.13225  -0.09909   0.00605   0.04920   0.06709
  Beta virt. eigenvalues --    0.07193   0.15548   0.15696   0.20185   0.22995
  Beta virt. eigenvalues --    0.25985   0.32059   0.41513   0.43031   0.54410

 Mulliken charges and spin densities:
               1          2
     1  C   -0.165071  -0.000000
     2  O   -0.203621  -0.000000
     3  H    0.184346   0.000000
     4  H    0.184346   0.000000
 Sum of Mulliken charges =  -0.00000  -0.00000

 Dipole moment (field-independent basis, Debye):
    X=             -4.8795    Y=             -0.0000    Z=             -0.0003  Tot=              4.8795
 Quadrupole moment (field-independent basis, Debye-Ang):
   XX=             -7.9922   YY=            -12.4700   ZZ=            -12.5510
   XY=             -0.0000   XZ=             -0.0001   YZ=              0.0000

 Normal termination of Gaussian 16 at Mon Apr 21 18:49:00 2025.
