 Gaussian 16, Revision A.03,
 Gaussian 16:  ES64L-G16RevA.03 25-Dec-2016

 --------------------------------------------
 #p opt UM062X/6-311+G** nosymm int=superfine
 --------------------------------------------

 -------------------
 Title Card Required
 -------------------
 Symbolic Z-matrix:
 Charge =  0 Multiplicity = 1

 SCF Done:  E(UM062X) =  -76.9009312750     A.U. after   14 cycles
 SCF Done:  E(UM062X) =  -76.9020444757     A.U. after   13 cycles
 SCF Done:  E(UM062X) =  -76.9032741742     A.U. after   16 cycles
 SCF Done:  E(UM062X) =  -76.9034658564     A.U. after   15 cycles
 SCF Done:  E(UM062X) =  -76.9035359391     A.U. after   15 cycles
 SCF Done:  E(UM062X) =  -76.9035482148     A.U. after   11 cycles
 SCF Done:  E(UM062X) =  -76.9035581816     A.U. after   13 cycles
 SCF Done:  E(UM062X) =  -76.9035610018     A.U. after   12 cycles
 SCF Done:  E(UM062X) =  -76.9035610626     A.U. after   16 cycles
 Optimization completed.
    -- Stationary point found.

                          Input orientation:
 ---------------------------------------------------------------------
 Center     Atomic      Atomic             Coordinates (Angstroms)
 Number     Number       Type             X           Y           Z
 ---------------------------------------------------------------------
      1          6           0       -1.582625    0.000000    0.000000
      2          6           0        1.582625    0.000000    0.000000
      3          1           0       -1.454597   -0.648908    0.900148
      4          1           0        1.454633    0.650242   -0.899190
 ---------------------------------------------------------------------

 Alpha  occ. eigenvalues --  -10.67385 -10.67383  -0.73022  -0.71744  -0.39033
 Alpha  occ. eigenvalues --   -0.38484  -0.25363
 Alpha virt. eigenvalues --   -0.10562  -0.10245  -0.08816   0.03400   0.04873
 Alpha virt. eigenvalues --    0.07285   0.07449   0.09490   0.09969   0.10824
 Alpha virt. eigenvalues --    0.14403   0.17807   0.20129   0.44171   0.45219

  Beta  occ. eigenvalues --  -10.67385 -10.67383  -0.73022  -0.71744  -0.39033
  Beta  occ. eigenvalues --   -0.38484  -0.25363
  Beta virt. eigenvalues --   -0.10562  -0.10245  -0.08816   0.03400   0.04873
  Beta virt. eigenvalues --    0.07285   0.07449   0.09490   0.09969   0.10824
  Beta virt. eigenvalues --    0.14403   0.17807   0.20129   0.44171   0.45219

 Mulliken charges and spin densities:
               1          2
     1  C   -0.147229   0.000000
     2  C   -0.147235  -0.000000
     3  H    0.147232  -0.000000
     4  H    0.147232   0.000000
 Sum of Mulliken charges =  -0.00000   0.00000

 Dipole moment (field-independent basis, Debye):
    X=              0.0000    Y=              0.0020    Z=              0.0014  Tot=              0.0024
 Quadrupole moment (field-independent basis, Debye-Ang):
   XX=            -16.9613   YY=            -12.7963   ZZ=            -13.6388
   XY=              3.1215   XZ=             -4.3231   YZ=              1.2707

 Normal termination of Gaussian 16 at Tue Dec  3 23:12:00 2024.
