 Gaussian 16, Revision A.03,
 Gaussian 16:  ES64L-G16RevA.03 25-Dec-2016

 --------------------------------------------
 #p opt UM062X/6-311+G** nosymm int=superfine
 --------------------------------------------

 -------------------
 Title Card Required
 -------------------
 Symbolic Z-matrix:
 Charge =  1 Multiplicity = 2

 SCF Done:  E(UM062X) =  -1615.45374682     A.U. after   28 cycles
 SCF Done:  E(UM062X) =  -1615.52595561     A.U. after   25 cycles
 SCF Done:  E(UM062X) =  -1615.57508162     A.U. after   30 cycles
 SCF Done:  E(UM062X) =  -1615.57975273     A.U. after   21 cycles
 SCF Done:  E(UM062X) =  -1615.58122455     A.U. after   20 cycles
 SCF Done:  E(UM062X) =  -1615.57952876     A.U. after   24 cycles
 SCF Done:  E(UM062X) =  -1615.58118818     A.U. after   24 cycles
 SCF Done:  E(UM062X) =  -1615.58206272     A.U. after   18 cycles
 SCF Done:  E(UM062X) =  -1615.46511104     A.U. after   28 cycles
 SCF Done:  E(UM062X) =  -1615.58114069     A.U. after   26 cycles
 SCF Done:  E(UM062X) =  -1615.58237778     A.U. after   21 cycles
 SCF Done:  E(UM062X) =  -1615.58239775     A.U. after   20 cycles
 SCF Done:  E(UM062X) =  -1615.58243745     A.U. after   19 cycles
 SCF Done:  E(UM062X) =  -1615.58244682     A.U. after   17 cycles
 SCF Done:  E(UM062X) =  -1615.58244848     A.U. after   19 cycles
 SCF Done:  E(UM062X) =  -1615.58244886     A.U. after   17 cycles
 SCF Done:  E(UM062X) =  -1615.58244926     A.U. after   17 cycles
 SCF Done:  E(UM062X) =  -1615.58244944     A.U. after   17 cycles
 SCF Done:  E(UM062X) =  -1615.58244956     A.U. after   15 cycles
 SCF Done:  E(UM062X) =  -1615.58244966     A.U. after   14 cycles
 Optimization completed.
    -- Stationary point found.

                          Input orientation:
 ---------------------------------------------------------------------
 Center     Atomic      Atomic             Coordinates (Angstroms)
 Number     Number       Type             X           Y           Z
 ---------------------------------------------------------------------
      1          6           0       -1.583588    0.000000    0.000000
      2          6           0        1.583588   -0.000000    0.000000
      3          6           0        0.000038   -2.070340   -0.002849
      4          6           0        0.000025   -3.468126   -0.004770
      5          6           0       -1.133092   -4.295790    0.201721
      6          6           0       -1.307635   -1.470279    0.175365
      7          6           0        0.664090   -5.689120   -0.131988
      8          1           0        1.293886   -6.558690   -0.254186
      9          6           0       -1.630690    0.771998    1.215522
     10          6           0       -0.664080   -5.689450    0.116425
     11          1           0       -1.293881   -6.559339    0.236298
     12          6           0        1.133116   -4.295239   -0.213507
     13          6           0        1.307689   -1.469796   -0.179453
     14          6           0        1.765037    2.199701   -1.319041
     15          6           0       -1.703940    0.399512   -1.377211
     16          6           0       -1.849444    2.783514    2.600987
     17          1           0       -1.968700    3.859286    2.658103
     18          6           0       -2.342997   -3.699537    0.431393
     19          1           0       -3.247257   -4.270436    0.607436
     20          6           0       -1.701495    1.742951   -1.881099
     21          6           0        2.401604   -2.280941   -0.409774
     22          1           0        3.367938   -1.802866   -0.535190
     23          6           0        1.703915    0.395664    1.378337
     24          6           0        1.701049    1.737663    1.886061
     25          6           0        2.343058   -3.698368   -0.441426
     26          1           0        3.247335   -4.268800   -0.618887
     27          6           0       -1.765465    2.195919    1.325305
     28          6           0       -1.506292    0.057737    2.443619
     29          1           0       -1.356577   -1.010709    2.417434
     30          6           0        1.784613   -0.646179    2.356627
     31          1           0        1.817621   -1.675178    2.032708
     32          6           0       -1.779434    2.045746    3.764318
     33          1           0       -1.857488    2.534217    4.728005
     34          6           0       -2.401531   -2.282010    0.403596
     35          1           0       -3.367848   -1.804270    0.530409
     36          6           0       -1.735544    1.956889   -3.273968
     37          1           0       -1.714979    2.980304   -3.630172
     38          6           0        1.630803    0.775431   -1.213348
     39          6           0       -1.753913    3.136385    0.236390
     40          1           0       -1.783557    4.173914    0.554789
     41          6           0       -1.814206    0.925731   -4.181460
     42          1           0       -1.857975    1.133251   -5.243758
     43          6           0       -1.694214    2.947166   -1.096848
     44          1           0       -1.672864    3.855499   -1.691505
     45          6           0        1.735151    1.947661    3.279519
     46          1           0        1.714219    2.970056    3.638626
     47          6           0       -1.585233    0.665795    3.676205
     48          1           0       -1.493477    0.065867    4.573478
     49          6           0       -1.784229   -0.639590   -2.358424
     50          1           0       -1.816900   -1.669512   -2.037415
     51          6           0        1.814212    0.913970    4.184094
     52          1           0        1.857995    1.118507    5.246971
     53          6           0        1.849325    2.790933   -2.593009
     54          1           0        1.968089    3.866918   -2.647041
     55          6           0        1.855871   -0.400996    3.706079
     56          1           0        1.939931   -1.232346    4.395337
     57          6           0        1.780311    2.056398   -3.758450
     58          1           0        1.858711    2.547600   -4.720718
     59          6           0        1.752668    3.137101   -0.227465
     60          1           0        1.781665    4.175535   -0.542960
     61          6           0       -1.855480   -0.390601   -3.707178
     62          1           0       -1.939211   -1.220018   -4.398798
     63          6           0        1.693076    2.944106    1.105222
     64          1           0        1.671160    3.850741    1.702446
     65          6           0        1.507225    0.064577   -2.443473
     66          1           0        1.357874   -1.003990   -2.420377
     67          6           0        1.586670    0.676127   -3.674314
     68          1           0        1.495807    0.078660   -4.573314
 ---------------------------------------------------------------------

 Alpha  occ. eigenvalues --  -10.70691 -10.70689 -10.68644 -10.68643 -10.68600
 Alpha  occ. eigenvalues --  -10.68599 -10.68252 -10.68250 -10.68238 -10.68236
 Alpha  occ. eigenvalues --  -10.67374 -10.67366 -10.67198 -10.66699 -10.66697
 Alpha  occ. eigenvalues --  -10.66595 -10.66593 -10.65941 -10.65940 -10.65854
 Alpha  occ. eigenvalues --  -10.65853 -10.65732 -10.65732 -10.65719 -10.65718
 Alpha  occ. eigenvalues --  -10.65612 -10.65611 -10.65602 -10.65601 -10.65471
 Alpha  occ. eigenvalues --  -10.65471 -10.65424 -10.65423 -10.65334 -10.65333
 Alpha  occ. eigenvalues --  -10.65288 -10.65288 -10.64872 -10.64872 -10.63798
 Alpha  occ. eigenvalues --  -10.63707 -10.63698  -1.11879  -1.10329  -1.10028
 Alpha  occ. eigenvalues --   -1.08301  -1.07807  -1.05290  -1.04968  -1.02518
 Alpha  occ. eigenvalues --   -1.02137  -1.01011  -1.00239  -0.97942  -0.97649
 Alpha  occ. eigenvalues --   -0.96730  -0.96300  -0.94890  -0.93543  -0.93474
 Alpha  occ. eigenvalues --   -0.92857  -0.91736  -0.87364  -0.87184  -0.84987
 Alpha  occ. eigenvalues --   -0.84810  -0.83043  -0.81516  -0.80820  -0.79770
 Alpha  occ. eigenvalues --   -0.79678  -0.79536  -0.77357  -0.76322  -0.76171
 Alpha  occ. eigenvalues --   -0.75880  -0.75340  -0.73333  -0.70167  -0.69627
 Alpha  occ. eigenvalues --   -0.68805  -0.68542  -0.67755  -0.67658  -0.66907
 Alpha  occ. eigenvalues --   -0.66889  -0.65735  -0.65357  -0.65226  -0.64697
 Alpha  occ. eigenvalues --   -0.63227  -0.62765  -0.62403  -0.62113  -0.60970
 Alpha  occ. eigenvalues --   -0.60953  -0.60525  -0.60311  -0.60100  -0.60029
 Alpha  occ. eigenvalues --   -0.59544  -0.58817  -0.58787  -0.58109  -0.57675
 Alpha  occ. eigenvalues --   -0.57443  -0.57099  -0.55959  -0.55660  -0.55659
 Alpha  occ. eigenvalues --   -0.54932  -0.54004  -0.53017  -0.52849  -0.52622
 Alpha  occ. eigenvalues --   -0.52409  -0.52359  -0.52121  -0.51031  -0.50947
 Alpha  occ. eigenvalues --   -0.50881  -0.50862  -0.49679  -0.49537  -0.49521
 Alpha  occ. eigenvalues --   -0.48537  -0.48420  -0.47910  -0.45520  -0.44732
 Alpha  occ. eigenvalues --   -0.43945  -0.42784  -0.40550  -0.40419  -0.39273
 Alpha  occ. eigenvalues --   -0.38151  -0.37532  -0.37044  -0.30458
 Alpha virt. eigenvalues --   -0.21189  -0.16044  -0.15513  -0.14345  -0.10705
 Alpha virt. eigenvalues --   -0.09986  -0.08929  -0.08564  -0.08350  -0.07558
 Alpha virt. eigenvalues --   -0.07551  -0.07439  -0.06648  -0.06319  -0.06164

  Beta  occ. eigenvalues --  -10.70535 -10.70534 -10.68690 -10.68690 -10.68642
  Beta  occ. eigenvalues --  -10.68640 -10.68212 -10.68210 -10.68192 -10.68190
  Beta  occ. eigenvalues --  -10.67392 -10.67385 -10.67170 -10.66695 -10.66693
  Beta  occ. eigenvalues --  -10.66587 -10.66586 -10.65902 -10.65900 -10.65819
  Beta  occ. eigenvalues --  -10.65818 -10.65701 -10.65700 -10.65681 -10.65681
  Beta  occ. eigenvalues --  -10.65632 -10.65631 -10.65621 -10.65620 -10.65469
  Beta  occ. eigenvalues --  -10.65469 -10.65439 -10.65438 -10.65352 -10.65351
  Beta  occ. eigenvalues --  -10.65275 -10.65275 -10.64871 -10.64870 -10.63798
  Beta  occ. eigenvalues --  -10.63703 -10.63697  -1.11731  -1.10161  -1.09951
  Beta  occ. eigenvalues --   -1.08194  -1.07716  -1.05125  -1.04826  -1.02405
  Beta  occ. eigenvalues --   -1.02041  -1.00834  -1.00074  -0.97839  -0.97556
  Beta  occ. eigenvalues --   -0.96619  -0.96207  -0.94845  -0.93475  -0.93380
  Beta  occ. eigenvalues --   -0.92791  -0.91653  -0.87065  -0.86829  -0.84922
  Beta  occ. eigenvalues --   -0.84750  -0.82966  -0.81420  -0.80721  -0.79688
  Beta  occ. eigenvalues --   -0.79610  -0.79466  -0.77252  -0.76177  -0.76016
  Beta  occ. eigenvalues --   -0.75720  -0.75301  -0.73216  -0.70051  -0.69483
  Beta  occ. eigenvalues --   -0.68687  -0.68428  -0.67710  -0.67615  -0.66788
  Beta  occ. eigenvalues --   -0.66776  -0.65650  -0.65208  -0.65084  -0.64602
  Beta  occ. eigenvalues --   -0.63048  -0.62715  -0.62323  -0.62043  -0.60824
  Beta  occ. eigenvalues --   -0.60721  -0.60402  -0.60080  -0.60020  -0.59976
  Beta  occ. eigenvalues --   -0.59406  -0.58724  -0.58659  -0.58039  -0.57545
  Beta  occ. eigenvalues --   -0.57160  -0.56797  -0.55701  -0.55616  -0.55610
  Beta  occ. eigenvalues --   -0.54905  -0.53705  -0.52916  -0.52766  -0.52561
  Beta  occ. eigenvalues --   -0.52306  -0.52246  -0.52097  -0.50967  -0.50861
  Beta  occ. eigenvalues --   -0.50797  -0.50419  -0.49472  -0.49389  -0.48877
  Beta  occ. eigenvalues --   -0.48359  -0.47960  -0.47627  -0.44805  -0.44216
  Beta  occ. eigenvalues --   -0.43229  -0.42433  -0.40357  -0.40225  -0.38687
  Beta  occ. eigenvalues --   -0.38048  -0.37218  -0.36985
  Beta virt. eigenvalues --   -0.20829  -0.18197  -0.15897  -0.15493  -0.14406
  Beta virt. eigenvalues --   -0.10365  -0.09576  -0.08551  -0.08530  -0.08057
  Beta virt. eigenvalues --   -0.07611  -0.07567  -0.07239  -0.06635  -0.06260

 Mulliken charges and spin densities:
               1          2
     1  C    0.038272   0.379300
     2  C    0.038871   0.379582
     3  C    0.336574   0.018532
     4  C    0.213276  -0.013944
     5  C    0.130634   0.006572
     6  C   -0.019359  -0.040051
     7  C   -0.311271   0.000654
     8  H    0.176031  -0.000008
     9  C    0.065402  -0.053610
    10  C   -0.311134   0.000654
    11  H    0.176031  -0.000008
    12  C    0.130790   0.006558
    13  C   -0.019812  -0.040076
    14  C    0.544798   0.026076
    15  C    0.380608  -0.087131
    16  C   -0.419392  -0.034298
    17  H    0.165419   0.001159
    18  C   -0.491941   0.002090
    19  H    0.175612   0.000136
    20  C    0.254759   0.108881
    21  C   -0.092124   0.023607
    22  H    0.176371  -0.000387
    23  C    0.380539  -0.087216
    24  C    0.254272   0.108909
    25  C   -0.491738   0.002089
    26  H    0.175610   0.000136
    27  C    0.545459   0.026085
    28  C   -0.018714   0.082759
    29  H    0.210618  -0.004514
    30  C   -0.257978   0.039546
    31  H    0.224709  -0.003308
    32  C   -0.403568   0.060043
    33  H    0.182504  -0.003421
    34  C   -0.092436   0.023566
    35  H    0.176348  -0.000386
    36  C   -0.022149  -0.063138
    37  H    0.159773   0.001508
    38  C    0.065914  -0.053555
    39  C   -0.329658   0.053521
    40  H    0.164260  -0.002747
    41  C   -0.221127   0.072700
    42  H    0.180996  -0.003791
    43  C   -0.358536   0.011156
    44  H    0.160508  -0.000473
    45  C   -0.022467  -0.063136
    46  H    0.159775   0.001509
    47  C   -0.004909  -0.041271
    48  H    0.167955   0.000154
    49  C   -0.257885   0.039488
    50  H    0.224714  -0.003308
    51  C   -0.221240   0.072705
    52  H    0.181007  -0.003795
    53  C   -0.419469  -0.034302
    54  H    0.165406   0.001160
    55  C   -0.559677  -0.035535
    56  H    0.176228   0.001427
    57  C   -0.403750   0.060089
    58  H    0.182488  -0.003420
    59  C   -0.328893   0.053595
    60  H    0.164224  -0.002752
    61  C   -0.560233  -0.035500
    62  H    0.176225   0.001427
    63  C   -0.357996   0.011139
    64  H    0.160459  -0.000474
    65  C   -0.019054   0.082760
    66  H    0.210608  -0.004514
    67  C   -0.005497  -0.041362
    68  H    0.167961   0.000155
 Sum of Mulliken charges =   1.00000   1.00000

 Dipole moment (field-independent basis, Debye):
    X=             -0.0009    Y=              2.5052    Z=              0.0034  Tot=              2.5052
 Quadrupole moment (field-independent basis, Debye-Ang):
   XX=           -222.4053   YY=           -174.8616   ZZ=           -176.2446
   XY=             -0.0107   XZ=              0.0550   YZ=              0.0008

 Normal termination of Gaussian 16 at Fri Nov  8 03:05:19 2024.
