 Gaussian 16, Revision A.03,
 Gaussian 16:  ES64L-G16RevA.03 25-Dec-2016

 --------------------------------------------
 #p opt UM062X/6-311+G** nosymm int=superfine
 --------------------------------------------

 -------------------
 Title Card Required
 -------------------
 Symbolic Z-matrix:
 Charge =  0 Multiplicity = 1

 SCF Done:  E(UM062X) =  -111.659963567     A.U. after   16 cycles
 SCF Done:  E(UM062X) =  -111.676584426     A.U. after   16 cycles
 SCF Done:  E(UM062X) =  -111.685391796     A.U. after   15 cycles
 SCF Done:  E(UM062X) =  -111.686515900     A.U. after   12 cycles
 SCF Done:  E(UM062X) =  -111.687770124     A.U. after   13 cycles
 SCF Done:  E(UM062X) =  -111.688269746     A.U. after   13 cycles
 SCF Done:  E(UM062X) =  -111.688511284     A.U. after   12 cycles
 SCF Done:  E(UM062X) =  -111.688554719     A.U. after   11 cycles
 SCF Done:  E(UM062X) =  -111.688588250     A.U. after   12 cycles
 SCF Done:  E(UM062X) =  -111.688593565     A.U. after   10 cycles
 SCF Done:  E(UM062X) =  -111.688593623     A.U. after    8 cycles
 Optimization completed.
    -- Stationary point found.

                          Input orientation:
 ---------------------------------------------------------------------
 Center     Atomic      Atomic             Coordinates (Angstroms)
 Number     Number       Type             X           Y           Z
 ---------------------------------------------------------------------
      1          7           0       -1.386540    0.000000    0.000000
      2          7           0        1.386540    0.000000    0.000000
      3          1           0       -1.319894   -0.819304   -0.615717
      4          1           0        1.319975    0.415015   -0.937093
      5          1           0       -1.319670   -0.416045    0.936612
      6          1           0        1.319508    0.819953    0.614801
 ---------------------------------------------------------------------

 Alpha  occ. eigenvalues --  -14.80383 -14.80381  -0.95410  -0.93784  -0.55184
 Alpha  occ. eigenvalues --   -0.54127  -0.41002  -0.39814  -0.31736
 Alpha virt. eigenvalues --   -0.14150   0.04603   0.06882   0.08737   0.11455
 Alpha virt. eigenvalues --    0.13052   0.13903   0.15709   0.15968   0.19506
 Alpha virt. eigenvalues --    0.20651   0.26736   0.27859   0.51476   0.51515

  Beta  occ. eigenvalues --  -14.80383 -14.80381  -0.95410  -0.93784  -0.55184
  Beta  occ. eigenvalues --   -0.54127  -0.41002  -0.39814  -0.31736
  Beta virt. eigenvalues --   -0.14150   0.04603   0.06882   0.08737   0.11455
  Beta virt. eigenvalues --    0.13052   0.13903   0.15709   0.15968   0.19506
  Beta virt. eigenvalues --    0.20651   0.26736   0.27859   0.51476   0.51515

 Mulliken charges and spin densities:
               1          2
     1  N   -0.505950  -0.000000
     2  N   -0.505928   0.000000
     3  H    0.252950   0.000000
     4  H    0.252948  -0.000000
     5  H    0.252989   0.000000
     6  H    0.252992  -0.000000
 Sum of Mulliken charges =  -0.00000  -0.00000

 Dipole moment (field-independent basis, Debye):
    X=             -0.0001    Y=             -0.0006    Z=             -0.0021  Tot=              0.0022
 Quadrupole moment (field-independent basis, Debye-Ang):
   XX=            -15.6563   YY=            -14.1673   ZZ=            -11.4189
   XY=              5.9482   XZ=             -1.5490   YZ=              0.7676

 Normal termination of Gaussian 16 at Thu May 15 14:42:24 2025.
