 Gaussian 16, Revision A.03,
 Gaussian 16:  ES64L-G16RevA.03 25-Dec-2016

 ---------------------------------------
 #p UM062X/6-311+G** force int=superfine
 ---------------------------------------

 -------------------
 Title Card Required
 -------------------
 Symbolic Z-matrix:
 Charge =  1 Multiplicity = 2

                         Standard orientation:
 ---------------------------------------------------------------------
 Center     Atomic      Atomic             Coordinates (Angstroms)
 Number     Number       Type             X           Y           Z
 ---------------------------------------------------------------------
      1          7           0        0.000000    0.000000    1.255391
      2          7           0        0.000000    0.000000   -1.255391
 ---------------------------------------------------------------------

 SCF Done:  E(UM062X) =  -108.447439403     A.U. after   11 cycles

 Unable to determine electronic state:  partially filled degenerate orbitals.
 Alpha  occ. eigenvalues --  -15.35382 -15.35373  -1.24610  -1.20792  -0.71882
 Alpha  occ. eigenvalues --   -0.70750  -0.68140
 Alpha virt. eigenvalues --   -0.58025  -0.55357  -0.51586  -0.12990  -0.08829
 Alpha virt. eigenvalues --   -0.08659  -0.08607  -0.03246  -0.03072  -0.02818
 Alpha virt. eigenvalues --    0.04896   0.43572   0.46015   0.47391   0.53738

  Beta  occ. eigenvalues --  -15.34906 -15.34899  -1.20833  -1.17237  -0.70077
  Beta  occ. eigenvalues --   -0.66407
  Beta virt. eigenvalues --   -0.53534  -0.49704  -0.47841  -0.45630  -0.14283
  Beta virt. eigenvalues --   -0.09164  -0.09132  -0.08828  -0.03845  -0.03087
  Beta virt. eigenvalues --   -0.03072   0.03443   0.44062   0.47510   0.47573

 Mulliken charges and spin densities:
               1          2
     1  N    0.500000   0.500000
     2  N    0.500000   0.500000
 Sum of Mulliken charges =   1.00000   1.00000

 Dipole moment (field-independent basis, Debye):
    X=              0.0000    Y=              0.0000    Z=              0.0000  Tot=              0.0000
 Quadrupole moment (field-independent basis, Debye-Ang):
   XX=            -10.0038   YY=             -8.5492   ZZ=             -0.7525
   XY=              0.0000   XZ=             -0.0000   YZ=             -0.0000

 Optimization completed.
    -- Stationary point found.
 Normal termination of Gaussian 16 at Wed Feb 26 13:54:13 2025.
