 Gaussian 16, Revision A.03,
 Gaussian 16:  ES64L-G16RevA.03 25-Dec-2016

 --------------------------------------------
 #p opt UM062X/6-311+G** nosymm int=superfine
 --------------------------------------------

 -------------------
 Title Card Required
 -------------------
 Symbolic Z-matrix:
 Charge =  0 Multiplicity = 1

 SCF Done:  E(UM062X) =  -381.010670111     A.U. after   14 cycles
 SCF Done:  E(UM062X) =  -381.012779975     A.U. after   12 cycles
 SCF Done:  E(UM062X) =  -381.013092833     A.U. after   13 cycles
 SCF Done:  E(UM062X) =  -381.012362973     A.U. after   15 cycles
 SCF Done:  E(UM062X) =  -381.013143860     A.U. after   15 cycles
 SCF Done:  E(UM062X) =  -381.013004399     A.U. after   15 cycles
 SCF Done:  E(UM062X) =  -381.013175533     A.U. after   15 cycles
 SCF Done:  E(UM062X) =  -381.013176985     A.U. after   10 cycles
 SCF Done:  E(UM062X) =  -381.013177891     A.U. after   13 cycles
 Optimization completed.
    -- Stationary point found.

                          Input orientation:
 ---------------------------------------------------------------------
 Center     Atomic      Atomic             Coordinates (Angstroms)
 Number     Number       Type             X           Y           Z
 ---------------------------------------------------------------------
      1          6           0       -1.305452    0.000000    0.000000
      2         15           0        1.305452    0.000000    0.000000
      3          1           0       -1.846222   -0.942966    0.005124
      4          1           0        1.207011   -1.417788    0.006977
      5          1           0       -1.840278    0.945703   -0.004225
 ---------------------------------------------------------------------

 Alpha  occ. eigenvalues --  -78.06350 -10.63657  -6.88249  -4.99837  -4.99499
 Alpha  occ. eigenvalues --   -4.99488  -0.76814  -0.66377  -0.52220  -0.39047
 Alpha  occ. eigenvalues --   -0.33677  -0.25337
 Alpha virt. eigenvalues --   -0.11096  -0.06082   0.02162   0.04299   0.04614
 Alpha virt. eigenvalues --    0.05808   0.06573   0.07119   0.09956   0.10943
 Alpha virt. eigenvalues --    0.14060   0.18596   0.20041   0.30349   0.32068

  Beta  occ. eigenvalues --  -78.06350 -10.63657  -6.88249  -4.99837  -4.99499
  Beta  occ. eigenvalues --   -4.99488  -0.76814  -0.66377  -0.52220  -0.39047
  Beta  occ. eigenvalues --   -0.33677  -0.25337
  Beta virt. eigenvalues --   -0.11096  -0.06082   0.02162   0.04299   0.04614
  Beta virt. eigenvalues --    0.05808   0.06573   0.07119   0.09956   0.10943
  Beta virt. eigenvalues --    0.14060   0.18596   0.20041   0.30349   0.32068

 Mulliken charges and spin densities:
               1          2
     1  C   -0.436789   0.000000
     2  P    0.083109  -0.000000
     3  H    0.184547  -0.000000
     4  H   -0.015997   0.000000
     5  H    0.185130  -0.000000
 Sum of Mulliken charges =   0.00000   0.00000

 Dipole moment (field-independent basis, Debye):
    X=             -1.2102    Y=             -0.6030    Z=              0.0039  Tot=              1.3521
 Quadrupole moment (field-independent basis, Debye-Ang):
   XX=            -17.2569   YY=            -20.4510   ZZ=            -24.9145
   XY=             -1.2541   XZ=              0.0065   YZ=             -0.0222

 Normal termination of Gaussian 16 at Mon Apr 21 19:14:46 2025.
