 Gaussian 16, Revision A.03,
 Gaussian 16:  ES64L-G16RevA.03 25-Dec-2016

 --------------------------------------------
 #p opt UM062X/6-311+G** nosymm int=superfine
 --------------------------------------------

 -------------------
 Title Card Required
 -------------------
 Symbolic Z-matrix:
 Charge =  0 Multiplicity = 3

 SCF Done:  E(UM062X) =  -50.5128561782     A.U. after   13 cycles
 SCF Done:  E(UM062X) =  -50.5138498699     A.U. after    9 cycles
 SCF Done:  E(UM062X) =  -50.5138578037     A.U. after    8 cycles
 Optimization completed.
    -- Stationary point found.

                          Input orientation:
 ---------------------------------------------------------------------
 Center     Atomic      Atomic             Coordinates (Angstroms)
 Number     Number       Type             X           Y           Z
 ---------------------------------------------------------------------
      1          5           0       -1.503410    0.000000    0.000000
      2          5           0        1.503410    0.000000    0.000000
      3          1           0       -2.710292   -0.000082   -0.000000
      4          1           0        2.710292    0.000082    0.000000
 ---------------------------------------------------------------------

 Alpha  occ. eigenvalues --   -7.13663  -7.13661  -0.56628  -0.55940  -0.35679
 Alpha  occ. eigenvalues --   -0.26489  -0.18998
 Alpha virt. eigenvalues --   -0.07884  -0.06832  -0.04165   0.02632   0.02724
 Alpha virt. eigenvalues --    0.06013   0.07203   0.07216   0.08116   0.08205
 Alpha virt. eigenvalues --    0.12171   0.19385   0.23047   0.36167   0.39151

  Beta  occ. eigenvalues --   -7.12722  -7.12720  -0.53163  -0.52756  -0.27187
  Beta virt. eigenvalues --   -0.06232  -0.04986  -0.04482  -0.01837  -0.01442
  Beta virt. eigenvalues --    0.01632   0.02738   0.06918   0.06928   0.07406
  Beta virt. eigenvalues --    0.08612   0.09787   0.09965   0.20708   0.24305

 Mulliken charges and spin densities:
               1          2
     1  B   -0.066252   0.912870
     2  B   -0.066252   0.912870
     3  H    0.066252   0.087130
     4  H    0.066252   0.087130
 Sum of Mulliken charges =  -0.00000   2.00000

 Dipole moment (field-independent basis, Debye):
    X=              0.0000    Y=             -0.0000    Z=              0.0000  Tot=              0.0000
 Quadrupole moment (field-independent basis, Debye-Ang):
   XX=            -10.5780   YY=            -13.4740   ZZ=            -17.5294
   XY=              0.0001   XZ=              0.0000   YZ=              0.0039

 1\1\GINC-NODE06\FOpt\UM062X\6-311+G(d,p)\B2H2(3)\SZHAO\21-Apr-2025\0\\
 #p opt UM062X/6-311+G** nosymm int=superfine\\Title Card Required\\0,3
 \B,-1.50341047,0.,0.\B,1.50341047,0.,0.\H,-2.7102915353,-0.0000822857,
 -0.0000000797\H,2.7102915854,0.0000822841,0.0000000797\\Version=ES64L-
 G16RevA.03\HF=-50.5138578\S2=2.01112\S2-1=0.\S2A=2.000011\RMSD=9.246e-
 09\RMSF=1.113e-06\Dipole=0.,0.,0.\Quadrupole=2.4404265,0.287333,-2.727
 7595,0.0000545,0.,0.0029247\PG=C*V [C*(H1B1B1H1)]\\@

 Normal termination of Gaussian 16 at Mon Apr 21 17:28:36 2025.
