 Gaussian 16, Revision A.03,
 Gaussian 16:  ES64L-G16RevA.03 25-Dec-2016

 --------------------------------------------
 #p opt UM062X/6-311+G** nosymm int=superfine
 --------------------------------------------

 -------------------
 Title Card Required
 -------------------
 Symbolic Z-matrix:
 Charge =  0 Multiplicity = 1

 SCF Done:  E(UM062X) =  -379.552528532     A.U. after   14 cycles
 SCF Done:  E(UM062X) =  -379.553974194     A.U. after   10 cycles
 SCF Done:  E(UM062X) =  -379.553980608     A.U. after   12 cycles
 Optimization completed.
    -- Stationary point found.

                          Input orientation:
 ---------------------------------------------------------------------
 Center     Atomic      Atomic             Coordinates (Angstroms)
 Number     Number       Type             X           Y           Z
 ---------------------------------------------------------------------
      1          6           0       -2.090377    0.000000    0.000000
      2         15           0        2.090377    0.000000    0.000000
      3          1           0       -3.213529   -0.000000    0.000000
 ---------------------------------------------------------------------

 Alpha  occ. eigenvalues --  -78.06431 -10.72273  -6.88372  -5.00297  -4.99345
 Alpha  occ. eigenvalues --   -4.99345  -0.77051  -0.59969  -0.42671  -0.23087
 Alpha  occ. eigenvalues --   -0.23087
 Alpha virt. eigenvalues --   -0.16012  -0.16012  -0.11489   0.01018   0.04253
 Alpha virt. eigenvalues --    0.05951   0.05951   0.07603   0.08267   0.08267
 Alpha virt. eigenvalues --    0.12684   0.15612   0.32907   0.33766   0.33766

  Beta  occ. eigenvalues --  -78.06431 -10.72273  -6.88372  -5.00297  -4.99345
  Beta  occ. eigenvalues --   -4.99345  -0.77051  -0.59969  -0.42671  -0.23087
  Beta  occ. eigenvalues --   -0.23087
  Beta virt. eigenvalues --   -0.16012  -0.16012  -0.11489   0.01018   0.04253
  Beta virt. eigenvalues --    0.05951   0.05951   0.07603   0.08267   0.08267
  Beta virt. eigenvalues --    0.12684   0.15612   0.32907   0.33766   0.33766

 Mulliken charges and spin densities:
               1          2
     1  C   -0.063275   0.000000
     2  P   -0.095321  -0.000000
     3  H    0.158595  -0.000000
 Sum of Mulliken charges =  -0.00000   0.00000

 Dipole moment (field-independent basis, Debye):
    X=             -3.8596    Y=             -0.0000    Z=             -0.0000  Tot=              3.8596
 Quadrupole moment (field-independent basis, Debye-Ang):
   XX=             -9.7951   YY=            -24.1518   ZZ=            -24.1518
   XY=              0.0000   XZ=             -0.0000   YZ=             -0.0000

 Normal termination of Gaussian 16 at Mon Apr 21 19:25:30 2025.
