 Gaussian 16, Revision A.03,
 Gaussian 16:  ES64L-G16RevA.03 25-Dec-2016

 --------------------------------------------
 #p opt UM062X/6-311+G** nosymm int=superfine
 --------------------------------------------

 -------------------
 Title Card Required
 -------------------
 Symbolic Z-matrix:
 Charge =  0 Multiplicity = 1

 SCF Done:  E(UM062X) =  -114.215105680     A.U. after   13 cycles
 SCF Done:  E(UM062X) =  -114.217238064     A.U. after   11 cycles
 SCF Done:  E(UM062X) =  -114.218307288     A.U. after   11 cycles
 SCF Done:  E(UM062X) =  -114.218343549     A.U. after   10 cycles
 Optimization completed.
    -- Stationary point found.

                          Input orientation:
 ---------------------------------------------------------------------
 Center     Atomic      Atomic             Coordinates (Angstroms)
 Number     Number       Type             X           Y           Z
 ---------------------------------------------------------------------
      1          6           0       -0.998311    0.000000    0.000000
      2          8           0        0.998311    0.000000    0.000000
      3          1           0       -1.447920   -0.984344   -0.000096
      4          1           0       -1.447920    0.984343   -0.000095
 ---------------------------------------------------------------------

 Alpha  occ. eigenvalues --  -19.67297 -10.71931  -0.98815  -0.81433  -0.59225
 Alpha  occ. eigenvalues --   -0.40733  -0.35822  -0.33951
 Alpha virt. eigenvalues --   -0.14255  -0.04880   0.01371   0.04147   0.06608
 Alpha virt. eigenvalues --    0.07013   0.12959   0.18151   0.21294   0.23834
 Alpha virt. eigenvalues --    0.26494   0.33106   0.39439   0.44993   0.53306

  Beta  occ. eigenvalues --  -19.67297 -10.71931  -0.98815  -0.81433  -0.59225
  Beta  occ. eigenvalues --   -0.40733  -0.35822  -0.33951
  Beta virt. eigenvalues --   -0.14255  -0.04880   0.01371   0.04147   0.06608
  Beta virt. eigenvalues --    0.07013   0.12959   0.18151   0.21294   0.23834
  Beta virt. eigenvalues --    0.26494   0.33106   0.39439   0.44993   0.53306

 Mulliken charges and spin densities:
               1          2
     1  C   -0.115008  -0.000001
     2  O   -0.312482   0.000000
     3  H    0.213745   0.000000
     4  H    0.213745   0.000000
 Sum of Mulliken charges =  -0.00000   0.00000

 Dipole moment (field-independent basis, Debye):
    X=             -4.7163    Y=             -0.0000    Z=             -0.0002  Tot=              4.7163
 Quadrupole moment (field-independent basis, Debye-Ang):
   XX=            -10.2059   YY=            -11.4860   ZZ=            -13.1976
   XY=             -0.0000   XZ=              0.0001   YZ=              0.0000

 Normal termination of Gaussian 16 at Mon Apr 21 18:43:30 2025.
