 Gaussian 16, Revision A.03,
 Gaussian 16:  ES64L-G16RevA.03 25-Dec-2016

 ---------------------------------------------------
 #p UM062X/6-311+G** force int=superfine pop=saveNBO
 ---------------------------------------------------

 -------------------
 Title Card Required
 -------------------
 Symbolic Z-matrix:
 Charge =  0 Multiplicity = 1

                         Standard orientation:
 ---------------------------------------------------------------------
 Center     Atomic      Atomic             Coordinates (Angstroms)
 Number     Number       Type             X           Y           Z
 ---------------------------------------------------------------------
      1         15           0        0.000000    0.000000    1.438495
      2         15           0        0.000000    0.000000   -1.438495
 ---------------------------------------------------------------------

 SCF Done:  E(UM062X) =  -682.446830010     A.U. after    9 cycles

 The electronic state is 1-SGG.
 Alpha  occ. eigenvalues --  -78.11565 -78.11565  -6.93100  -6.93097  -5.04428
 Alpha  occ. eigenvalues --   -5.04428  -5.04428  -5.04428  -5.04355  -5.04353
 Alpha  occ. eigenvalues --   -0.66604  -0.60853  -0.31339  -0.27497  -0.27497
 Alpha virt. eigenvalues --   -0.14613  -0.14613  -0.08379   0.02456   0.03524
 Alpha virt. eigenvalues --    0.04568   0.04568   0.06060   0.06633   0.06633
 Alpha virt. eigenvalues --    0.11722   0.28949   0.30258   0.30258   0.33146

  Beta  occ. eigenvalues --  -78.11565 -78.11565  -6.93100  -6.93097  -5.04428
  Beta  occ. eigenvalues --   -5.04428  -5.04428  -5.04428  -5.04355  -5.04353
  Beta  occ. eigenvalues --   -0.66604  -0.60853  -0.31339  -0.27497  -0.27497
  Beta virt. eigenvalues --   -0.14613  -0.14613  -0.08379   0.02456   0.03524
  Beta virt. eigenvalues --    0.04568   0.04568   0.06060   0.06633   0.06633
  Beta virt. eigenvalues --    0.11722   0.28949   0.30258   0.30258   0.33146

 Mulliken charges and spin densities:
               1          2
     1  P    0.000000   0.000000
     2  P    0.000000   0.000000
 Sum of Mulliken charges =   0.00000   0.00000

 Dipole moment (field-independent basis, Debye):
    X=              0.0000    Y=             -0.0000    Z=              0.0000  Tot=              0.0000
 Quadrupole moment (field-independent basis, Debye-Ang):
   XX=            -29.0045   YY=            -29.0045   ZZ=            -24.9816
   XY=              0.0000   XZ=             -0.0000   YZ=              0.0000

 Summary of Natural Population Analysis:

                                       Natural Population
                Natural  -----------------------------------------------
    Atom  No    Charge         Core      Valence    Rydberg      Total
 -----------------------------------------------------------------------
      P    1    0.00000      4.99998     2.49817    0.00185     7.50000
      P    2    0.00000      4.99998     2.49817    0.00185     7.50000
 =======================================================================
   * Total *    0.00000      9.99995     4.99635    0.00370    15.00000

 Normal termination of Gaussian 16 at Mon Apr 21 21:21:37 2025.
