 Gaussian 16, Revision A.03,
 Gaussian 16:  ES64L-G16RevA.03 25-Dec-2016

 --------------------------------------------
 #p opt UM062X/6-311+G** nosymm int=superfine
 --------------------------------------------

 -------------------
 Title Card Required
 -------------------
 Symbolic Z-matrix:
 Charge =  0 Multiplicity = 1

 SCF Done:  E(UM062X) =  -382.229791596     A.U. after   15 cycles
 SCF Done:  E(UM062X) =  -382.240413488     A.U. after   11 cycles
 SCF Done:  E(UM062X) =  -382.246966698     A.U. after   13 cycles
 SCF Done:  E(UM062X) =  -382.247086265     A.U. after   12 cycles
 SCF Done:  E(UM062X) =  -382.247146028     A.U. after   12 cycles
 SCF Done:  E(UM062X) =  -382.247206913     A.U. after   10 cycles
 SCF Done:  E(UM062X) =  -382.247228721     A.U. after   11 cycles
 SCF Done:  E(UM062X) =  -382.247231451     A.U. after    9 cycles
 SCF Done:  E(UM062X) =  -382.247232129     A.U. after    8 cycles
 SCF Done:  E(UM062X) =  -382.247233407     A.U. after   10 cycles
 SCF Done:  E(UM062X) =  -382.247234177     A.U. after    8 cycles
 SCF Done:  E(UM062X) =  -382.247234458     A.U. after   10 cycles
 Optimization completed.
    -- Stationary point found.

                          Input orientation:
 ---------------------------------------------------------------------
 Center     Atomic      Atomic             Coordinates (Angstroms)
 Number     Number       Type             X           Y           Z
 ---------------------------------------------------------------------
      1          6           0       -2.106264    0.000000    0.000000
      2         15           0        2.106264    0.000000    0.000000
      3          1           0        2.027833   -1.417213    0.023825
      4          1           0       -2.131702    1.054112    0.234525
      5          1           0        2.027482    0.073943    1.415436
      6          1           0       -2.131739   -0.322271   -1.030678
      7          1           0       -2.168042   -0.729914    0.794040
 ---------------------------------------------------------------------

 Alpha  occ. eigenvalues --  -78.03046 -10.59781  -6.85461  -4.96985  -4.96909
 Alpha  occ. eigenvalues --   -4.96727  -0.79131  -0.69372  -0.51322  -0.51282
 Alpha  occ. eigenvalues --   -0.43537  -0.34634  -0.23100
 Alpha virt. eigenvalues --   -0.13469   0.02129   0.03789   0.03977   0.04505
 Alpha virt. eigenvalues --    0.06170   0.06652   0.07234   0.07329   0.11117
 Alpha virt. eigenvalues --    0.16659   0.18050   0.18105   0.22675   0.30494

  Beta  occ. eigenvalues --  -78.03046 -10.59781  -6.85461  -4.96985  -4.96909
  Beta  occ. eigenvalues --   -4.96727  -0.79131  -0.69372  -0.51322  -0.51282
  Beta  occ. eigenvalues --   -0.43537  -0.34634  -0.23100
  Beta virt. eigenvalues --   -0.13469   0.02129   0.03789   0.03977   0.04505
  Beta virt. eigenvalues --    0.06170   0.06652   0.07234   0.07329   0.11117
  Beta virt. eigenvalues --    0.16659   0.18050   0.18105   0.22675   0.30494

 Mulliken charges and spin densities:
               1          2
     1  C   -0.491773  -0.000000
     2  P   -0.049313   0.000000
     3  H   -0.006751  -0.000000
     4  H    0.185647   0.000000
     5  H   -0.006751  -0.000000
     6  H    0.185618   0.000000
     7  H    0.183323   0.000000
 Sum of Mulliken charges =  -0.00000   0.00000

 Dipole moment (field-independent basis, Debye):
    X=             -1.7241    Y=             -0.5780    Z=              0.6193  Tot=              1.9210
 Quadrupole moment (field-independent basis, Debye-Ang):
   XX=            -22.4440   YY=            -22.4362   ZZ=            -22.5336
   XY=             -1.3216   XZ=              1.4154   YZ=              0.7044

 Normal termination of Gaussian 16 at Mon Apr 21 19:10:33 2025.
