 Gaussian 16, Revision A.03,
 Gaussian 16:  ES64L-G16RevA.03 25-Dec-2016

 --------------------------------------------
 #p opt UM062X/6-311+G** nosymm int=superfine
 --------------------------------------------

 -------------------
 Title Card Required
 -------------------
 Symbolic Z-matrix:
 Charge =  0 Multiplicity = 1

 SCF Done:  E(UM062X) =  -51.9018782028     A.U. after    8 cycles
 SCF Done:  E(UM062X) =  -51.9042595830     A.U. after    8 cycles
 SCF Done:  E(UM062X) =  -51.9051758982     A.U. after    9 cycles
 SCF Done:  E(UM062X) =  -51.9051721340     A.U. after    8 cycles
 SCF Done:  E(UM062X) =  -51.9051759429     A.U. after    8 cycles
 Optimization completed.
    -- Stationary point found.

                          Input orientation:
 ---------------------------------------------------------------------
 Center     Atomic      Atomic             Coordinates (Angstroms)
 Number     Number       Type             X           Y           Z
 ---------------------------------------------------------------------
      1          5           0       -1.320607    0.000000    0.000000
      2          5           0        1.320607    0.000000    0.000000
      3          1           0       -1.855696   -1.055515   -0.005003
      4          1           0        1.855696    1.055474   -0.010558
      5          1           0       -1.855696    1.055519    0.004232
      6          1           0        1.855696   -1.055481    0.009809
 ---------------------------------------------------------------------

 Alpha  occ. eigenvalues --   -7.09339  -7.09335  -0.57615  -0.55592  -0.43334
 Alpha  occ. eigenvalues --   -0.42249  -0.26436
 Alpha virt. eigenvalues --   -0.05906  -0.01353   0.01439   0.02301   0.03996
 Alpha virt. eigenvalues --    0.05920   0.06039   0.06149   0.07208   0.08154
 Alpha virt. eigenvalues --    0.10911   0.15977   0.17397   0.18505   0.26375

  Beta  occ. eigenvalues --   -7.09339  -7.09335  -0.57615  -0.55592  -0.43334
  Beta  occ. eigenvalues --   -0.42249  -0.26436
  Beta virt. eigenvalues --   -0.05906  -0.01353   0.01439   0.02301   0.03996
  Beta virt. eigenvalues --    0.05920   0.06039   0.06149   0.07208   0.08154
  Beta virt. eigenvalues --    0.10911   0.15977   0.17397   0.18505   0.26375

 Mulliken charges and spin densities:
               1          2
     1  B   -0.043526  -0.000000
     2  B   -0.043525   0.000000
     3  H    0.021763   0.000000
     4  H    0.021763   0.000000
     5  H    0.021763   0.000000
     6  H    0.021763  -0.000000
 Sum of Mulliken charges =  -0.00000  -0.00000

 Dipole moment (field-independent basis, Debye):
    X=              0.0000    Y=              0.0000    Z=              0.0002  Tot=              0.0002
 Quadrupole moment (field-independent basis, Debye-Ang):
   XX=            -15.5580   YY=            -16.8700   ZZ=            -13.6042
   XY=              0.0000   XZ=             -0.0000   YZ=              0.0086

 Normal termination of Gaussian 16 at Mon Apr 21 17:07:42 2025.
