 Gaussian 16, Revision A.03,
 Gaussian 16:  ES64L-G16RevA.03 25-Dec-2016

 --------------------------------------------
 #p opt UM062X/6-311+G** nosymm int=superfine
 --------------------------------------------

 -------------------
 Title Card Required
 -------------------
 Symbolic Z-matrix:
 Charge =  1 Multiplicity = 2

 SCF Done:  E(UM062X) =  -582.131062270     A.U. after   11 cycles
 SCF Done:  E(UM062X) =  -582.131885714     A.U. after    9 cycles
 SCF Done:  E(UM062X) =  -582.132164954     A.U. after    9 cycles
 SCF Done:  E(UM062X) =  -582.132165832     A.U. after    8 cycles
 Optimization completed.
    -- Stationary point found.

                          Input orientation:
 ---------------------------------------------------------------------
 Center     Atomic      Atomic             Coordinates (Angstroms)
 Number     Number       Type             X           Y           Z
 ---------------------------------------------------------------------
      1         14           0       -2.526292    0.000000    0.000000
      2         14           0        2.526292    0.000000    0.000000
      3          1           0        2.628389   -1.460655   -0.000013
      4          1           0       -2.627635   -0.730197    1.265099
      5          1           0        2.628167    0.730364   -1.264959
      6          1           0        2.627423    0.730282    1.265067
      7          1           0       -2.628415    1.460653   -0.000138
      8          1           0       -2.627929   -0.730452   -1.264927
 ---------------------------------------------------------------------

 Alpha  occ. eigenvalues --  -67.21984 -67.21984  -5.76835  -5.76835  -4.08526
 Alpha  occ. eigenvalues --   -4.08526  -4.07709  -4.07709  -4.07709  -4.07709
 Alpha  occ. eigenvalues --   -0.80537  -0.80301  -0.60977  -0.60976  -0.60936
 Alpha  occ. eigenvalues --   -0.60935  -0.38980
 Alpha virt. eigenvalues --   -0.30323  -0.11633  -0.11514  -0.09877  -0.09079
 Alpha virt. eigenvalues --   -0.09077  -0.07938  -0.07938  -0.07541  -0.07021
 Alpha virt. eigenvalues --   -0.07021  -0.05996  -0.05996  -0.04842   0.00374

  Beta  occ. eigenvalues --  -67.21707 -67.21707  -5.76753  -5.76752  -4.07877
  Beta  occ. eigenvalues --   -4.07877  -4.07614  -4.07614  -4.07614  -4.07614
  Beta  occ. eigenvalues --   -0.78815  -0.78698  -0.60887  -0.60887  -0.60841
  Beta  occ. eigenvalues --   -0.60841
  Beta virt. eigenvalues --   -0.32026  -0.23471  -0.16111  -0.11928  -0.11925
  Beta virt. eigenvalues --   -0.10642  -0.10242  -0.08497  -0.08496  -0.07413
  Beta virt. eigenvalues --   -0.06537  -0.06537  -0.05574  -0.05558  -0.05558

 Mulliken charges and spin densities:
               1          2
     1  Si   0.511313   0.558267
     2  Si   0.511313   0.558267
     3  H   -0.003766  -0.019421
     4  H   -0.003775  -0.019422
     5  H   -0.003770  -0.019425
     6  H   -0.003777  -0.019421
     7  H   -0.003766  -0.019421
     8  H   -0.003772  -0.019424
 Sum of Mulliken charges =   1.00000   1.00000

 Dipole moment (field-independent basis, Debye):
    X=              0.0000    Y=             -0.0000    Z=              0.0001  Tot=              0.0001
 Quadrupole moment (field-independent basis, Debye-Ang):
   XX=              9.9333   YY=            -26.2538   ZZ=            -26.2536
   XY=              0.0008   XZ=              0.0001   YZ=             -0.0000

 Normal termination of Gaussian 16 at Mon Apr 21 20:17:24 2025.
