 Gaussian 16, Revision A.03,
 Gaussian 16:  ES64L-G16RevA.03 25-Dec-2016

 ---------------------------------------
 #p UM062X/6-311+G** force int=superfine
 ---------------------------------------

 -------------------
 Title Card Required
 -------------------
 Symbolic Z-matrix:
 Charge =  0 Multiplicity = 1

                         Standard orientation:
 ---------------------------------------------------------------------
 Center     Atomic      Atomic             Coordinates (Angstroms)
 Number     Number       Type             X           Y           Z
 ---------------------------------------------------------------------
      1          6           0        0.526874    0.000018   -0.000001
      2          6           0       -0.526874   -0.000018   -0.000001
      3          1           0       -1.042977   -0.983880   -0.007338
      4          1           0        1.042996   -0.498316    0.848367
      5          1           0       -1.042999    0.498321   -0.848363
      6          1           0       -1.042992    0.485597    0.855712
      7          1           0        1.042977    0.983880    0.007347
      8          1           0        1.042996   -0.485600   -0.855710
 ---------------------------------------------------------------------

 SCF Done:  E(UM062X) =  -79.5169374434     A.U. after    9 cycles

 The electronic state is 1-A.
 Alpha  occ. eigenvalues --  -10.49948 -10.49110  -0.97417  -0.67228  -0.56715
 Alpha  occ. eigenvalues --   -0.56714  -0.53296  -0.33414  -0.33412
 Alpha virt. eigenvalues --    0.01978   0.04150   0.04390   0.04390   0.08576
 Alpha virt. eigenvalues --    0.09022   0.09022   0.14277   0.17935   0.17936
 Alpha virt. eigenvalues --    0.20422   0.20423   0.23896   0.27699   0.40410

  Beta  occ. eigenvalues --  -10.49948 -10.49110  -0.97417  -0.67228  -0.56715
  Beta  occ. eigenvalues --   -0.56714  -0.53296  -0.33414  -0.33412
  Beta virt. eigenvalues --    0.01978   0.04150   0.04390   0.04390   0.08576
  Beta virt. eigenvalues --    0.09022   0.09022   0.14277   0.17935   0.17936
  Beta virt. eigenvalues --    0.20422   0.20423   0.23896   0.27699   0.40410

 Mulliken charges and spin densities:
               1          2
     1  C   -0.414640  -0.000000
     2  C   -0.414640   0.000000
     3  H    0.138218  -0.000000
     4  H    0.138212   0.000000
     5  H    0.138211  -0.000000
     6  H    0.138211  -0.000000
     7  H    0.138218   0.000000
     8  H    0.138211   0.000000
 Sum of Mulliken charges =   0.00000   0.00000

 Dipole moment (field-independent basis, Debye):
    X=             -0.0000    Y=              0.0000    Z=              0.0000  Tot=              0.0000
 Quadrupole moment (field-independent basis, Debye-Ang):
   XX=            -15.6780   YY=            -14.9428   ZZ=            -14.9433
   XY=              0.0001   XZ=              0.0000   YZ=              0.0000

 Normal termination of Gaussian 16 at Tue Nov 19 12:36:14 2024.
