 Gaussian 16, Revision A.03,
 Gaussian 16:  ES64L-G16RevA.03 25-Dec-2016

 --------------------------------------------
 #p opt UM062X/6-311+G** nosymm int=superfine
 --------------------------------------------

 -------------------
 Title Card Required
 -------------------
 Symbolic Z-matrix:
 Charge = -1 Multiplicity = 2

 SCF Done:  E(UM062X) =  -50.5597926341     A.U. after   17 cycles
 SCF Done:  E(UM062X) =  -50.5636465432     A.U. after   16 cycles
 SCF Done:  E(UM062X) =  -50.5638801299     A.U. after   15 cycles
 Optimization completed.
    -- Stationary point found.

                          Input orientation:
 ---------------------------------------------------------------------
 Center     Atomic      Atomic             Coordinates (Angstroms)
 Number     Number       Type             X           Y           Z
 ---------------------------------------------------------------------
      1          5           0       -2.066404    0.000000    0.000000
      2          5           0        2.066404    0.000000    0.000000
      3          1           0       -3.329090   -0.000957   -0.000000
      4          1           0        3.329090    0.000957    0.000001
 ---------------------------------------------------------------------

 Alpha  occ. eigenvalues --   -6.91498  -6.91498  -0.35115  -0.34993  -0.09727
 Alpha  occ. eigenvalues --   -0.07327   0.02657
 Alpha virt. eigenvalues --    0.09877   0.12264   0.13332   0.15379   0.16064
 Alpha virt. eigenvalues --    0.21414   0.21663   0.21816   0.22498   0.23092
 Alpha virt. eigenvalues --    0.25393   0.32271   0.36920   0.50029   0.56379

  Beta  occ. eigenvalues --   -6.91409  -6.91409  -0.34045  -0.33995  -0.08624
  Beta  occ. eigenvalues --   -0.06296
  Beta virt. eigenvalues --    0.10597   0.11402   0.12111   0.12509   0.13405
  Beta virt. eigenvalues --    0.13642   0.19182   0.20085   0.20336   0.21218
  Beta virt. eigenvalues --    0.21459   0.21771   0.32122   0.36992   0.49700

 Mulliken charges and spin densities:
               1          2
     1  B   -0.410093   0.512356
     2  B   -0.410093   0.512356
     3  H   -0.089907  -0.012356
     4  H   -0.089907  -0.012356
 Sum of Mulliken charges =  -1.00000   1.00000

 Dipole moment (field-independent basis, Debye):
    X=             -0.0000    Y=              0.0000    Z=              0.0000  Tot=              0.0000
 Quadrupole moment (field-independent basis, Debye-Ang):
   XX=            -39.8539   YY=            -19.0583   ZZ=            -26.3643
   XY=             -0.0010   XZ=             -0.0000   YZ=              0.0041

 Normal termination of Gaussian 16 at Mon Apr 21 17:34:13 2025.
