 Gaussian 16, Revision A.03,
 Gaussian 16:  ES64L-G16RevA.03 25-Dec-2016

 --------------------------------------------
 #p opt UM062X/6-311+G** nosymm int=superfine
 --------------------------------------------

 -------------------
 Title Card Required
 -------------------
 Symbolic Z-matrix:
 Charge =  0 Multiplicity = 1

 SCF Done:  E(UM062X) =  -110.147382422     A.U. after   13 cycles
 SCF Done:  E(UM062X) =  -110.147952287     A.U. after   16 cycles
 SCF Done:  E(UM062X) =  -110.149518055     A.U. after   18 cycles
 SCF Done:  E(UM062X) =  -110.150755061     A.U. after   19 cycles
 SCF Done:  E(UM062X) =  -110.427679474     A.U. after   67 cycles
 SCF Done:  E(UM062X) =  -110.427824963     A.U. after   14 cycles
 SCF Done:  E(UM062X) =  -110.427832677     A.U. after    9 cycles
 SCF Done:  E(UM062X) =  -110.427833841     A.U. after    9 cycles
 SCF Done:  E(UM062X) =  -110.427835553     A.U. after   12 cycles
 Optimization completed.
    -- Stationary point found.

                          Input orientation:
 ---------------------------------------------------------------------
 Center     Atomic      Atomic             Coordinates (Angstroms)
 Number     Number       Type             X           Y           Z
 ---------------------------------------------------------------------
      1          7           0       -2.040428    0.000000    0.000000
      2          7           0        2.040428    0.000000    0.000000
      3          1           0       -1.838984   -1.017961   -0.000000
      4          1           0        1.838984    1.017961   -0.000000
 ---------------------------------------------------------------------

 Alpha  occ. eigenvalues --  -14.81907 -14.79414  -0.95303  -0.82518  -0.48622
 Alpha  occ. eigenvalues --   -0.42639  -0.41514  -0.41512
 Alpha virt. eigenvalues --   -0.06682  -0.06650   0.03738   0.07342   0.11098
 Alpha virt. eigenvalues --    0.11752   0.13596   0.14662   0.15856   0.17962
 Alpha virt. eigenvalues --    0.19420   0.23025   0.55085   0.56463   0.75681

  Beta  occ. eigenvalues --  -14.81907 -14.79414  -0.95303  -0.82518  -0.48622
  Beta  occ. eigenvalues --   -0.42639  -0.41514  -0.41512
  Beta virt. eigenvalues --   -0.06682  -0.06650   0.03738   0.07342   0.11098
  Beta virt. eigenvalues --    0.11752   0.13596   0.14662   0.15856   0.17962
  Beta virt. eigenvalues --    0.19420   0.23025   0.55085   0.56463   0.75681

 Mulliken charges and spin densities:
               1          2
     1  N   -0.200060  -2.055598
     2  N   -0.200060   2.055598
     3  H    0.200060   0.061275
     4  H    0.200060  -0.061275
 Sum of Mulliken charges =  -0.00000   0.00000

 Dipole moment (field-independent basis, Debye):
    X=             -0.0000    Y=             -0.0000    Z=             -0.0000  Tot=              0.0000
 Quadrupole moment (field-independent basis, Debye-Ang):
   XX=            -15.3291   YY=            -11.2368   ZZ=            -12.8304
   XY=              6.6618   XZ=             -0.0000   YZ=             -0.0000

 Normal termination of Gaussian 16 at Thu May 15 15:48:37 2025.
