 Gaussian 16, Revision A.03,
 Gaussian 16:  ES64L-G16RevA.03 25-Dec-2016

 --------------------------------------------
 #p opt UM062X/6-311+G** nosymm int=superfine
 --------------------------------------------

 -------------------
 Title Card Required
 -------------------
 Symbolic Z-matrix:
 Charge =  0 Multiplicity = 1

 SCF Done:  E(UM062X) =  -77.2308261759     A.U. after    9 cycles
 SCF Done:  E(UM062X) =  -77.2601248288     A.U. after    9 cycles
 SCF Done:  E(UM062X) =  -77.2603861645     A.U. after    7 cycles
 Optimization completed.
    -- Stationary point found.

                          Input orientation:
 ---------------------------------------------------------------------
 Center     Atomic      Atomic             Coordinates (Angstroms)
 Number     Number       Type             X           Y           Z
 ---------------------------------------------------------------------
      1          6           0       -0.526694    0.000000    0.000000
      2          6           0        0.526694    0.000000    0.000000
      3          1           0       -1.588562    0.000000   -0.000000
      4          1           0        1.588561    0.000000    0.000000
 ---------------------------------------------------------------------

 Alpha  occ. eigenvalues --  -10.50724 -10.49858  -0.88293  -0.62617  -0.56727
 Alpha  occ. eigenvalues --   -0.38624  -0.38624
 Alpha virt. eigenvalues --    0.02758   0.03203   0.06595   0.06595   0.07329
 Alpha virt. eigenvalues --    0.07329   0.09381   0.16580   0.18217   0.18217
 Alpha virt. eigenvalues --    0.21285   0.24836   0.44025   0.44175   0.55035

  Beta  occ. eigenvalues --  -10.50724 -10.49858  -0.88293  -0.62617  -0.56727
  Beta  occ. eigenvalues --   -0.38624  -0.38624
  Beta virt. eigenvalues --    0.02758   0.03203   0.06595   0.06595   0.07329
  Beta virt. eigenvalues --    0.07329   0.09381   0.16580   0.18217   0.18217
  Beta virt. eigenvalues --    0.21285   0.24836   0.44025   0.44175   0.55035

 Mulliken charges and spin densities:
               1          2
     1  C   -0.145312   0.000000
     2  C   -0.145311  -0.000000
     3  H    0.145312   0.000000
     4  H    0.145311  -0.000000
 Sum of Mulliken charges =  -0.00000  -0.00000

 Dipole moment (field-independent basis, Debye):
    X=              0.0000    Y=              0.0000    Z=             -0.0000  Tot=              0.0000
 Quadrupole moment (field-independent basis, Debye-Ang):
   XX=             -7.3307   YY=            -13.0568   ZZ=            -13.0568
   XY=             -0.0000   XZ=              0.0000   YZ=              0.0000

 Normal termination of Gaussian 16 at Tue Dec  3 20:00:37 2024.
