 Gaussian 16, Revision A.03,
 Gaussian 16:  ES64L-G16RevA.03 25-Dec-2016

 --------------------------------------------
 #p opt UM062X/6-311+G** nosymm int=superfine
 --------------------------------------------

 -------------------
 Title Card Required
 -------------------
 Symbolic Z-matrix:
 Charge =  1 Multiplicity = 2

 SCF Done:  E(UM062X) =  -76.9790113101     A.U. after   10 cycles
 SCF Done:  E(UM062X) =  -77.0567289120     A.U. after   10 cycles
 SCF Done:  E(UM062X) =  -77.1458687313     A.U. after   10 cycles
 SCF Done:  E(UM062X) =  -77.1721561005     A.U. after   10 cycles
 SCF Done:  E(UM062X) =  -77.1866899507     A.U. after    9 cycles
 SCF Done:  E(UM062X) =  -77.1933684795     A.U. after    9 cycles
 SCF Done:  E(UM062X) =  -77.1935385631     A.U. after    8 cycles
 Optimization completed.
    -- Stationary point found.

                          Input orientation:
 ---------------------------------------------------------------------
 Center     Atomic      Atomic             Coordinates (Angstroms)
 Number     Number       Type             X           Y           Z
 ---------------------------------------------------------------------
      1          6           0       -0.395860    0.000000    0.000000
      2          6           0        0.395860    0.000000    0.000000
      3          1           0       -1.241215   -0.761742   -0.000000
      4          1           0       -1.238172    0.766343    0.000000
      5          1           0        1.241215    0.761742   -0.000000
      6          1           0        1.238172   -0.766343    0.000000
 ---------------------------------------------------------------------

 Alpha  occ. eigenvalues --  -10.85472 -10.77244  -1.24121  -0.95941  -0.91536
 Alpha  occ. eigenvalues --   -0.88513  -0.80353  -0.59591
 Alpha virt. eigenvalues --   -0.20033  -0.15628  -0.13898  -0.12250  -0.11599
 Alpha virt. eigenvalues --   -0.09171  -0.07748  -0.06261  -0.01711   0.00081
 Alpha virt. eigenvalues --    0.00621   0.03106   0.16781   0.17397   0.20182

  Beta  occ. eigenvalues --  -10.85562 -10.77298  -1.23405  -0.91274  -0.88157
  Beta  occ. eigenvalues --   -0.85752  -0.80252
  Beta virt. eigenvalues --   -0.39147  -0.17905  -0.15431  -0.13501  -0.12180
  Beta virt. eigenvalues --   -0.11283  -0.09023  -0.04593  -0.03045  -0.01307
  Beta virt. eigenvalues --    0.00874   0.01847   0.04075   0.15918   0.17065

 Mulliken charges and spin densities:
               1          2
     1  C   -0.135421   0.080118
     2  C   -0.135421   0.080118
     3  H    0.317614   0.209023
     4  H    0.317807   0.210859
     5  H    0.317614   0.209023
     6  H    0.317807   0.210859
 Sum of Mulliken charges =   1.00000   1.00000

 Dipole moment (field-independent basis, Debye):
    X=              0.0000    Y=             -0.0000    Z=              0.0000  Tot=              0.0000
 Quadrupole moment (field-independent basis, Debye-Ang):
   XX=             -2.6027   YY=             -7.6753   ZZ=            -11.4450
   XY=             -0.0120   XZ=              0.0000   YZ=              0.0000

 Normal termination of Gaussian 16 at Tue Nov 19 10:32:36 2024.
