 Gaussian 16, Revision A.03,
 Gaussian 16:  ES64L-G16RevA.03 25-Dec-2016

 ---------------------------------------------------
 #p UM062X/6-311+G** force int=superfine pop=saveNBO
 ---------------------------------------------------

 -------------------
 Title Card Required
 -------------------
 Symbolic Z-matrix:
 Charge =  0 Multiplicity = 1

                         Standard orientation:
 ---------------------------------------------------------------------
 Center     Atomic      Atomic             Coordinates (Angstroms)
 Number     Number       Type             X           Y           Z
 ---------------------------------------------------------------------
      1         15           0        0.000000    0.000000    1.563495
      2         15           0        0.000000    0.000000   -1.563495
 ---------------------------------------------------------------------

 SCF Done:  E(UM062X) =  -682.398520942     A.U. after    9 cycles

 The electronic state is 1-SGG.
 Alpha  occ. eigenvalues --  -78.11985 -78.11985  -6.93519  -6.93518  -5.04830
 Alpha  occ. eigenvalues --   -5.04830  -5.04830  -5.04830  -5.04789  -5.04788
 Alpha  occ. eigenvalues --   -0.65750  -0.61783  -0.30193  -0.26772  -0.26772
 Alpha virt. eigenvalues --   -0.15619  -0.15619  -0.10823   0.02428   0.03350
 Alpha virt. eigenvalues --    0.04585   0.04585   0.06161   0.06517   0.06517
 Alpha virt. eigenvalues --    0.11393   0.28774   0.29868   0.29868   0.33178

  Beta  occ. eigenvalues --  -78.11985 -78.11985  -6.93519  -6.93518  -5.04830
  Beta  occ. eigenvalues --   -5.04830  -5.04830  -5.04830  -5.04789  -5.04788
  Beta  occ. eigenvalues --   -0.65750  -0.61783  -0.30193  -0.26772  -0.26772
  Beta virt. eigenvalues --   -0.15619  -0.15619  -0.10823   0.02428   0.03350
  Beta virt. eigenvalues --    0.04585   0.04585   0.06161   0.06517   0.06517
  Beta virt. eigenvalues --    0.11393   0.28774   0.29868   0.29868   0.33178

 Mulliken charges and spin densities:
               1          2
     1  P   -0.000000   0.000000
     2  P   -0.000000   0.000000
 Sum of Mulliken charges =  -0.00000   0.00000

 Dipole moment (field-independent basis, Debye):
    X=             -0.0000    Y=              0.0000    Z=              0.0000  Tot=              0.0000
 Quadrupole moment (field-independent basis, Debye-Ang):
   XX=            -29.2547   YY=            -29.2547   ZZ=            -24.6683
   XY=              0.0000   XZ=             -0.0000   YZ=              0.0000

 Summary of Natural Population Analysis:

                                       Natural Population
                Natural  -----------------------------------------------
    Atom  No    Charge         Core      Valence    Rydberg      Total
 -----------------------------------------------------------------------
      P    1    0.00000      4.99999     2.49907    0.00094     7.50000
      P    2    0.00000      4.99999     2.49907    0.00094     7.50000
 =======================================================================
   * Total *    0.00000      9.99997     4.99814    0.00188    15.00000

 Normal termination of Gaussian 16 at Mon Apr 21 21:37:35 2025.
