 Gaussian 16, Revision A.03,
 Gaussian 16:  ES64L-G16RevA.03 25-Dec-2016

 ---------------------------------------------------
 #p UM062X/6-311+G** force int=superfine pop=saveNBO
 ---------------------------------------------------

 -------------------
 Title Card Required
 -------------------
 Symbolic Z-matrix:
 Charge =  0 Multiplicity = 1

                         Standard orientation:
 ---------------------------------------------------------------------
 Center     Atomic      Atomic             Coordinates (Angstroms)
 Number     Number       Type             X           Y           Z
 ---------------------------------------------------------------------
      1          6           0        0.000000    0.000000   -3.148067
      2         16           0        0.000000    0.000000    1.180525
 ---------------------------------------------------------------------

 SCF Done:  E(UM062X) =  -435.723432194     A.U. after   16 cycles

 The electronic state is 1-SG.
 Alpha  occ. eigenvalues --  -89.92945 -10.82465  -8.28806  -6.20584  -6.20584
 Alpha  occ. eigenvalues --   -6.20560  -0.72679  -0.71295  -0.28494  -0.27721
 Alpha  occ. eigenvalues --   -0.27721
 Alpha virt. eigenvalues --   -0.21017  -0.21017  -0.20001   0.02396   0.05572
 Alpha virt. eigenvalues --    0.05572   0.05594   0.08192   0.08275   0.08275
 Alpha virt. eigenvalues --    0.13098   0.36081   0.36715   0.36715   0.51075

  Beta  occ. eigenvalues --  -89.92945 -10.82465  -8.28806  -6.20584  -6.20584
  Beta  occ. eigenvalues --   -6.20560  -0.72679  -0.71295  -0.28494  -0.27721
  Beta  occ. eigenvalues --   -0.27721
  Beta virt. eigenvalues --   -0.21017  -0.21017  -0.20001   0.02396   0.05572
  Beta virt. eigenvalues --    0.05572   0.05594   0.08192   0.08275   0.08275
  Beta virt. eigenvalues --    0.13098   0.36081   0.36715   0.36715   0.51075

 Mulliken charges and spin densities:
               1          2
     1  C    0.219078   0.000000
     2  S   -0.219078  -0.000000
 Sum of Mulliken charges =   0.00000   0.00000

 Dipole moment (field-independent basis, Debye):
    X=              0.0000    Y=              0.0000    Z=             -4.5904  Tot=              4.5904
 Quadrupole moment (field-independent basis, Debye-Ang):
   XX=            -20.8971   YY=            -20.8971   ZZ=             -9.4677
   XY=              0.0000   XZ=              0.0000   YZ=              0.0000

 Summary of Natural Population Analysis:

                                       Natural Population
                Natural  -----------------------------------------------
    Atom  No    Charge         Core      Valence    Rydberg      Total
 -----------------------------------------------------------------------
      C    1    0.12158      1.00000     1.87803    0.00039     2.87842
      S    2   -0.12158      5.00000     3.12138    0.00020     8.12158
 =======================================================================
   * Total *    0.00000      6.00000     4.99941    0.00059    11.00000

 Normal termination of Gaussian 16 at Mon Apr 21 19:47:06 2025.
