 Gaussian 16, Revision A.03,
 Gaussian 16:  ES64L-G16RevA.03 25-Dec-2016

 --------------------------------------------
 #p opt UM062X/6-311+G** nosymm int=superfine
 --------------------------------------------

 -------------------
 Title Card Required
 -------------------
 Symbolic Z-matrix:
 Charge =  0 Multiplicity = 1

 SCF Done:  E(UM062X) =  -111.615387864     A.U. after   14 cycles
 SCF Done:  E(UM062X) =  -111.620164828     A.U. after   14 cycles
 SCF Done:  E(UM062X) =  -111.623362137     A.U. after   14 cycles
 SCF Done:  E(UM062X) =  -111.625567861     A.U. after   15 cycles
 SCF Done:  E(UM062X) =  -111.627554351     A.U. after   15 cycles
 SCF Done:  E(UM062X) =  -111.628359895     A.U. after   17 cycles
 SCF Done:  E(UM062X) =  -111.628724856     A.U. after   15 cycles
 SCF Done:  E(UM062X) =  -111.629095359     A.U. after   16 cycles
 SCF Done:  E(UM062X) =  -111.629361165     A.U. after   18 cycles
 SCF Done:  E(UM062X) =  -111.629447430     A.U. after   16 cycles
 SCF Done:  E(UM062X) =  -111.629470678     A.U. after   12 cycles
 SCF Done:  E(UM062X) =  -111.629510569     A.U. after   13 cycles
 SCF Done:  E(UM062X) =  -111.629537788     A.U. after   13 cycles
 SCF Done:  E(UM062X) =  -111.629563309     A.U. after   13 cycles
 SCF Done:  E(UM062X) =  -111.629568518     A.U. after   12 cycles
 SCF Done:  E(UM062X) =  -111.629568565     A.U. after   11 cycles
 Optimization completed.
    -- Stationary point found.

                          Input orientation:
 ---------------------------------------------------------------------
 Center     Atomic      Atomic             Coordinates (Angstroms)
 Number     Number       Type             X           Y           Z
 ---------------------------------------------------------------------
      1          7           0       -1.886540    0.000000    0.000000
      2          7           0        1.886540    0.000000    0.000000
      3          1           0       -1.769047   -0.812429   -0.618387
      4          1           0        1.769161    0.404676   -0.937395
      5          1           0       -1.769460   -0.402291    0.938460
      6          1           0        1.769793    0.810933    0.620491
 ---------------------------------------------------------------------

 Alpha  occ. eigenvalues --  -14.80529 -14.80528  -0.95213  -0.94938  -0.55336
 Alpha  occ. eigenvalues --   -0.55188  -0.40803  -0.40578  -0.28380
 Alpha virt. eigenvalues --   -0.18654   0.04214   0.06031   0.08761   0.11528
 Alpha virt. eigenvalues --    0.12349   0.13425   0.15514   0.16344   0.18000
 Alpha virt. eigenvalues --    0.18821   0.23857   0.28463   0.51194   0.51580

  Beta  occ. eigenvalues --  -14.80529 -14.80528  -0.95213  -0.94938  -0.55336
  Beta  occ. eigenvalues --   -0.55188  -0.40803  -0.40578  -0.28380
  Beta virt. eigenvalues --   -0.18654   0.04214   0.06031   0.08761   0.11528
  Beta virt. eigenvalues --    0.12349   0.13425   0.15514   0.16344   0.18000
  Beta virt. eigenvalues --    0.18821   0.23857   0.28463   0.51194   0.51580

 Mulliken charges and spin densities:
               1          2
     1  N   -0.482361  -0.000000
     2  N   -0.482438   0.000000
     3  H    0.241215   0.000000
     4  H    0.241222  -0.000000
     5  H    0.241178   0.000000
     6  H    0.241183  -0.000000
 Sum of Mulliken charges =  -0.00000  -0.00000

 Dipole moment (field-independent basis, Debye):
    X=              0.0005    Y=              0.0014    Z=              0.0051  Tot=              0.0053
 Quadrupole moment (field-independent basis, Debye-Ang):
   XX=            -16.8632   YY=            -14.3681   ZZ=            -11.5324
   XY=              7.7965   XZ=             -2.0432   YZ=              0.7981

 Normal termination of Gaussian 16 at Thu May 15 15:07:34 2025.
