 Gaussian 16, Revision A.03,
 Gaussian 16:  ES64L-G16RevA.03 25-Dec-2016

 ---------------------------------------
 #p UM062X/6-311+G** force int=superfine
 ---------------------------------------

 -------------------
 Title Card Required
 -------------------
 Symbolic Z-matrix:
 Charge =  0 Multiplicity = 1

                         Standard orientation:
 ---------------------------------------------------------------------
 Center     Atomic      Atomic             Coordinates (Angstroms)
 Number     Number       Type             X           Y           Z
 ---------------------------------------------------------------------
      1          6           0        0.000000    0.430867    0.000000
      2          6           0       -0.000000   -0.430867   -0.000000
      3          1           0        0.865829    1.118093   -0.000000
      4          1           0       -0.865795    1.118106    0.000000
      5          1           0       -0.865829   -1.118093   -0.000000
      6          1           0        0.865795   -1.118106    0.000000
 ---------------------------------------------------------------------

 SCF Done:  E(UM062X) =  -77.9126252376     A.U. after    9 cycles

 The electronic state is 1-AG.
 Alpha  occ. eigenvalues --  -10.50531 -10.46095  -0.95268  -0.61446  -0.60816
 Alpha  occ. eigenvalues --   -0.53643  -0.47058  -0.31226
 Alpha virt. eigenvalues --    0.03145   0.03739   0.04250   0.06228   0.07762
 Alpha virt. eigenvalues --    0.09103   0.09855   0.16053   0.16426   0.18558
 Alpha virt. eigenvalues --    0.22560   0.25267   0.35764   0.42271   0.42926

  Beta  occ. eigenvalues --  -10.50531 -10.46095  -0.95268  -0.61446  -0.60816
  Beta  occ. eigenvalues --   -0.53643  -0.47058  -0.31226
  Beta virt. eigenvalues --    0.03145   0.03739   0.04250   0.06228   0.07762
  Beta virt. eigenvalues --    0.09103   0.09855   0.16053   0.16426   0.18558
  Beta virt. eigenvalues --    0.22560   0.25267   0.35764   0.42271   0.42926

 Mulliken charges and spin densities:
               1          2
     1  C   -0.245922  -0.000000
     2  C   -0.245922  -0.000000
     3  H    0.122958   0.000000
     4  H    0.122964   0.000000
     5  H    0.122958   0.000000
     6  H    0.122964   0.000000
 Sum of Mulliken charges =  -0.00000   0.00000

 Dipole moment (field-independent basis, Debye):
    X=             -0.0000    Y=             -0.0000    Z=              0.0000  Tot=              0.0000
 Quadrupole moment (field-independent basis, Debye-Ang):
   XX=            -12.4717   YY=            -12.6106   ZZ=            -13.6574
   XY=             -0.0001   XZ=              0.0000   YZ=              0.0000

 Normal termination of Gaussian 16 at Tue Nov 19 11:40:21 2024.
