 Gaussian 16, Revision A.03,
 Gaussian 16:  ES64L-G16RevA.03 25-Dec-2016

 -------------------------------------------------------------------
 #p opt UM062X/6-311+G** nosymm int=superfine SCF=NoVarAcc SCF=tight
 -------------------------------------------------------------------

 -------------------
 Title Card Required
 -------------------
 Symbolic Z-matrix:
 Charge =  1 Multiplicity = 2

 SCF Done:  E(UM062X) =  -79.3121444226     A.U. after   10 cycles
 SCF Done:  E(UM062X) =  -79.3121851533     A.U. after    9 cycles
 SCF Done:  E(UM062X) =  -79.3121967477     A.U. after    8 cycles
 SCF Done:  E(UM062X) =  -79.3122031041     A.U. after    8 cycles
 SCF Done:  E(UM062X) =  -79.3122034453     A.U. after    8 cycles
 Optimization completed.
    -- Stationary point found.

                          Input orientation:
 ---------------------------------------------------------------------
 Center     Atomic      Atomic             Coordinates (Angstroms)
 Number     Number       Type             X           Y           Z
 ---------------------------------------------------------------------
      1          6           0       -3.782675    0.000000    0.000000
      2          6           0        3.782675    0.000000    0.000000
      3          1           0        3.788857   -0.936815    0.542442
      4          1           0       -3.788910   -0.937838   -0.540680
      5          1           0        3.790744    0.938176    0.540062
      6          1           0        3.789528   -0.001373   -1.082523
      7          1           0       -3.790460    0.937199   -0.541743
      8          1           0       -3.789657    0.000429    1.082526
 ---------------------------------------------------------------------

 Alpha  occ. eigenvalues --  -10.80242 -10.80242  -0.99007  -0.98981  -0.70235
 Alpha  occ. eigenvalues --   -0.70233  -0.70233  -0.70231  -0.41467
 Alpha virt. eigenvalues --   -0.37598  -0.10800  -0.09433  -0.06675  -0.06675
 Alpha virt. eigenvalues --   -0.06062  -0.06061  -0.05712  -0.02589   0.02592
 Alpha virt. eigenvalues --    0.03024   0.03026   0.03164   0.03166   0.04408

  Beta  occ. eigenvalues --  -10.80000 -10.80000  -0.96330  -0.96330  -0.69663
  Beta  occ. eigenvalues --   -0.69661  -0.69661  -0.69659
  Beta virt. eigenvalues --   -0.25343  -0.25309  -0.10790  -0.10113  -0.06133
  Beta virt. eigenvalues --   -0.06132  -0.05709  -0.05709  -0.03286  -0.01137
  Beta virt. eigenvalues --    0.03358   0.03360   0.03453   0.03455   0.04167

 Mulliken charges and spin densities:
               1          2
     1  C   -0.194743   0.566787
     2  C   -0.194745   0.566789
     3  H    0.231575  -0.022262
     4  H    0.231572  -0.022263
     5  H    0.231590  -0.022262
     6  H    0.231579  -0.022263
     7  H    0.231594  -0.022261
     8  H    0.231578  -0.022264
 Sum of Mulliken charges =   1.00000   1.00000

 Dipole moment (field-independent basis, Debye):
    X=              0.0000    Y=             -0.0001    Z=              0.0000  Tot=              0.0001
 Quadrupole moment (field-independent basis, Debye-Ang):
   XX=             55.7654   YY=            -11.1248   ZZ=            -11.1253
   XY=              0.0007   XZ=              0.0000   YZ=             -0.0004

 Normal termination of Gaussian 16 at Tue Dec  3 16:12:15 2024.
