 Gaussian 16, Revision A.03,
 Gaussian 16:  ES64L-G16RevA.03 25-Dec-2016

 ---------------------------------------------------
 #p UM062X/6-311+G** force int=superfine pop=saveNBO
 ---------------------------------------------------

 -------------------
 Title Card Required
 -------------------
 Symbolic Z-matrix:
 Charge =  0 Multiplicity = 1

                         Standard orientation:
 ---------------------------------------------------------------------
 Center     Atomic      Atomic             Coordinates (Angstroms)
 Number     Number       Type             X           Y           Z
 ---------------------------------------------------------------------
      1          6           0        1.067929    0.024176   -0.000011
      2         15           0       -0.588247   -0.101077   -0.000042
      3          1           0        1.619983    0.957308   -0.000394
      4          1           0       -0.874548    1.292180    0.000588
      5          1           0        1.670695   -0.878393    0.000507
 ---------------------------------------------------------------------

 SCF Done:  E(UM062X) =  -381.191739880     A.U. after   11 cycles

 The electronic state is 1-A.
 Alpha  occ. eigenvalues --  -78.02051 -10.56200  -6.84803  -4.96344  -4.96306
 Alpha  occ. eigenvalues --   -4.96075  -0.82313  -0.63878  -0.51835  -0.43781
 Alpha  occ. eigenvalues --   -0.33634  -0.32670
 Alpha virt. eigenvalues --   -0.03625   0.01018   0.03121   0.04062   0.04799
 Alpha virt. eigenvalues --    0.06244   0.08027   0.09994   0.11152   0.15513
 Alpha virt. eigenvalues --    0.16848   0.19414   0.21528   0.31164   0.32687

  Beta  occ. eigenvalues --  -78.02051 -10.56200  -6.84803  -4.96344  -4.96306
  Beta  occ. eigenvalues --   -4.96075  -0.82313  -0.63878  -0.51835  -0.43781
  Beta  occ. eigenvalues --   -0.33634  -0.32670
  Beta virt. eigenvalues --   -0.03625   0.01018   0.03121   0.04062   0.04799
  Beta virt. eigenvalues --    0.06244   0.08027   0.09994   0.11152   0.15513
  Beta virt. eigenvalues --    0.16848   0.19414   0.21528   0.31164   0.32687

 Mulliken charges and spin densities:
               1          2
     1  C   -0.425064  -0.000000
     2  P    0.113158   0.000000
     3  H    0.178667   0.000000
     4  H   -0.046308  -0.000000
     5  H    0.179547   0.000000
 Sum of Mulliken charges =  -0.00000   0.00000

 Dipole moment (field-independent basis, Debye):
    X=              0.6438    Y=              0.6300    Z=             -0.0001  Tot=              0.9008
 Quadrupole moment (field-independent basis, Debye-Ang):
   XX=            -19.6183   YY=            -20.1103   ZZ=            -22.0117
   XY=             -1.0547   XZ=              0.0003   YZ=             -0.0006

 Summary of Natural Population Analysis:

                                       Natural Population
                Natural  -----------------------------------------------
    Atom  No    Charge         Core      Valence    Rydberg      Total
 -----------------------------------------------------------------------
      C    1   -0.38914      0.99977     2.38326    0.00612     3.38914
      P    2    0.20681      4.99924     2.27203    0.02192     7.29319
      H    3    0.10429      0.00000     0.39462    0.00109     0.39571
      H    4   -0.02646      0.00000     0.52371    0.00275     0.52646
      H    5    0.10450      0.00000     0.39479    0.00072     0.39550
 =======================================================================
   * Total *    0.00000      5.99900     5.96840    0.03260    12.00000

 Optimization completed.
    -- Stationary point found.

 1\1\GINC-NODE01\Force\UM062X\6-311+G(d,p)\C1H3P1\SZHAO\16-Apr-2025\0\\
 #p UM062X/6-311+G** force int=superfine pop=saveNBO\\Title Card Requir
 ed\\0,1\C,-0.83045248,0.,0.\P,0.83045248,0.,0.\H,-1.45130431,-0.888843
 63,0.\H,1.01087048,-1.41087917,0.00126115\H,-1.36343765,0.94545478,0.0
 0008691\\Version=ES64L-G16RevA.03\State=1-A\HF=-381.1917399\S2=0.\S2-1
 =0.\S2A=0.\RMSD=4.318e-09\RMSF=6.763e-05\Dipole=-0.2712622,-0.2280458,
 0.0000686\Quadrupole=0.5950789,0.4692789,-1.0643578,-0.8026974,0.00017
 84,-0.000237\PG=C01 [X(C1H3P1)]\\@

 Normal termination of Gaussian 16 at Wed Apr 16 03:41:58 2025.
