 Gaussian 16, Revision A.03,
 Gaussian 16:  ES64L-G16RevA.03 25-Dec-2016

 --------------------------------------------
 #p opt UM062X/6-311+G** nosymm int=superfine
 --------------------------------------------

 -------------------
 Title Card Required
 -------------------
 Symbolic Z-matrix:
 Charge =  0 Multiplicity = 1

 SCF Done:  E(UM062X) =  -115.473371322     A.U. after   16 cycles
 SCF Done:  E(UM062X) =  -115.489632708     A.U. after   11 cycles
 SCF Done:  E(UM062X) =  -115.499128400     A.U. after   16 cycles
 SCF Done:  E(UM062X) =  -115.499298891     A.U. after   10 cycles
 SCF Done:  E(UM062X) =  -115.499418922     A.U. after   11 cycles
 SCF Done:  E(UM062X) =  -115.499476285     A.U. after   12 cycles
 SCF Done:  E(UM062X) =  -115.499484741     A.U. after   11 cycles
 SCF Done:  E(UM062X) =  -115.499485354     A.U. after    8 cycles
 Optimization completed.
    -- Stationary point found.

                          Input orientation:
 ---------------------------------------------------------------------
 Center     Atomic      Atomic             Coordinates (Angstroms)
 Number     Number       Type             X           Y           Z
 ---------------------------------------------------------------------
      1          6           0       -1.557203    0.000000    0.000000
      2          8           0        1.557203    0.000000    0.000000
      3          1           0        1.594406   -0.964925    0.000455
      4          1           0       -1.637840   -0.531891    0.937855
      5          1           0       -1.488848    1.078931   -0.000715
      6          1           0       -1.637822   -0.533133   -0.937151
 ---------------------------------------------------------------------

 Alpha  occ. eigenvalues --  -19.58846 -10.66743  -1.01173  -0.84315  -0.56452
 Alpha  occ. eigenvalues --   -0.56190  -0.45695  -0.32646  -0.29293
 Alpha virt. eigenvalues --   -0.15160   0.00526   0.03922   0.04290   0.06580
 Alpha virt. eigenvalues --    0.13732   0.15204   0.15414   0.20016   0.22986
 Alpha virt. eigenvalues --    0.22987   0.24811   0.29693   0.39429   0.39739

  Beta  occ. eigenvalues --  -19.58846 -10.66743  -1.01173  -0.84315  -0.56452
  Beta  occ. eigenvalues --   -0.56190  -0.45695  -0.32646  -0.29293
  Beta virt. eigenvalues --   -0.15160   0.00526   0.03922   0.04290   0.06580
  Beta virt. eigenvalues --    0.13732   0.15204   0.15414   0.20016   0.22986
  Beta virt. eigenvalues --    0.22987   0.24811   0.29693   0.39429   0.39739

 Mulliken charges and spin densities:
               1          2
     1  C   -0.288267  -0.000003
     2  O   -0.569317   0.000003
     3  H    0.212667  -0.000000
     4  H    0.209709   0.000000
     5  H    0.225502   0.000000
     6  H    0.209707   0.000000
 Sum of Mulliken charges =  -0.00000   0.00000

 Dipole moment (field-independent basis, Debye):
    X=             -5.5153    Y=             -1.5568    Z=              0.0007  Tot=              5.7308
 Quadrupole moment (field-independent basis, Debye-Ang):
   XX=            -13.2425   YY=            -11.4557   ZZ=            -13.8768
   XY=             -2.6351   XZ=              0.0012   YZ=             -0.0011

 Normal termination of Gaussian 16 at Mon Apr 21 18:39:39 2025.
