 Gaussian 16, Revision A.03,
 Gaussian 16:  ES64L-G16RevA.03 25-Dec-2016

 --------------------------------------------
 #p opt UM062X/6-311+G** nosymm int=superfine
 --------------------------------------------

 -------------------
 Title Card Required
 -------------------
 Symbolic Z-matrix:
 Charge =  0 Multiplicity = 1

 SCF Done:  E(UM062X) =  -683.581108528     A.U. after   11 cycles
 SCF Done:  E(UM062X) =  -683.581336136     A.U. after   10 cycles
 SCF Done:  E(UM062X) =  -683.581771702     A.U. after   11 cycles
 SCF Done:  E(UM062X) =  -683.581899186     A.U. after   13 cycles
 SCF Done:  E(UM062X) =  -683.581901097     A.U. after   12 cycles
 Optimization completed.
    -- Stationary point found.

                          Input orientation:
 ---------------------------------------------------------------------
 Center     Atomic      Atomic             Coordinates (Angstroms)
 Number     Number       Type             X           Y           Z
 ---------------------------------------------------------------------
      1         15           0       -2.259490    0.000000    0.000000
      2         15           0        2.259490    0.000000    0.000000
      3          1           0       -2.105322   -1.415538   -0.000000
      4          1           0        2.105322    1.415538   -0.000000
 ---------------------------------------------------------------------

 Alpha  occ. eigenvalues --  -78.08290 -78.08290  -6.90353  -6.90353  -5.01761
 Alpha  occ. eigenvalues --   -5.01761  -5.01744  -5.01744  -5.01568  -5.01568
 Alpha  occ. eigenvalues --   -0.68575  -0.68144  -0.40557  -0.40477  -0.24948
 Alpha  occ. eigenvalues --   -0.23807
 Alpha virt. eigenvalues --   -0.17307  -0.16054   0.01881   0.03044   0.03715
 Alpha virt. eigenvalues --    0.04446   0.05549   0.06031   0.06388   0.07441
 Alpha virt. eigenvalues --    0.08226   0.11378   0.28662   0.28895   0.30648

  Beta  occ. eigenvalues --  -78.08290 -78.08290  -6.90353  -6.90353  -5.01761
  Beta  occ. eigenvalues --   -5.01761  -5.01744  -5.01744  -5.01568  -5.01568
  Beta  occ. eigenvalues --   -0.68575  -0.68144  -0.40557  -0.40477  -0.24948
  Beta  occ. eigenvalues --   -0.23807
  Beta virt. eigenvalues --   -0.17307  -0.16054   0.01881   0.03044   0.03715
  Beta virt. eigenvalues --    0.04446   0.05549   0.06031   0.06388   0.07441
  Beta virt. eigenvalues --    0.08226   0.11378   0.28662   0.28895   0.30648

 Mulliken charges and spin densities:
               1          2
     1  P    0.011843   0.000000
     2  P    0.011844  -0.000000
     3  H   -0.011844  -0.000000
     4  H   -0.011844   0.000000
 Sum of Mulliken charges =  -0.00000  -0.00000

 Dipole moment (field-independent basis, Debye):
    X=              0.0000    Y=              0.0000    Z=             -0.0000  Tot=              0.0000
 Quadrupole moment (field-independent basis, Debye-Ang):
   XX=            -27.1805   YY=            -28.5126   ZZ=            -30.7638
   XY=              3.4208   XZ=             -0.0001   YZ=             -0.0000

 Normal termination of Gaussian 16 at Mon Apr 21 21:14:27 2025.
