 Gaussian 16, Revision A.03,
 Gaussian 16:  ES64L-G16RevA.03 25-Dec-2016

 --------------------------------------------
 #p opt UM062X/6-311+G** nosymm int=superfine
 --------------------------------------------

 -------------------
 Title Card Required
 -------------------
 Symbolic Z-matrix:
 Charge = -1 Multiplicity = 2

 SCF Done:  E(UM062X) =  -53.2261686449     A.U. after   11 cycles
 SCF Done:  E(UM062X) =  -53.2271815774     A.U. after   10 cycles
 SCF Done:  E(UM062X) =  -53.2273849170     A.U. after   10 cycles
 Optimization completed.
    -- Stationary point found.

                          Input orientation:
 ---------------------------------------------------------------------
 Center     Atomic      Atomic             Coordinates (Angstroms)
 Number     Number       Type             X           Y           Z
 ---------------------------------------------------------------------
      1          5           0       -1.390672    0.000000    0.000000
      2          5           0        1.390672    0.000000    0.000000
      3          1           0        1.529200   -1.193103   -0.000008
      4          1           0       -1.529146   -0.596549    1.033262
      5          1           0        1.529295    0.596563   -1.033236
      6          1           0        1.529105    0.596536    1.033276
      7          1           0       -1.529207    1.193102    0.000005
      8          1           0       -1.529246   -0.596551   -1.033249
 ---------------------------------------------------------------------

 Alpha  occ. eigenvalues --   -6.81964  -6.81961  -0.39258  -0.36201  -0.20370
 Alpha  occ. eigenvalues --   -0.20370  -0.18610  -0.18610  -0.01136
 Alpha virt. eigenvalues --    0.15650   0.17232   0.17587   0.17587   0.19101
 Alpha virt. eigenvalues --    0.19101   0.21647   0.22988   0.24218   0.32992
 Alpha virt. eigenvalues --    0.32992   0.36900   0.36900   0.39007   0.40803

  Beta  occ. eigenvalues --   -6.81905  -6.81904  -0.36816  -0.34665  -0.19945
  Beta  occ. eigenvalues --   -0.19945  -0.18406  -0.18406
  Beta virt. eigenvalues --    0.13699   0.14917   0.17139   0.17139   0.17604
  Beta virt. eigenvalues --    0.18627   0.18627   0.24057   0.24078   0.30086
  Beta virt. eigenvalues --    0.32798   0.32798   0.37041   0.37041   0.39498

 Mulliken charges and spin densities:
               1          2
     1  B   -0.281409   0.604456
     2  B   -0.281409   0.604456
     3  H   -0.072861  -0.034814
     4  H   -0.072862  -0.034819
     5  H   -0.072871  -0.034822
     6  H   -0.072859  -0.034819
     7  H   -0.072861  -0.034814
     8  H   -0.072868  -0.034822
 Sum of Mulliken charges =  -1.00000   1.00000

 Dipole moment (field-independent basis, Debye):
    X=              0.0000    Y=             -0.0000    Z=              0.0000  Tot=              0.0000
 Quadrupole moment (field-independent basis, Debye-Ang):
   XX=            -34.6016   YY=            -24.0473   ZZ=            -24.0473
   XY=             -0.0000   XZ=              0.0000   YZ=              0.0000

 Normal termination of Gaussian 16 at Mon Apr 21 16:52:43 2025.
