 Gaussian 16, Revision A.03,
 Gaussian 16:  ES64L-G16RevA.03 25-Dec-2016

 --------------------------------------------
 #p opt UM062X/6-311+G** nosymm int=superfine
 --------------------------------------------

 -------------------
 Title Card Required
 -------------------
 Symbolic Z-matrix:
 Charge =  0 Multiplicity = 1

 SCF Done:  E(UM062X) =  -381.178902851     A.U. after   11 cycles
 SCF Done:  E(UM062X) =  -381.179210496     A.U. after    9 cycles
 SCF Done:  E(UM062X) =  -381.179253626     A.U. after    9 cycles
 SCF Done:  E(UM062X) =  -381.179145002     A.U. after   10 cycles
 SCF Done:  E(UM062X) =  -381.179256228     A.U. after    9 cycles
 SCF Done:  E(UM062X) =  -381.179261388     A.U. after    9 cycles
 SCF Done:  E(UM062X) =  -381.179263301     A.U. after    8 cycles
 Optimization completed.
    -- Stationary point found.

                          Input orientation:
 ---------------------------------------------------------------------
 Center     Atomic      Atomic             Coordinates (Angstroms)
 Number     Number       Type             X           Y           Z
 ---------------------------------------------------------------------
      1          6           0       -0.905452    0.000000    0.000000
      2         15           0        0.905452    0.000000    0.000000
      3          1           0       -1.491676   -0.910948    0.000627
      4          1           0        1.023219   -1.415513    0.001038
      5          1           0       -1.431100    0.947686   -0.000712
 ---------------------------------------------------------------------

 Alpha  occ. eigenvalues --  -78.03473 -10.58019  -6.85830  -4.97368  -4.97319
 Alpha  occ. eigenvalues --   -4.97108  -0.80070  -0.64635  -0.51440  -0.42830
 Alpha  occ. eigenvalues --   -0.34500  -0.30815
 Alpha virt. eigenvalues --   -0.05276   0.01070   0.02915   0.04152   0.04974
 Alpha virt. eigenvalues --    0.06156   0.07856   0.09579   0.10945   0.14412
 Alpha virt. eigenvalues --    0.15510   0.19479   0.21326   0.30825   0.32904

  Beta  occ. eigenvalues --  -78.03473 -10.58019  -6.85830  -4.97368  -4.97319
  Beta  occ. eigenvalues --   -4.97108  -0.80070  -0.64635  -0.51440  -0.42830
  Beta  occ. eigenvalues --   -0.34500  -0.30815
  Beta virt. eigenvalues --   -0.05276   0.01070   0.02915   0.04152   0.04974
  Beta virt. eigenvalues --    0.06156   0.07856   0.09579   0.10945   0.14412
  Beta virt. eigenvalues --    0.15510   0.19479   0.21326   0.30825   0.32904

 Mulliken charges and spin densities:
               1          2
     1  C   -0.441591  -0.000000
     2  P    0.110117   0.000000
     3  H    0.183371   0.000000
     4  H   -0.035627   0.000000
     5  H    0.183731   0.000000
 Sum of Mulliken charges =  -0.00000   0.00000

 Dipole moment (field-independent basis, Debye):
    X=             -0.6467    Y=             -0.5763    Z=              0.0004  Tot=              0.8662
 Quadrupole moment (field-independent basis, Debye-Ang):
   XX=            -19.8871   YY=            -19.9174   ZZ=            -22.6236
   XY=             -1.1765   XZ=              0.0009   YZ=             -0.0020

 Normal termination of Gaussian 16 at Mon Apr 21 19:11:33 2025.
