 Gaussian 16, Revision A.03,
 Gaussian 16:  ES64L-G16RevA.03 25-Dec-2016

 --------------------------------------------
 #p opt UM062X/6-311+G** nosymm int=superfine
 --------------------------------------------

 -------------------
 Title Card Required
 -------------------
 Symbolic Z-matrix:
 Charge =  0 Multiplicity = 1

 SCF Done:  E(UM062X) =  -382.403404448     A.U. after   11 cycles
 SCF Done:  E(UM062X) =  -382.405029517     A.U. after   10 cycles
 SCF Done:  E(UM062X) =  -382.405206471     A.U. after    9 cycles
 SCF Done:  E(UM062X) =  -382.405210284     A.U. after    8 cycles
 SCF Done:  E(UM062X) =  -382.405210528     A.U. after    7 cycles
 Optimization completed.
    -- Stationary point found.

                          Input orientation:
 ---------------------------------------------------------------------
 Center     Atomic      Atomic             Coordinates (Angstroms)
 Number     Number       Type             X           Y           Z
 ---------------------------------------------------------------------
      1          6           0       -1.081264    0.000000    0.000000
      2         15           0        1.081264    0.000000    0.000000
      3          1           0        1.173110   -1.413852    0.015754
      4          1           0       -1.382111    1.020720    0.217835
      5          1           0        1.173183    0.094228    1.410784
      6          1           0       -1.382112   -0.296887   -1.000586
      7          1           0       -1.424526   -0.699090    0.755998
 ---------------------------------------------------------------------

 Alpha  occ. eigenvalues --  -78.02297 -10.55107  -6.84719  -4.96268  -4.96255
 Alpha  occ. eigenvalues --   -4.96020  -0.78993  -0.68372  -0.48407  -0.47997
 Alpha  occ. eigenvalues --   -0.42781  -0.37293  -0.31108
 Alpha virt. eigenvalues --    0.00239   0.01689   0.03961   0.04501   0.06485
 Alpha virt. eigenvalues --    0.06515   0.07240   0.07991   0.08143   0.13551
 Alpha virt. eigenvalues --    0.18050   0.18800   0.18827   0.27418   0.30243

  Beta  occ. eigenvalues --  -78.02297 -10.55107  -6.84719  -4.96268  -4.96255
  Beta  occ. eigenvalues --   -4.96020  -0.78993  -0.68372  -0.48407  -0.47997
  Beta  occ. eigenvalues --   -0.42781  -0.37293  -0.31108
  Beta virt. eigenvalues --    0.00239   0.01689   0.03961   0.04501   0.06485
  Beta virt. eigenvalues --    0.06515   0.07240   0.07991   0.08143   0.13551
  Beta virt. eigenvalues --    0.18050   0.18800   0.18827   0.27418   0.30243

 Mulliken charges and spin densities:
               1          2
     1  C   -0.572108  -0.000000
     2  P    0.012001   0.000000
     3  H    0.011158  -0.000000
     4  H    0.178948   0.000000
     5  H    0.011158  -0.000000
     6  H    0.178948  -0.000000
     7  H    0.179896  -0.000000
 Sum of Mulliken charges =  -0.00000   0.00000

 Dipole moment (field-independent basis, Debye):
    X=             -0.6910    Y=             -0.4967    Z=              0.5369  Tot=              1.0062
 Quadrupole moment (field-independent basis, Debye-Ang):
   XX=            -23.2271   YY=            -22.0158   ZZ=            -22.1329
   XY=             -1.1090   XZ=              1.1990   YZ=              0.7504

 Normal termination of Gaussian 16 at Mon Apr 21 19:03:39 2025.
