 Gaussian 16, Revision A.03,
 Gaussian 16:  ES64L-G16RevA.03 25-Dec-2016

 ---------------------------------------------------
 #p UM062X/6-311+G** force int=superfine pop=saveNBO
 ---------------------------------------------------

 -------------------
 Title Card Required
 -------------------
 Symbolic Z-matrix:
 Charge =  0 Multiplicity = 1

                         Standard orientation:
 ---------------------------------------------------------------------
 Center     Atomic      Atomic             Coordinates (Angstroms)
 Number     Number       Type             X           Y           Z
 ---------------------------------------------------------------------
      1          6           0        0.000000    0.000000   -0.496134
      2          7           0        0.000000    0.000000    0.648655
      3          1           0        0.000000    0.000000   -1.563777
 ---------------------------------------------------------------------

 SCF Done:  E(UM062X) =  -93.4144428973     A.U. after    9 cycles

 The electronic state is 1-SG.
 Alpha  occ. eigenvalues --  -14.77836 -10.59508  -1.03983  -0.68874  -0.46730
 Alpha  occ. eigenvalues --   -0.43712  -0.43712
 Alpha virt. eigenvalues --    0.01749   0.03012   0.03012   0.03909   0.08605
 Alpha virt. eigenvalues --    0.08605   0.13285   0.19555   0.19708   0.19708
 Alpha virt. eigenvalues --    0.25969   0.41683   0.56164   0.56164   0.59968

  Beta  occ. eigenvalues --  -14.77836 -10.59508  -1.03983  -0.68874  -0.46730
  Beta  occ. eigenvalues --   -0.43712  -0.43712
  Beta virt. eigenvalues --    0.01749   0.03012   0.03012   0.03909   0.08605
  Beta virt. eigenvalues --    0.08605   0.13285   0.19555   0.19708   0.19708
  Beta virt. eigenvalues --    0.25969   0.41683   0.56164   0.56164   0.59968

 Mulliken charges and spin densities:
               1          2
     1  C    0.047158  -0.000000
     2  N   -0.256182   0.000000
     3  H    0.209024  -0.000000
 Sum of Mulliken charges =   0.00000  -0.00000

 Dipole moment (field-independent basis, Debye):
    X=              0.0000    Y=              0.0000    Z=             -3.0738  Tot=              3.0738
 Quadrupole moment (field-independent basis, Debye-Ang):
   XX=            -11.8213   YY=            -11.8213   ZZ=             -9.8086
   XY=              0.0000   XZ=              0.0000   YZ=              0.0000

 Summary of Natural Population Analysis:

                                       Natural Population
                Natural  -----------------------------------------------
    Atom  No    Charge         Core      Valence    Rydberg      Total
 -----------------------------------------------------------------------
      C    1    0.04067      0.99970     1.94459    0.01504     2.95933
      N    2   -0.15323      0.99983     2.64285    0.01055     3.65323
      H    3    0.11257      0.00000     0.38685    0.00058     0.38743
 =======================================================================
   * Total *   -0.00000      1.99953     4.97429    0.02618     7.00000

 Optimization completed.
    -- Stationary point found.

 1\1\GINC-NODE01\Force\UM062X\6-311+G(d,p)\C1H1N1\SZHAO\16-Apr-2025\0\\
 #p UM062X/6-311+G** force int=superfine pop=saveNBO\\Title Card Requir
 ed\\0,1\C,-0.5723945,0.,0.\N,0.5723945,0.,0.\H,-1.6400375,0.,0.\\Versi
 on=ES64L-G16RevA.03\State=1-SG\HF=-93.4144429\S2=0.\S2-1=0.\S2A=0.\RMS
 D=6.727e-09\RMSF=3.250e-05\Dipole=-1.2093189,0.,0.\Quadrupole=0.997599
 9,-0.4988,-0.4988,0.,0.,0.\PG=C*V [C*(H1C1N1)]\\@

 Normal termination of Gaussian 16 at Wed Apr 16 02:25:55 2025.
