 Gaussian 16, Revision A.03,
 Gaussian 16:  ES64L-G16RevA.03 25-Dec-2016

 --------------------------------------------
 #p opt UM062X/6-311+G** nosymm int=superfine
 --------------------------------------------

 -------------------
 Title Card Required
 -------------------
 Symbolic Z-matrix:
 Charge =  0 Multiplicity = 1

 SCF Done:  E(UM062X) =  -579.873723756     A.U. after   10 cycles
 SCF Done:  E(UM062X) =  -579.876398784     A.U. after   10 cycles
 SCF Done:  E(UM062X) =  -579.876402779     A.U. after    9 cycles
 Optimization completed.
    -- Stationary point found.

                          Input orientation:
 ---------------------------------------------------------------------
 Center     Atomic      Atomic             Coordinates (Angstroms)
 Number     Number       Type             X           Y           Z
 ---------------------------------------------------------------------
      1         14           0       -2.428705    0.000000    0.000000
      2         14           0        2.428705    0.000000    0.000000
      3          1           0       -3.952180   -0.000028    0.000000
      4          1           0        3.952180    0.000039   -0.000000
 ---------------------------------------------------------------------

 Alpha  occ. eigenvalues --  -67.04495 -67.04495  -5.58933  -5.58932  -3.90049
 Alpha  occ. eigenvalues --   -3.90048  -3.89593  -3.89593  -3.89452  -3.89452
 Alpha  occ. eigenvalues --   -0.54933  -0.54786  -0.33172  -0.32104  -0.17373
 Alpha virt. eigenvalues --   -0.11293  -0.08976  -0.08466   0.02265   0.02933
 Alpha virt. eigenvalues --    0.04433   0.05533   0.05588   0.05889   0.06892
 Alpha virt. eigenvalues --    0.07018   0.08139   0.14469   0.28136   0.29895

  Beta  occ. eigenvalues --  -67.04495 -67.04495  -5.58933  -5.58932  -3.90049
  Beta  occ. eigenvalues --   -3.90048  -3.89593  -3.89593  -3.89452  -3.89452
  Beta  occ. eigenvalues --   -0.54933  -0.54786  -0.33172  -0.32104  -0.17373
  Beta virt. eigenvalues --   -0.11293  -0.08976  -0.08466   0.02265   0.02933
  Beta virt. eigenvalues --    0.04433   0.05533   0.05588   0.05889   0.06892
  Beta virt. eigenvalues --    0.07018   0.08139   0.14469   0.28136   0.29895

 Mulliken charges and spin densities:
               1          2
     1  Si   0.153239   0.000000
     2  Si   0.153239  -0.000000
     3  H   -0.153239  -0.000000
     4  H   -0.153239   0.000000
 Sum of Mulliken charges =  -0.00000  -0.00000

 Dipole moment (field-independent basis, Debye):
    X=              0.0000    Y=              0.0000    Z=             -0.0000  Tot=              0.0000
 Quadrupole moment (field-independent basis, Debye-Ang):
   XX=            -30.3126   YY=            -24.2363   ZZ=            -35.5869
   XY=             -0.0002   XZ=              0.0000   YZ=             -0.0001

 Normal termination of Gaussian 16 at Mon Apr 21 21:21:24 2025.
