 Gaussian 16, Revision A.03,
 Gaussian 16:  ES64L-G16RevA.03 25-Dec-2016

 --------------------------------------------
 #p opt UM062X/6-311+G** nosymm int=superfine
 --------------------------------------------

 -------------------
 Title Card Required
 -------------------
 Symbolic Z-matrix:
 Charge =  0 Multiplicity = 1

 SCF Done:  E(UM062X) =  -80.3958159955     A.U. after   23 cycles
 SCF Done:  E(UM062X) =  -80.4135792020     A.U. after   14 cycles
 SCF Done:  E(UM062X) =  -80.4293085555     A.U. after   14 cycles
 SCF Done:  E(UM062X) =  -80.4435750250     A.U. after   17 cycles
 SCF Done:  E(UM062X) =  -80.4566125681     A.U. after   18 cycles
 SCF Done:  E(UM062X) =  -80.4507627109     A.U. after   18 cycles
 SCF Done:  E(UM062X) =  -80.4583293997     A.U. after   17 cycles
 SCF Done:  E(UM062X) =  -80.4605367827     A.U. after   18 cycles
 SCF Done:  E(UM062X) =  -80.4638438887     A.U. after   18 cycles
 SCF Done:  E(UM062X) =  -80.4697244433     A.U. after   17 cycles
 SCF Done:  E(UM062X) =  -80.4702881030     A.U. after   15 cycles
 SCF Done:  E(UM062X) =  -80.4705000559     A.U. after   20 cycles
 SCF Done:  E(UM062X) =  -80.4705552426     A.U. after   14 cycles
 SCF Done:  E(UM062X) =  -80.4705660010     A.U. after   16 cycles
 SCF Done:  E(UM062X) =  -80.4705668545     A.U. after   12 cycles
 Optimization completed.
    -- Stationary point found.

                          Input orientation:
 ---------------------------------------------------------------------
 Center     Atomic      Atomic             Coordinates (Angstroms)
 Number     Number       Type             X           Y           Z
 ---------------------------------------------------------------------
      1          5           0       -1.217066    0.000000    0.000000
      2          7           0        1.217066    0.000000    0.000000
      3          1           0       -2.383338   -0.301408    0.006567
      4          1           0        1.213158    1.036196   -0.022773
 ---------------------------------------------------------------------

 Alpha  occ. eigenvalues --  -14.76956  -7.20246  -0.83948  -0.60554  -0.40780
 Alpha  occ. eigenvalues --   -0.33871  -0.27407
 Alpha virt. eigenvalues --   -0.08804  -0.07872  -0.04684   0.00674   0.04034
 Alpha virt. eigenvalues --    0.04859   0.05174   0.12725   0.16267   0.18206
 Alpha virt. eigenvalues --    0.19466   0.21362   0.26127   0.35355   0.38545

  Beta  occ. eigenvalues --  -14.76956  -7.20246  -0.83948  -0.60554  -0.40780
  Beta  occ. eigenvalues --   -0.33871  -0.27407
  Beta virt. eigenvalues --   -0.08804  -0.07872  -0.04684   0.00674   0.04034
  Beta virt. eigenvalues --    0.04859   0.05174   0.12725   0.16267   0.18206
  Beta virt. eigenvalues --    0.19466   0.21362   0.26127   0.35355   0.38545

 Mulliken charges and spin densities:
               1          2
     1  B    0.118192   0.000000
     2  N   -0.345121  -0.000000
     3  H    0.056105   0.000000
     4  H    0.170824   0.000000
 Sum of Mulliken charges =  -0.00000  -0.00000

 Dipole moment (field-independent basis, Debye):
    X=             -4.3636    Y=              1.0690    Z=             -0.0236  Tot=              4.4927
 Quadrupole moment (field-independent basis, Debye-Ang):
   XX=            -10.2391   YY=            -12.4254   ZZ=            -15.3415
   XY=              2.1495   XZ=             -0.0473   YZ=             -0.0641

 Normal termination of Gaussian 16 at Mon Apr 21 21:07:55 2025.
