 Gaussian 16, Revision A.03,
 Gaussian 16:  ES64L-G16RevA.03 25-Dec-2016

 --------------------------------------------
 #p opt UM062X/6-311+G** nosymm int=superfine
 --------------------------------------------

 -------------------
 Title Card Required
 -------------------
 Symbolic Z-matrix:
 Charge =  0 Multiplicity = 1

 SCF Done:  E(UM062X) =  -582.452833455     A.U. after    9 cycles
 SCF Done:  E(UM062X) =  -582.453993646     A.U. after    8 cycles
 SCF Done:  E(UM062X) =  -582.454180242     A.U. after    8 cycles
 Optimization completed.
    -- Stationary point found.

                          Input orientation:
 ---------------------------------------------------------------------
 Center     Atomic      Atomic             Coordinates (Angstroms)
 Number     Number       Type             X           Y           Z
 ---------------------------------------------------------------------
      1         14           0       -1.669819    0.000000    0.000000
      2         14           0        1.669819    0.000000    0.000000
      3          1           0        2.114752   -1.408016   -0.000057
      4          1           0       -2.114795   -0.703864    1.219458
      5          1           0        2.114889    0.704035   -1.219325
      6          1           0        2.114801    0.703916    1.219426
      7          1           0       -2.114755    1.408015   -0.000116
      8          1           0       -2.114892   -0.704088   -1.219292
 ---------------------------------------------------------------------

 Alpha  occ. eigenvalues --  -67.01124 -67.01124  -5.55955  -5.55955  -3.87156
 Alpha  occ. eigenvalues --   -3.87155  -3.87001  -3.87001  -3.87001  -3.87001
 Alpha  occ. eigenvalues --   -0.61219  -0.59797  -0.41625  -0.41625  -0.41115
 Alpha  occ. eigenvalues --   -0.41115  -0.26518
 Alpha virt. eigenvalues --   -0.04999   0.02153   0.02934   0.02934   0.03881
 Alpha virt. eigenvalues --    0.04927   0.05462   0.05462   0.06871   0.06871
 Alpha virt. eigenvalues --    0.07702   0.09136   0.09137   0.14576   0.17094

  Beta  occ. eigenvalues --  -67.01124 -67.01124  -5.55955  -5.55955  -3.87156
  Beta  occ. eigenvalues --   -3.87155  -3.87001  -3.87001  -3.87001  -3.87001
  Beta  occ. eigenvalues --   -0.61219  -0.59797  -0.41625  -0.41625  -0.41115
  Beta  occ. eigenvalues --   -0.41115  -0.26518
  Beta virt. eigenvalues --   -0.04999   0.02153   0.02934   0.02934   0.03881
  Beta virt. eigenvalues --    0.04927   0.05462   0.05462   0.06871   0.06871
  Beta virt. eigenvalues --    0.07702   0.09136   0.09137   0.14576   0.17094

 Mulliken charges and spin densities:
               1          2
     1  Si   0.287697   0.000000
     2  Si   0.287697  -0.000000
     3  H   -0.095900   0.000000
     4  H   -0.095898  -0.000000
     5  H   -0.095898  -0.000000
     6  H   -0.095898  -0.000000
     7  H   -0.095900  -0.000000
     8  H   -0.095898  -0.000000
 Sum of Mulliken charges =  -0.00000  -0.00000

 Dipole moment (field-independent basis, Debye):
    X=             -0.0000    Y=              0.0000    Z=             -0.0000  Tot=              0.0000
 Quadrupole moment (field-independent basis, Debye-Ang):
   XX=            -30.2723   YY=            -31.8122   ZZ=            -31.8121
   XY=              0.0002   XZ=              0.0000   YZ=              0.0000

 Normal termination of Gaussian 16 at Mon Apr 21 20:18:56 2025.
