 Gaussian 16, Revision A.03,
 Gaussian 16:  ES64L-G16RevA.03 25-Dec-2016

 --------------------------------------------
 #p opt UM062X/6-311+G** nosymm int=superfine
 --------------------------------------------

 -------------------
 Title Card Required
 -------------------
 Symbolic Z-matrix:
 Charge =  0 Multiplicity = 1

 SCF Done:  E(UM062X) =  -115.537543266     A.U. after   12 cycles
 SCF Done:  E(UM062X) =  -115.552347432     A.U. after   11 cycles
 SCF Done:  E(UM062X) =  -115.558253498     A.U. after   11 cycles
 SCF Done:  E(UM062X) =  -115.558311436     A.U. after    9 cycles
 SCF Done:  E(UM062X) =  -115.558336693     A.U. after    9 cycles
 SCF Done:  E(UM062X) =  -115.558338550     A.U. after    9 cycles
 SCF Done:  E(UM062X) =  -115.558339375     A.U. after    8 cycles
 SCF Done:  E(UM062X) =  -115.558339504     A.U. after    7 cycles
 Optimization completed.
    -- Stationary point found.

                          Input orientation:
 ---------------------------------------------------------------------
 Center     Atomic      Atomic             Coordinates (Angstroms)
 Number     Number       Type             X           Y           Z
 ---------------------------------------------------------------------
      1          6           0       -1.232203    0.000000    0.000000
      2          8           0        1.232203    0.000000    0.000000
      3          1           0        1.297606   -0.963159    0.000228
      4          1           0       -1.365821   -0.526490    0.934440
      5          1           0       -1.267492    1.079692   -0.000784
      6          1           0       -1.365886   -0.527850   -0.933664
 ---------------------------------------------------------------------

 Alpha  occ. eigenvalues --  -19.60338 -10.64819  -1.02692  -0.82417  -0.54441
 Alpha  occ. eigenvalues --   -0.54217  -0.46953  -0.33920  -0.33315
 Alpha virt. eigenvalues --   -0.10053   0.00927   0.04392   0.04884   0.06568
 Alpha virt. eigenvalues --    0.14530   0.16409   0.16639   0.20221   0.22886
 Alpha virt. eigenvalues --    0.23139   0.24408   0.32650   0.40381   0.41076

  Beta  occ. eigenvalues --  -19.60338 -10.64819  -1.02692  -0.82417  -0.54441
  Beta  occ. eigenvalues --   -0.54217  -0.46953  -0.33920  -0.33315
  Beta virt. eigenvalues --   -0.10053   0.00927   0.04392   0.04884   0.06568
  Beta virt. eigenvalues --    0.14530   0.16409   0.16639   0.20221   0.22886
  Beta virt. eigenvalues --    0.23139   0.24408   0.32650   0.40381   0.41076

 Mulliken charges and spin densities:
               1          2
     1  C   -0.296710   0.000000
     2  O   -0.538272  -0.000000
     3  H    0.219368   0.000000
     4  H    0.199447  -0.000000
     5  H    0.216736  -0.000000
     6  H    0.199430  -0.000000
 Sum of Mulliken charges =  -0.00000   0.00000

 Dipole moment (field-independent basis, Debye):
    X=             -4.1391    Y=             -1.5404    Z=              0.0004  Tot=              4.4165
 Quadrupole moment (field-independent basis, Debye-Ang):
   XX=            -13.3210   YY=            -11.4046   ZZ=            -13.8217
   XY=             -2.2660   XZ=              0.0005   YZ=             -0.0006

 Normal termination of Gaussian 16 at Mon Apr 21 18:42:51 2025.
