 Gaussian 16, Revision A.03,
 Gaussian 16:  ES64L-G16RevA.03 25-Dec-2016

 --------------------------------------------
 #p opt UM062X/6-311+G** nosymm int=superfine
 --------------------------------------------

 -------------------
 Title Card Required
 -------------------
 Symbolic Z-matrix:
 Charge =  0 Multiplicity = 1

 SCF Done:  E(UM062X) =  -438.593538572     A.U. after   11 cycles
 SCF Done:  E(UM062X) =  -438.601358231     A.U. after   10 cycles
 SCF Done:  E(UM062X) =  -438.603153448     A.U. after   10 cycles
 SCF Done:  E(UM062X) =  -438.603164109     A.U. after    8 cycles
 SCF Done:  E(UM062X) =  -438.603168342     A.U. after    8 cycles
 SCF Done:  E(UM062X) =  -438.603168533     A.U. after    7 cycles
 Optimization completed.
    -- Stationary point found.

                          Input orientation:
 ---------------------------------------------------------------------
 Center     Atomic      Atomic             Coordinates (Angstroms)
 Number     Number       Type             X           Y           Z
 ---------------------------------------------------------------------
      1          6           0       -1.285220    0.000000    0.000000
      2         16           0        1.285220    0.000000    0.000000
      3          1           0        1.285187   -1.343485   -0.001217
      4          1           0       -1.436049    1.070604    0.002585
      5          1           0       -1.464309   -0.524201   -0.928333
      6          1           0       -1.464343   -0.528641    0.925809
 ---------------------------------------------------------------------

 Alpha  occ. eigenvalues --  -89.89265 -10.61432  -8.25501  -6.17578  -6.17462
 Alpha  occ. eigenvalues --   -6.16943  -0.81446  -0.76305  -0.52054  -0.52004
 Alpha  occ. eigenvalues --   -0.43526  -0.33170  -0.29381
 Alpha virt. eigenvalues --   -0.07219   0.01980   0.04385   0.05251   0.05625
 Alpha virt. eigenvalues --    0.07553   0.07764   0.08565   0.11362   0.13560
 Alpha virt. eigenvalues --    0.17360   0.18132   0.23541   0.32823   0.36067

  Beta  occ. eigenvalues --  -89.89265 -10.61432  -8.25501  -6.17578  -6.17462
  Beta  occ. eigenvalues --   -6.16943  -0.81446  -0.76305  -0.52054  -0.52004
  Beta  occ. eigenvalues --   -0.43526  -0.33170  -0.29381
  Beta virt. eigenvalues --   -0.07219   0.01980   0.04385   0.05251   0.05625
  Beta virt. eigenvalues --    0.07553   0.07764   0.08565   0.11362   0.13560
  Beta virt. eigenvalues --    0.17360   0.18132   0.23541   0.32823   0.36067

 Mulliken charges and spin densities:
               1          2
     1  C   -0.495995   0.000000
     2  S   -0.174273   0.000000
     3  H    0.061528  -0.000000
     4  H    0.202669  -0.000000
     5  H    0.203059  -0.000000
     6  H    0.203013  -0.000000
 Sum of Mulliken charges =  -0.00000  -0.00000

 Dipole moment (field-independent basis, Debye):
    X=             -2.6323    Y=             -0.9285    Z=             -0.0008  Tot=              2.7912
 Quadrupole moment (field-independent basis, Debye-Ang):
   XX=            -20.9841   YY=            -19.3523   ZZ=            -23.3403
   XY=             -1.5144   XZ=             -0.0014   YZ=              0.0036

 Normal termination of Gaussian 16 at Mon Apr 21 19:34:18 2025.
