 Gaussian 16, Revision A.03,
 Gaussian 16:  ES64L-G16RevA.03 25-Dec-2016

 --------------------------------------------
 #p opt UM062X/6-311+G** nosymm int=superfine
 --------------------------------------------

 -------------------
 Title Card Required
 -------------------
 Symbolic Z-matrix:
 Charge =  0 Multiplicity = 1

 SCF Done:  E(UM062X) =  -581.138883563     A.U. after    9 cycles
 SCF Done:  E(UM062X) =  -581.159084867     A.U. after    8 cycles
 SCF Done:  E(UM062X) =  -581.171861212     A.U. after    8 cycles
 SCF Done:  E(UM062X) =  -581.171881278     A.U. after    8 cycles
 Optimization completed.
    -- Stationary point found.

                          Input orientation:
 ---------------------------------------------------------------------
 Center     Atomic      Atomic             Coordinates (Angstroms)
 Number     Number       Type             X           Y           Z
 ---------------------------------------------------------------------
      1         14           0       -2.012518    0.000000    0.000000
      2         14           0        2.012518    0.000000    0.000000
      3          1           0       -3.081038   -1.081569    0.000244
      4          1           0        3.081038    1.081569   -0.000339
      5          1           0       -3.081044    1.081564    0.000483
      6          1           0        3.081044   -1.081564    0.001066
 ---------------------------------------------------------------------

 Alpha  occ. eigenvalues --  -67.01045 -67.01045  -5.55781  -5.55780  -3.87017
 Alpha  occ. eigenvalues --   -3.87017  -3.86479  -3.86478  -3.86346  -3.86346
 Alpha  occ. eigenvalues --   -0.57148  -0.56912  -0.37601  -0.37511  -0.30116
 Alpha  occ. eigenvalues --   -0.26029
 Alpha virt. eigenvalues --   -0.08465  -0.07163   0.02099   0.02175   0.03186
 Alpha virt. eigenvalues --    0.04566   0.05894   0.06166   0.06377   0.06482
 Alpha virt. eigenvalues --    0.09321   0.09429   0.11753   0.14213   0.28798

  Beta  occ. eigenvalues --  -67.01045 -67.01045  -5.55781  -5.55780  -3.87017
  Beta  occ. eigenvalues --   -3.87017  -3.86479  -3.86478  -3.86346  -3.86346
  Beta  occ. eigenvalues --   -0.57148  -0.56912  -0.37601  -0.37511  -0.30116
  Beta  occ. eigenvalues --   -0.26029
  Beta virt. eigenvalues --   -0.08465  -0.07163   0.02099   0.02175   0.03186
  Beta virt. eigenvalues --    0.04566   0.05894   0.06166   0.06377   0.06482
  Beta virt. eigenvalues --    0.09321   0.09429   0.11753   0.14213   0.28798

 Mulliken charges and spin densities:
               1          2
     1  Si   0.319258   0.000000
     2  Si   0.319258  -0.000000
     3  H   -0.159629  -0.000000
     4  H   -0.159629   0.000000
     5  H   -0.159629  -0.000000
     6  H   -0.159629   0.000000
 Sum of Mulliken charges =  -0.00000  -0.00000

 Dipole moment (field-independent basis, Debye):
    X=              0.0000    Y=              0.0000    Z=              0.0001  Tot=              0.0001
 Quadrupole moment (field-independent basis, Debye-Ang):
   XX=            -36.9108   YY=            -32.8213   ZZ=            -24.4069
   XY=             -0.0000   XZ=              0.0000   YZ=              0.0023

 Normal termination of Gaussian 16 at Mon Apr 21 20:33:29 2025.
