 Gaussian 16, Revision A.03,
 Gaussian 16:  ES64L-G16RevA.03 25-Dec-2016

 --------------------------------------------
 #p opt UM062X/6-311+G** nosymm int=superfine
 --------------------------------------------

 -------------------
 Title Card Required
 -------------------
 Symbolic Z-matrix:
 Charge =  1 Multiplicity = 2

 SCF Done:  E(UM062X) =  -76.4759413207     A.U. after    9 cycles
 SCF Done:  E(UM062X) =  -76.5863363425     A.U. after    9 cycles
 SCF Done:  E(UM062X) =  -76.6159824746     A.U. after   10 cycles
 SCF Done:  E(UM062X) =  -76.6209942680     A.U. after    9 cycles
 SCF Done:  E(UM062X) =  -76.6209954031     A.U. after    6 cycles
 Optimization completed.
    -- Stationary point found.

                          Input orientation:
 ---------------------------------------------------------------------
 Center     Atomic      Atomic             Coordinates (Angstroms)
 Number     Number       Type             X           Y           Z
 ---------------------------------------------------------------------
      1          6           0       -0.472220    0.000000    0.000000
      2          6           0        0.472220    0.000000    0.000000
      3          1           0       -1.544002    0.000000    0.000000
      4          1           0        1.544001   -0.000000    0.000000
 ---------------------------------------------------------------------

 Alpha  occ. eigenvalues --  -10.90701 -10.88475  -1.33034  -0.94809  -0.91565
 Alpha  occ. eigenvalues --   -0.84139  -0.80513
 Alpha virt. eigenvalues --   -0.18311  -0.16652  -0.14769  -0.13679  -0.11981
 Alpha virt. eigenvalues --   -0.11595  -0.11264  -0.03124  -0.02340  -0.01821
 Alpha virt. eigenvalues --    0.02489   0.04138   0.16971   0.21472   0.25073

  Beta  occ. eigenvalues --  -10.90311 -10.88178  -1.26852  -0.93297  -0.90660
  Beta  occ. eigenvalues --   -0.77860
  Beta virt. eigenvalues --   -0.53125  -0.15646  -0.15532  -0.14613  -0.13303
  Beta virt. eigenvalues --   -0.11899  -0.11762  -0.11338  -0.01819  -0.01382
  Beta virt. eigenvalues --   -0.00748   0.02774   0.04598   0.17500   0.21853

 Mulliken charges and spin densities:
               1          2
     1  C    0.243470   0.521568
     2  C    0.243470   0.521568
     3  H    0.256530  -0.021568
     4  H    0.256530  -0.021568
 Sum of Mulliken charges =   1.00000   1.00000

 Dipole moment (field-independent basis, Debye):
    X=             -0.0000    Y=             -0.0000    Z=              0.0000  Tot=              0.0000
 Quadrupole moment (field-independent basis, Debye-Ang):
   XX=             -2.3228   YY=             -9.6647   ZZ=             -9.2428
   XY=             -0.0000   XZ=              0.0000   YZ=              0.7198

 Normal termination of Gaussian 16 at Tue Nov 19 12:48:30 2024.
