 Gaussian 16, Revision A.03,
 Gaussian 16:  ES64L-G16RevA.03 25-Dec-2016

 ---------------------------------------
 #p UM062X/6-311+G** force int=superfine
 ---------------------------------------

 -------------------
 Title Card Required
 -------------------
 Symbolic Z-matrix:
 Charge =  0 Multiplicity = 1

                         Standard orientation:
 ---------------------------------------------------------------------
 Center     Atomic      Atomic             Coordinates (Angstroms)
 Number     Number       Type             X           Y           Z
 ---------------------------------------------------------------------
      1          6           0        0.656684    0.000005   -0.000004
      2          6           0       -0.656684   -0.000006    0.000003
      3          1           0       -1.101774   -0.942612    0.343445
      4          1           0        1.101771   -0.173857    0.988052
      5          1           0       -1.101771    0.173860   -0.988051
      6          1           0       -1.101809    0.768750    0.644573
      7          1           0        1.101775    0.942614   -0.343441
      8          1           0        1.101812   -0.768751   -0.644571
 ---------------------------------------------------------------------

 SCF Done:  E(UM062X) =  -79.7638083912     A.U. after    8 cycles

 The electronic state is 1-A.
 Alpha  occ. eigenvalues --  -10.50784 -10.50667  -0.89767  -0.68782  -0.52293
 Alpha  occ. eigenvalues --   -0.52292  -0.47605  -0.37633  -0.37632
 Alpha virt. eigenvalues --    0.02128   0.04197   0.05176   0.05176   0.08740
 Alpha virt. eigenvalues --    0.08892   0.08892   0.14158   0.19299   0.19299
 Alpha virt. eigenvalues --    0.20107   0.20107   0.24082   0.27936   0.35570

  Beta  occ. eigenvalues --  -10.50784 -10.50667  -0.89767  -0.68782  -0.52293
  Beta  occ. eigenvalues --   -0.52292  -0.47605  -0.37633  -0.37632
  Beta virt. eigenvalues --    0.02128   0.04197   0.05176   0.05176   0.08740
  Beta virt. eigenvalues --    0.08892   0.08892   0.14158   0.19299   0.19299
  Beta virt. eigenvalues --    0.20107   0.20107   0.24082   0.27936   0.35570

 Mulliken charges and spin densities:
               1          2
     1  C   -0.447460  -0.000000
     2  C   -0.447460   0.000000
     3  H    0.149154  -0.000000
     4  H    0.149153   0.000000
     5  H    0.149153  -0.000000
     6  H    0.149153  -0.000000
     7  H    0.149154   0.000000
     8  H    0.149153   0.000000
 Sum of Mulliken charges =  -0.00000   0.00000

 Dipole moment (field-independent basis, Debye):
    X=             -0.0000    Y=              0.0000    Z=              0.0000  Tot=              0.0000
 Quadrupole moment (field-independent basis, Debye-Ang):
   XX=            -15.6304   YY=            -14.9620   ZZ=            -14.9622
   XY=             -0.0000   XZ=             -0.0000   YZ=             -0.0000

 Normal termination of Gaussian 16 at Tue Nov 19 12:40:23 2024.
