 Gaussian 16, Revision A.03,
 Gaussian 16:  ES64L-G16RevA.03 25-Dec-2016

 -------------------------------------------------------------------
 #p opt UM062X/6-311+G** nosymm int=superfine SCF=NoVarAcc SCF=tight
 -------------------------------------------------------------------

 -------------------
 Title Card Required
 -------------------
 Symbolic Z-matrix:
 Charge =  1 Multiplicity = 2

 SCF Done:  E(UM062X) =  -77.8745075904     A.U. after    9 cycles
 SCF Done:  E(UM062X) =  -77.8754325839     A.U. after    9 cycles
 SCF Done:  E(UM062X) =  -77.8759595055     A.U. after   13 cycles
 SCF Done:  E(UM062X) =  -77.8759625371     A.U. after   10 cycles
 Optimization completed.
    -- Stationary point found.

                          Input orientation:
 ---------------------------------------------------------------------
 Center     Atomic      Atomic             Coordinates (Angstroms)
 Number     Number       Type             X           Y           Z
 ---------------------------------------------------------------------
      1          6           0       -1.591027    0.000000    0.000000
      2          6           0        1.591027    0.000000    0.000000
      3          1           0       -1.960707   -1.021386    0.000017
      4          1           0       -1.960682    1.021396    0.000017
      5          1           0        1.960707    1.021386   -0.000016
      6          1           0        1.960682   -1.021396   -0.000016
 ---------------------------------------------------------------------

 Alpha  occ. eigenvalues --  -10.91385 -10.91382  -1.01720  -1.00779  -0.78972
 Alpha  occ. eigenvalues --   -0.78707  -0.53922  -0.49517
 Alpha virt. eigenvalues --   -0.39904  -0.37631  -0.12921  -0.10463  -0.10444
 Alpha virt. eigenvalues --   -0.07506  -0.07401  -0.06039  -0.04882  -0.04391
 Alpha virt. eigenvalues --   -0.02984   0.01568   0.02189   0.09350   0.22590

  Beta  occ. eigenvalues --  -10.91114 -10.91112  -0.98950  -0.98200  -0.78615
  Beta  occ. eigenvalues --   -0.78355  -0.51944
  Beta virt. eigenvalues --   -0.35435  -0.30936  -0.29446  -0.13872  -0.10887
  Beta virt. eigenvalues --   -0.10717  -0.07369  -0.07309  -0.06004  -0.04456
  Beta virt. eigenvalues --   -0.03880  -0.03358  -0.00187   0.02341   0.10223

 Mulliken charges and spin densities:
               1          2
     1  C   -0.060076   0.540632
     2  C   -0.060077   0.540640
     3  H    0.280038  -0.020318
     4  H    0.280038  -0.020318
     5  H    0.280038  -0.020318
     6  H    0.280038  -0.020318
 Sum of Mulliken charges =   1.00000   1.00000

 Dipole moment (field-independent basis, Debye):
    X=             -0.0000    Y=              0.0000    Z=              0.0000  Tot=              0.0000
 Quadrupole moment (field-independent basis, Debye-Ang):
   XX=              7.5523   YY=             -7.7181   ZZ=            -13.0381
   XY=              0.0000   XZ=             -0.0001   YZ=              0.0000

 Normal termination of Gaussian 16 at Tue Dec  3 14:44:21 2024.
