 Gaussian 16, Revision A.03,
 Gaussian 16:  ES64L-G16RevA.03 25-Dec-2016

 --------------------------------------------
 #p opt UM062X/6-311+G** nosymm int=superfine
 --------------------------------------------

 -------------------
 Title Card Required
 -------------------
 Symbolic Z-matrix:
 Charge = -1 Multiplicity = 2

 SCF Done:  E(UM062X) =  -53.2092826919     A.U. after   11 cycles
 SCF Done:  E(UM062X) =  -53.2123897159     A.U. after   10 cycles
 SCF Done:  E(UM062X) =  -53.2130640716     A.U. after   10 cycles
 SCF Done:  E(UM062X) =  -53.2130658033     A.U. after    8 cycles
 Optimization completed.
    -- Stationary point found.

                          Input orientation:
 ---------------------------------------------------------------------
 Center     Atomic      Atomic             Coordinates (Angstroms)
 Number     Number       Type             X           Y           Z
 ---------------------------------------------------------------------
      1          5           0       -1.790672    0.000000    0.000000
      2          5           0        1.790672    0.000000    0.000000
      3          1           0        1.874280   -1.196365   -0.000013
      4          1           0       -1.874046   -0.598186    1.036100
      5          1           0        1.874193    0.598204   -1.036078
      6          1           0        1.873992    0.598172    1.036112
      7          1           0       -1.874287    1.196364   -0.000000
      8          1           0       -1.874133   -0.598191   -1.036090
 ---------------------------------------------------------------------

 Alpha  occ. eigenvalues --   -6.83762  -6.83761  -0.39488  -0.38501  -0.21191
 Alpha  occ. eigenvalues --   -0.21191  -0.20671  -0.20671   0.00631
 Alpha virt. eigenvalues --    0.13163   0.17081   0.17734   0.17734   0.18610
 Alpha virt. eigenvalues --    0.18610   0.20259   0.22742   0.23393   0.32930
 Alpha virt. eigenvalues --    0.32930   0.35320   0.35320   0.38092   0.39317

  Beta  occ. eigenvalues --   -6.83722  -6.83722  -0.37585  -0.36959  -0.20974
  Beta  occ. eigenvalues --   -0.20974  -0.20507  -0.20507
  Beta virt. eigenvalues --    0.12779   0.14035   0.15010   0.15891   0.15891
  Beta virt. eigenvalues --    0.18177   0.18177   0.22454   0.23055   0.26148
  Beta virt. eigenvalues --    0.32026   0.32027   0.34830   0.34831   0.37752

 Mulliken charges and spin densities:
               1          2
     1  B   -0.323049   0.578622
     2  B   -0.323049   0.578622
     3  H   -0.059001  -0.026221
     4  H   -0.058973  -0.026201
     5  H   -0.058979  -0.026200
     6  H   -0.058970  -0.026201
     7  H   -0.059001  -0.026221
     8  H   -0.058976  -0.026200
 Sum of Mulliken charges =  -1.00000   1.00000

 Dipole moment (field-independent basis, Debye):
    X=              0.0000    Y=             -0.0000    Z=              0.0001  Tot=              0.0001
 Quadrupole moment (field-independent basis, Debye-Ang):
   XX=            -39.9603   YY=            -24.2300   ZZ=            -24.2298
   XY=              0.0001   XZ=              0.0000   YZ=              0.0000

 Normal termination of Gaussian 16 at Mon Apr 21 16:54:41 2025.
