 Gaussian 16, Revision A.03,
 Gaussian 16:  ES64L-G16RevA.03 25-Dec-2016

 --------------------------------------------
 #p opt UM062X/6-311+G** nosymm int=superfine
 --------------------------------------------

 -------------------
 Title Card Required
 -------------------
 Symbolic Z-matrix:
 Charge =  0 Multiplicity = 1

 SCF Done:  E(UM062X) =  -76.8515664239     A.U. after   15 cycles
 SCF Done:  E(UM062X) =  -76.8518328528     A.U. after   15 cycles
 SCF Done:  E(UM062X) =  -76.8525673635     A.U. after   16 cycles
 SCF Done:  E(UM062X) =  -76.8531892779     A.U. after   17 cycles
 SCF Done:  E(UM062X) =  -76.8532399141     A.U. after   17 cycles
 SCF Done:  E(UM062X) =  -76.8532561627     A.U. after   20 cycles
 SCF Done:  E(UM062X) =  -76.8532566547     A.U. after   16 cycles
 SCF Done:  E(UM062X) =  -76.8532568576     A.U. after   15 cycles
 Optimization completed.
    -- Stationary point found.

                          Input orientation:
 ---------------------------------------------------------------------
 Center     Atomic      Atomic             Coordinates (Angstroms)
 Number     Number       Type             X           Y           Z
 ---------------------------------------------------------------------
      1          6           0       -2.182625    0.000000    0.000000
      2          6           0        2.182625    0.000000    0.000000
      3          1           0       -1.979607   -0.649814    0.888044
      4          1           0        1.979645    0.650363   -0.887650
 ---------------------------------------------------------------------

 Alpha  occ. eigenvalues --  -10.67582 -10.67581  -0.73000  -0.72787  -0.39173
 Alpha  occ. eigenvalues --   -0.39096  -0.22561
 Alpha virt. eigenvalues --   -0.14257  -0.10278  -0.09886   0.03027   0.04349
 Alpha virt. eigenvalues --    0.07178   0.07233   0.09063   0.09470   0.10326
 Alpha virt. eigenvalues --    0.13654   0.17908   0.18999   0.45300   0.46189

  Beta  occ. eigenvalues --  -10.67582 -10.67581  -0.73000  -0.72787  -0.39173
  Beta  occ. eigenvalues --   -0.39096  -0.22561
  Beta virt. eigenvalues --   -0.14257  -0.10278  -0.09886   0.03027   0.04349
  Beta virt. eigenvalues --    0.07178   0.07233   0.09063   0.09470   0.10326
  Beta virt. eigenvalues --    0.13654   0.17908   0.18999   0.45300   0.46189

 Mulliken charges and spin densities:
               1          2
     1  C   -0.139101   0.000000
     2  C   -0.139105  -0.000000
     3  H    0.139103   0.000000
     4  H    0.139103  -0.000000
 Sum of Mulliken charges =   0.00000   0.00000

 Dipole moment (field-independent basis, Debye):
    X=              0.0000    Y=              0.0008    Z=              0.0006  Tot=              0.0010
 Quadrupole moment (field-independent basis, Debye-Ang):
   XX=            -17.7115   YY=            -13.0411   ZZ=            -13.8748
   XY=              4.1469   XZ=             -5.6644   YZ=              1.3162

 Normal termination of Gaussian 16 at Wed Dec  4 00:35:20 2024.
