 Gaussian 16, Revision A.03,
 Gaussian 16:  ES64L-G16RevA.03 25-Dec-2016

 --------------------------------------------
 #p opt UM062X/6-311+G** nosymm int=superfine
 --------------------------------------------

 -------------------
 Title Card Required
 -------------------
 Symbolic Z-matrix:
 Charge =  1 Multiplicity = 2

 SCF Done:  E(UM062X) =  -76.5859788686     A.U. after   12 cycles
 SCF Done:  E(UM062X) =  -76.5863935336     A.U. after   26 cycles
 Optimization completed.
    -- Stationary point found.

                          Input orientation:
 ---------------------------------------------------------------------
 Center     Atomic      Atomic             Coordinates (Angstroms)
 Number     Number       Type             X           Y           Z
 ---------------------------------------------------------------------
      1          6           0       -1.457160    0.000000    0.000000
      2          6           0        1.457160    0.000000    0.000000
      3          1           0       -2.576558    0.000000   -0.000000
      4          1           0        2.576557   -0.000000   -0.000000
 ---------------------------------------------------------------------

 Alpha  occ. eigenvalues --  -10.95306 -10.95305  -0.99222  -0.98564  -0.67236
 Alpha  occ. eigenvalues --   -0.61403  -0.50502
 Alpha virt. eigenvalues --   -0.39939  -0.34894  -0.33382  -0.12997  -0.11665
 Alpha virt. eigenvalues --   -0.08112  -0.07573  -0.05939  -0.05151  -0.04752
 Alpha virt. eigenvalues --   -0.01300   0.00867   0.05970   0.24001   0.31504

  Beta  occ. eigenvalues --  -10.94914 -10.94913  -0.96806  -0.96359  -0.65946
  Beta  occ. eigenvalues --   -0.59945
  Beta virt. eigenvalues --   -0.33200  -0.31635  -0.31471  -0.29812  -0.13567
  Beta virt. eigenvalues --   -0.11591  -0.07660  -0.06939  -0.06767  -0.04455
  Beta virt. eigenvalues --   -0.03544  -0.02033   0.02597   0.07238   0.23203

 Mulliken charges and spin densities:
               1          2
     1  C    0.252529   0.516131
     2  C    0.252529   0.516131
     3  H    0.247471  -0.016131
     4  H    0.247471  -0.016131
 Sum of Mulliken charges =   1.00000   1.00000

 Dipole moment (field-independent basis, Debye):
    X=             -0.0000    Y=              0.0000    Z=             -0.0000  Tot=              0.0000
 Quadrupole moment (field-independent basis, Debye-Ang):
   XX=             11.4622   YY=            -11.0377   ZZ=            -10.0452
   XY=              0.0000   XZ=              0.0000   YZ=              0.9038

 Normal termination of Gaussian 16 at Tue Dec  3 11:27:38 2024.
