 Gaussian 16, Revision A.03,
 Gaussian 16:  ES64L-G16RevA.03 25-Dec-2016

 --------------------------------------------
 #p opt UM062X/6-311+G** nosymm int=superfine
 --------------------------------------------

 -------------------
 Title Card Required
 -------------------
 Symbolic Z-matrix:
 Charge =  0 Multiplicity = 1

 SCF Done:  E(UM062X) =  -379.553721748     A.U. after   15 cycles
 SCF Done:  E(UM062X) =  -379.555165432     A.U. after   10 cycles
 SCF Done:  E(UM062X) =  -379.555171822     A.U. after   11 cycles
 Optimization completed.
    -- Stationary point found.

                          Input orientation:
 ---------------------------------------------------------------------
 Center     Atomic      Atomic             Coordinates (Angstroms)
 Number     Number       Type             X           Y           Z
 ---------------------------------------------------------------------
      1          6           0       -2.065377    0.000000    0.000000
      2         15           0        2.065377    0.000000    0.000000
      3          1           0       -3.188492    0.000000    0.000000
 ---------------------------------------------------------------------

 Alpha  occ. eigenvalues --  -78.06512 -10.72250  -6.88448  -5.00371  -4.99421
 Alpha  occ. eigenvalues --   -4.99421  -0.77023  -0.60021  -0.42649  -0.23155
 Alpha  occ. eigenvalues --   -0.23155
 Alpha virt. eigenvalues --   -0.15965  -0.15965  -0.11522   0.01025   0.04232
 Alpha virt. eigenvalues --    0.05955   0.05955   0.07613   0.08290   0.08290
 Alpha virt. eigenvalues --    0.12731   0.15659   0.32882   0.33716   0.33716

  Beta  occ. eigenvalues --  -78.06512 -10.72250  -6.88448  -5.00371  -4.99421
  Beta  occ. eigenvalues --   -4.99421  -0.77023  -0.60021  -0.42649  -0.23155
  Beta  occ. eigenvalues --   -0.23155
  Beta virt. eigenvalues --   -0.15965  -0.15965  -0.11522   0.01025   0.04232
  Beta virt. eigenvalues --    0.05955   0.05955   0.07613   0.08290   0.08290
  Beta virt. eigenvalues --    0.12731   0.15659   0.32882   0.33716   0.33716

 Mulliken charges and spin densities:
               1          2
     1  C   -0.067204  -0.000000
     2  P   -0.092113   0.000000
     3  H    0.159316  -0.000000
 Sum of Mulliken charges =  -0.00000  -0.00000

 Dipole moment (field-independent basis, Debye):
    X=             -3.7873    Y=              0.0000    Z=              0.0000  Tot=              3.7873
 Quadrupole moment (field-independent basis, Debye-Ang):
   XX=             -9.8360   YY=            -24.1573   ZZ=            -24.1573
   XY=             -0.0000   XZ=             -0.0000   YZ=             -0.0000

 Normal termination of Gaussian 16 at Mon Apr 21 19:31:08 2025.
