 Gaussian 16, Revision A.03,
 Gaussian 16:  ES64L-G16RevA.03 25-Dec-2016

 --------------------------------------------
 #p opt UM062X/6-311+G** nosymm int=superfine
 --------------------------------------------

 -------------------
 Title Card Required
 -------------------
 Symbolic Z-matrix:
 Charge =  0 Multiplicity = 1

 SCF Done:  E(UM062X) =  -51.8073972474     A.U. after   10 cycles
 SCF Done:  E(UM062X) =  -51.8124931834     A.U. after    9 cycles
 SCF Done:  E(UM062X) =  -51.8153603718     A.U. after   11 cycles
 SCF Done:  E(UM062X) =  -51.8153628111     A.U. after    9 cycles
 SCF Done:  E(UM062X) =  -51.8153523985     A.U. after    8 cycles
 SCF Done:  E(UM062X) =  -51.8153623214     A.U. after    8 cycles
 Optimization completed.
    -- Stationary point found.

                          Input orientation:
 ---------------------------------------------------------------------
 Center     Atomic      Atomic             Coordinates (Angstroms)
 Number     Number       Type             X           Y           Z
 ---------------------------------------------------------------------
      1          5           0       -1.895607    0.000000    0.000000
      2          5           0        1.895607    0.000000    0.000000
      3          1           0       -2.362559   -1.083472    0.000242
      4          1           0        2.362558    1.083458   -0.005577
      5          1           0       -2.362560    1.083472    0.000691
      6          1           0        2.362560   -1.083452    0.006495
 ---------------------------------------------------------------------

 Alpha  occ. eigenvalues --   -7.11327  -7.11326  -0.57810  -0.57411  -0.44958
 Alpha  occ. eigenvalues --   -0.44829  -0.20678
 Alpha virt. eigenvalues --   -0.06252  -0.05185  -0.03772   0.02293   0.03310
 Alpha virt. eigenvalues --    0.03851   0.05492   0.06253   0.07296   0.08200
 Alpha virt. eigenvalues --    0.10093   0.15482   0.16195   0.17148   0.24544

  Beta  occ. eigenvalues --   -7.11327  -7.11326  -0.57810  -0.57411  -0.44958
  Beta  occ. eigenvalues --   -0.44829  -0.20678
  Beta virt. eigenvalues --   -0.06252  -0.05185  -0.03772   0.02293   0.03310
  Beta virt. eigenvalues --    0.03851   0.05492   0.06253   0.07296   0.08200
  Beta virt. eigenvalues --    0.10093   0.15482   0.16195   0.17148   0.24544

 Mulliken charges and spin densities:
               1          2
     1  B   -0.056593   0.000000
     2  B   -0.056593  -0.000000
     3  H    0.028297   0.000000
     4  H    0.028297  -0.000000
     5  H    0.028297   0.000000
     6  H    0.028297  -0.000000
 Sum of Mulliken charges =  -0.00000  -0.00000

 Dipole moment (field-independent basis, Debye):
    X=              0.0000    Y=              0.0000    Z=              0.0008  Tot=              0.0008
 Quadrupole moment (field-independent basis, Debye-Ang):
   XX=            -11.7432   YY=            -16.9382   ZZ=            -14.4780
   XY=             -0.0000   XZ=              0.0000   YZ=              0.0066

 Normal termination of Gaussian 16 at Mon Apr 21 17:17:11 2025.
