 Gaussian 16, Revision A.03,
 Gaussian 16:  ES64L-G16RevA.03 25-Dec-2016

 ---------------------------------------
 #p UM062X/6-311+G** force int=superfine
 ---------------------------------------

 -------------------
 Title Card Required
 -------------------
 Symbolic Z-matrix:
 Charge =  1 Multiplicity = 2

                         Standard orientation:
 ---------------------------------------------------------------------
 Center     Atomic      Atomic             Coordinates (Angstroms)
 Number     Number       Type             X           Y           Z
 ---------------------------------------------------------------------
      1          7           0        0.000000    0.000000    0.780391
      2          7           0        0.000000    0.000000   -0.780391
 ---------------------------------------------------------------------

 SCF Done:  E(UM062X) =  -108.757385541     A.U. after   10 cycles

 Unable to determine electronic state:  partially filled degenerate orbitals.
 Alpha  occ. eigenvalues --  -15.37955 -15.37912  -1.44353  -1.15461  -0.86041
 Alpha  occ. eigenvalues --   -0.83925  -0.81164
 Alpha virt. eigenvalues --   -0.52991  -0.50243  -0.29301  -0.14493  -0.09799
 Alpha virt. eigenvalues --   -0.09578  -0.08471  -0.04608  -0.02945  -0.02678
 Alpha virt. eigenvalues --    0.06836   0.43919   0.45777   0.49410   0.51045

  Beta  occ. eigenvalues --  -15.37558 -15.37525  -1.39966  -1.12244  -0.84083
  Beta  occ. eigenvalues --   -0.79378
  Beta virt. eigenvalues --   -0.57640  -0.48597  -0.43025  -0.27659  -0.16331
  Beta virt. eigenvalues --   -0.10853  -0.10037  -0.08728  -0.05392  -0.03254
  Beta virt. eigenvalues --   -0.02935   0.05620   0.44757   0.45939   0.49167

 Mulliken charges and spin densities:
               1          2
     1  N    0.500000   0.500000
     2  N    0.500000   0.500000
 Sum of Mulliken charges =   1.00000   1.00000

 Dipole moment (field-independent basis, Debye):
    X=              0.0000    Y=             -0.0000    Z=             -0.0000  Tot=              0.0000
 Quadrupole moment (field-independent basis, Debye-Ang):
   XX=             -8.0800   YY=             -9.4584   ZZ=             -6.6112
   XY=              0.0000   XZ=             -0.0000   YZ=             -0.0000

 Optimization completed.
    -- Stationary point found.
 Normal termination of Gaussian 16 at Wed Feb 26 13:43:43 2025.
