 Gaussian 16, Revision A.03,
 Gaussian 16:  ES64L-G16RevA.03 25-Dec-2016

 --------------------------------------------
 #p opt UM062X/6-311+G** nosymm int=superfine
 --------------------------------------------

 -------------------
 Title Card Required
 -------------------
 Symbolic Z-matrix:
 Charge = -1 Multiplicity = 2

 SCF Done:  E(UM062X) =  -51.8446304920     A.U. after   12 cycles
 SCF Done:  E(UM062X) =  -51.8446627714     A.U. after    9 cycles
 SCF Done:  E(UM062X) =  -51.8446659431     A.U. after    8 cycles
 SCF Done:  E(UM062X) =  -51.8446669207     A.U. after   13 cycles
 Optimization completed.
    -- Stationary point found.

                          Input orientation:
 ---------------------------------------------------------------------
 Center     Atomic      Atomic             Coordinates (Angstroms)
 Number     Number       Type             X           Y           Z
 ---------------------------------------------------------------------
      1          5           0       -2.322274    0.000000    0.000000
      2          5           0        2.322274    0.000000    0.000000
      3          1           0       -2.986027   -1.014621   -0.000062
      4          1           0        2.986027    1.014621   -0.000538
      5          1           0       -2.986029    1.014619   -0.000048
      6          1           0        2.986029   -1.014619    0.000429
 ---------------------------------------------------------------------

 Alpha  occ. eigenvalues --   -6.88517  -6.88517  -0.38634  -0.38598  -0.22835
 Alpha  occ. eigenvalues --   -0.22813  -0.05656  -0.03811
 Alpha virt. eigenvalues --    0.11447   0.12405   0.14657   0.15064   0.15380
 Alpha virt. eigenvalues --    0.17239   0.19354   0.20372   0.20523   0.22833
 Alpha virt. eigenvalues --    0.31865   0.32900   0.33421   0.35591   0.50647

  Beta  occ. eigenvalues --   -6.87935  -6.87935  -0.37277  -0.37173  -0.22122
  Beta  occ. eigenvalues --   -0.22089   0.02070
  Beta virt. eigenvalues --    0.11678   0.12836   0.13585   0.14359   0.15378
  Beta virt. eigenvalues --    0.17609   0.18036   0.21792   0.21953   0.24227
  Beta virt. eigenvalues --    0.25231   0.31960   0.33111   0.33601   0.36396

 Mulliken charges and spin densities:
               1          2
     1  B   -0.348721   0.492266
     2  B   -0.348721   0.492266
     3  H   -0.075639   0.003867
     4  H   -0.075639   0.003867
     5  H   -0.075639   0.003867
     6  H   -0.075639   0.003867
 Sum of Mulliken charges =  -1.00000   1.00000

 Dipole moment (field-independent basis, Debye):
    X=              0.0000    Y=             -0.0000    Z=             -0.0004  Tot=              0.0004
 Quadrupole moment (field-independent basis, Debye-Ang):
   XX=            -44.4176   YY=            -24.2810   ZZ=            -18.8463
   XY=              0.0000   XZ=             -0.0000   YZ=              0.0013

 Normal termination of Gaussian 16 at Mon Apr 21 17:27:25 2025.
