 Gaussian 16, Revision A.03,
 Gaussian 16:  ES64L-G16RevA.03 25-Dec-2016

 --------------------------------------------
 #p opt UM062X/6-311+G** nosymm int=superfine
 --------------------------------------------

 -------------------
 Title Card Required
 -------------------
 Symbolic Z-matrix:
 Charge =  0 Multiplicity = 1

 SCF Done:  E(UM062X) =  -94.2926767350     A.U. after   19 cycles
 SCF Done:  E(UM062X) =  -94.2999358839     A.U. after   15 cycles
 SCF Done:  E(UM062X) =  -94.3021053343     A.U. after   15 cycles
 SCF Done:  E(UM062X) =  -94.3021124010     A.U. after   14 cycles
 SCF Done:  E(UM062X) =  -94.3020752446     A.U. after   15 cycles
 SCF Done:  E(UM062X) =  -94.3021166124     A.U. after   17 cycles
 SCF Done:  E(UM062X) =  -94.3021170032     A.U. after   14 cycles
 SCF Done:  E(UM062X) =  -94.3021172867     A.U. after   18 cycles
 SCF Done:  E(UM062X) =  -94.3021175604     A.U. after   13 cycles
 SCF Done:  E(UM062X) =  -94.3021176199     A.U. after   12 cycles
 Optimization completed.
    -- Stationary point found.

                          Input orientation:
 ---------------------------------------------------------------------
 Center     Atomic      Atomic             Coordinates (Angstroms)
 Number     Number       Type             X           Y           Z
 ---------------------------------------------------------------------
      1          6           0       -1.206637    0.000000    0.000000
      2          7           0        1.206637    0.000000    0.000000
      3          1           0       -1.918240   -0.833114   -0.000307
      4          1           0        1.130553   -1.032402   -0.000100
      5          1           0       -1.695764    0.977711   -0.000131
 ---------------------------------------------------------------------

 Alpha  occ. eigenvalues --  -14.79221 -10.66859  -0.85712  -0.79127  -0.53746
 Alpha  occ. eigenvalues --   -0.41900  -0.35566  -0.28627
 Alpha virt. eigenvalues --   -0.11745  -0.06214   0.01451   0.04949   0.06426
 Alpha virt. eigenvalues --    0.07544   0.12903   0.15054   0.16555   0.17521
 Alpha virt. eigenvalues --    0.20030   0.20768   0.27156   0.41884   0.43376

  Beta  occ. eigenvalues --  -14.79221 -10.66859  -0.85712  -0.79127  -0.53746
  Beta  occ. eigenvalues --   -0.41901  -0.35566  -0.28627
  Beta virt. eigenvalues --   -0.11745  -0.06214   0.01451   0.04949   0.06426
  Beta virt. eigenvalues --    0.07544   0.12903   0.15054   0.16555   0.17521
  Beta virt. eigenvalues --    0.20030   0.20768   0.27156   0.41884   0.43376

 Mulliken charges and spin densities:
               1          2
     1  C   -0.283312   0.000001
     2  N   -0.266333  -0.000001
     3  H    0.179505  -0.000000
     4  H    0.184938   0.000000
     5  H    0.185203  -0.000000
 Sum of Mulliken charges =  -0.00000   0.00000

 Dipole moment (field-independent basis, Debye):
    X=             -3.6795    Y=             -1.3079    Z=             -0.0007  Tot=              3.9051
 Quadrupole moment (field-independent basis, Debye-Ang):
   XX=            -10.0844   YY=            -12.2900   ZZ=            -15.3879
   XY=             -2.1551   XZ=             -0.0005   YZ=              0.0004

 Normal termination of Gaussian 16 at Mon Apr 21 18:24:21 2025.
