 Gaussian 16, Revision A.03,
 Gaussian 16:  ES64L-G16RevA.03 25-Dec-2016

 ---------------------------------------
 #p UM062X/6-311+G** force int=superfine
 ---------------------------------------

 -------------------
 Title Card Required
 -------------------
 Symbolic Z-matrix:
 Charge =  0 Multiplicity = 1

                         Standard orientation:
 ---------------------------------------------------------------------
 Center     Atomic      Atomic             Coordinates (Angstroms)
 Number     Number       Type             X           Y           Z
 ---------------------------------------------------------------------
      1          6           0        0.004691   -0.071576   -1.097222
      2          6           0       -0.004692    0.071576    1.097222
      3          1           0       -0.472607   -0.853908    1.410615
      4          1           0        0.589814   -0.962374   -1.291625
      5          1           0       -0.589812    0.962374    1.291628
      6          1           0        1.045087    0.155960    1.351236
      7          1           0        0.472607    0.853908   -1.410614
      8          1           0       -1.045086   -0.155961   -1.351238
 ---------------------------------------------------------------------

 SCF Done:  E(UM062X) =  -79.7148240267     A.U. after    8 cycles

 The electronic state is 1-A.
 Alpha  occ. eigenvalues --  -10.55121 -10.55114  -0.78170  -0.73313  -0.48276
 Alpha  occ. eigenvalues --   -0.48276  -0.45297  -0.45297  -0.30866
 Alpha virt. eigenvalues --    0.01073   0.02416   0.05600   0.05600   0.08384
 Alpha virt. eigenvalues --    0.08384   0.08610   0.09758   0.13317   0.18170
 Alpha virt. eigenvalues --    0.18170   0.22102   0.22102   0.24352   0.26628

  Beta  occ. eigenvalues --  -10.55121 -10.55114  -0.78170  -0.73313  -0.48276
  Beta  occ. eigenvalues --   -0.48276  -0.45297  -0.45297  -0.30866
  Beta virt. eigenvalues --    0.01073   0.02416   0.05600   0.05600   0.08384
  Beta virt. eigenvalues --    0.08384   0.08610   0.09758   0.13317   0.18170
  Beta virt. eigenvalues --    0.18170   0.22102   0.22102   0.24352   0.26628

 Mulliken charges and spin densities:
               1          2
     1  C   -0.503707   0.000000
     2  C   -0.503708  -0.000000
     3  H    0.167903   0.000000
     4  H    0.167903   0.000000
     5  H    0.167903   0.000000
     6  H    0.167902  -0.000000
     7  H    0.167903   0.000000
     8  H    0.167902  -0.000000
 Sum of Mulliken charges =  -0.00000  -0.00000

 Dipole moment (field-independent basis, Debye):
    X=              0.0000    Y=             -0.0000    Z=             -0.0000  Tot=              0.0000
 Quadrupole moment (field-independent basis, Debye-Ang):
   XX=            -14.8415   YY=            -14.8444   ZZ=            -15.5530
   XY=              0.0002   XZ=              0.0031   YZ=             -0.0464

 Normal termination of Gaussian 16 at Tue Nov 19 12:53:42 2024.
