 Gaussian 16, Revision A.03,
 Gaussian 16:  ES64L-G16RevA.03 25-Dec-2016

 --------------------------------------------
 #p opt UM062X/6-311+G** nosymm int=superfine
 --------------------------------------------

 -------------------
 Title Card Required
 -------------------
 Symbolic Z-matrix:
 Charge =  0 Multiplicity = 1

 SCF Done:  E(UM062X) =  -379.800889029     A.U. after   11 cycles
 SCF Done:  E(UM062X) =  -379.801114920     A.U. after   10 cycles
 Optimization completed.
    -- Stationary point found.

                          Input orientation:
 ---------------------------------------------------------------------
 Center     Atomic      Atomic             Coordinates (Angstroms)
 Number     Number       Type             X           Y           Z
 ---------------------------------------------------------------------
      1          6           0       -1.065377    0.000000    0.000000
      2         15           0        1.065377    0.000000    0.000000
      3          1           0       -2.157673    0.000000    0.000000
 ---------------------------------------------------------------------

 Alpha  occ. eigenvalues --  -78.09928 -10.66793  -6.91398  -5.02845  -5.02676
 Alpha  occ. eigenvalues --   -5.02676  -0.74900  -0.63303  -0.42392  -0.28863
 Alpha  occ. eigenvalues --   -0.28863
 Alpha virt. eigenvalues --   -0.09295  -0.09295  -0.02380   0.01648   0.04981
 Alpha virt. eigenvalues --    0.05274   0.05274   0.07140   0.10274   0.10274
 Alpha virt. eigenvalues --    0.16047   0.21607   0.30600   0.32786   0.32786

  Beta  occ. eigenvalues --  -78.09928 -10.66793  -6.91398  -5.02845  -5.02676
  Beta  occ. eigenvalues --   -5.02676  -0.74900  -0.63303  -0.42392  -0.28863
  Beta  occ. eigenvalues --   -0.28863
  Beta virt. eigenvalues --   -0.09295  -0.09295  -0.02380   0.01648   0.04981
  Beta virt. eigenvalues --    0.05274   0.05274   0.07140   0.10274   0.10274
  Beta virt. eigenvalues --    0.16047   0.21607   0.30600   0.32786   0.32786

 Mulliken charges and spin densities:
               1          2
     1  C   -0.342268   0.000000
     2  P    0.119218  -0.000000
     3  H    0.223050  -0.000000
 Sum of Mulliken charges =  -0.00000   0.00000

 Dipole moment (field-independent basis, Debye):
    X=             -0.4226    Y=              0.0000    Z=              0.0000  Tot=              0.4226
 Quadrupole moment (field-independent basis, Debye-Ang):
   XX=            -13.6146   YY=            -22.3202   ZZ=            -22.3202
   XY=             -0.0000   XZ=              0.0000   YZ=              0.0000

 Normal termination of Gaussian 16 at Mon Apr 21 19:28:40 2025.
