 Gaussian 16, Revision A.03,
 Gaussian 16:  ES64L-G16RevA.03 25-Dec-2016

 --------------------------------------------
 #p opt UM062X/6-311+G** nosymm int=superfine
 --------------------------------------------

 -------------------
 Title Card Required
 -------------------
 Symbolic Z-matrix:
 Charge =  1 Multiplicity = 2

 SCF Done:  E(UM062X) =  -1615.33673100     A.U. after   23 cycles
 SCF Done:  E(UM062X) =  -1615.47932323     A.U. after   19 cycles
 SCF Done:  E(UM062X) =  -1615.56938587     A.U. after   21 cycles
 SCF Done:  E(UM062X) =  -1615.57371557     A.U. after   19 cycles
 SCF Done:  E(UM062X) =  -1615.56735656     A.U. after   23 cycles
 SCF Done:  E(UM062X) =  -1615.57874931     A.U. after   20 cycles
 SCF Done:  E(UM062X) =  -1615.56715527     A.U. after   24 cycles
 SCF Done:  E(UM062X) =  -1615.58021404     A.U. after   19 cycles
 SCF Done:  E(UM062X) =  -1615.57786310     A.U. after   22 cycles
 SCF Done:  E(UM062X) =  -1615.58105815     A.U. after   20 cycles
 SCF Done:  E(UM062X) =  -1615.58114381     A.U. after   17 cycles
 SCF Done:  E(UM062X) =  -1615.58115916     A.U. after   16 cycles
 SCF Done:  E(UM062X) =  -1615.58118480     A.U. after   16 cycles
 SCF Done:  E(UM062X) =  -1615.58118619     A.U. after   14 cycles
 SCF Done:  E(UM062X) =  -1615.58118742     A.U. after   13 cycles
 SCF Done:  E(UM062X) =  -1615.58118760     A.U. after   12 cycles
 SCF Done:  E(UM062X) =  -1615.58118764     A.U. after   12 cycles
 Optimization completed.
    -- Stationary point found.

                          Input orientation:
 ---------------------------------------------------------------------
 Center     Atomic      Atomic             Coordinates (Angstroms)
 Number     Number       Type             X           Y           Z
 ---------------------------------------------------------------------
      1          6           0       -1.255480   -0.000000   -0.000000
      2          6           0        1.255480   -0.000000    0.000000
      3          6           0        0.000021   -2.147873    0.000892
      4          6           0        0.000045   -3.525727    0.001471
      5          6           0       -1.131761   -4.322026    0.269846
      6          6           0       -1.222970   -1.481057    0.249588
      7          6           0        0.659376   -5.718118   -0.156250
      8          1           0        1.272923   -6.594890   -0.306718
      9          6           0       -1.489195    0.829191    1.168801
     10          6           0       -0.659540   -5.718012    0.159568
     11          1           0       -1.273177   -6.594683    0.310252
     12          6           0        1.131751   -4.322212   -0.266834
     13          6           0        1.222963   -1.481221   -0.248565
     14          6           0        1.683645    2.244713   -1.192847
     15          6           0       -1.488316    0.320252   -1.402936
     16          6           0       -1.891763    2.890846    2.426736
     17          1           0       -2.048959    3.963160    2.419447
     18          6           0       -2.309069   -3.668929    0.555989
     19          1           0       -3.223851   -4.206802    0.777538
     20          6           0       -1.557383    1.630180   -1.973882
     21          6           0        2.340690   -2.241720   -0.532839
     22          1           0        3.287904   -1.742245   -0.708118
     23          6           0        1.488254    0.321219    1.402732
     24          6           0        1.557018    1.631531    1.972822
     25          6           0        2.308945   -3.669312   -0.553868
     26          1           0        3.223611   -4.207334   -0.775532
     27          6           0       -1.683977    2.245418    1.191404
     28          6           0       -1.470767    0.174222    2.431332
     29          1           0       -1.287636   -0.888532    2.468936
     30          6           0        1.615018   -0.764827    2.319249
     31          1           0        1.605312   -1.779888    1.953913
     32          6           0       -1.901780    2.212061    3.625649
     33          1           0       -2.071080    2.743466    4.554253
     34          6           0       -2.340780   -2.241358    0.534080
     35          1           0       -3.288051   -1.741763    0.708707
     36          6           0       -1.683938    1.771727   -3.371928
     37          1           0       -1.714477    2.775884   -3.778515
     38          6           0        1.489157    0.828461   -1.169330
     39          6           0       -1.637429    3.134464    0.060027
     40          1           0       -1.685984    4.185681    0.327020
     41          6           0       -1.799056    0.693922   -4.218781
     42          1           0       -1.915947    0.843734   -5.285159
     43          6           0       -1.553455    2.878084   -1.258929
     44          1           0       -1.537443    3.752633   -1.902285
     45          6           0        1.683680    1.774010    3.370765
     46          1           0        1.714002    2.778433    3.776708
     47          6           0       -1.675256    0.833638    3.622368
     48          1           0       -1.650785    0.277890    4.551806
     49          6           0       -1.614634   -0.766417   -2.318779
     50          1           0       -1.604590   -1.781240   -1.952793
     51          6           0        1.799178    0.696780    4.218300
     52          1           0        1.916142    0.847310    5.284569
     53          6           0        1.891338    2.889384   -2.428588
     54          1           0        2.048306    3.961736   -2.421995
     55          6           0        1.781217   -0.589895    3.674108
     56          1           0        1.894500   -1.457888    4.311988
     57          6           0        1.901519    2.209830   -3.627065
     58          1           0        2.070736    2.740675   -4.556005
     59          6           0        1.636726    3.134505   -0.062063
     60          1           0        1.684961    4.185559   -0.329757
     61          6           0       -1.780760   -0.592400   -3.673764
     62          1           0       -1.893693   -1.460835   -4.311105
     63          6           0        1.552748    2.878973    1.257054
     64          1           0        1.536470    3.753935    1.899840
     65          6           0        1.470795    0.172695   -2.431446
     66          1           0        1.287769   -0.890099   -2.468384
     67          6           0        1.675200    0.831378   -3.622903
     68          1           0        1.650776    0.275036   -4.551987
 ---------------------------------------------------------------------

 Alpha  occ. eigenvalues --  -10.71387 -10.71385 -10.68580 -10.68580 -10.68561
 Alpha  occ. eigenvalues --  -10.68561 -10.68256 -10.68256 -10.68072 -10.68071
 Alpha  occ. eigenvalues --  -10.66954 -10.66953 -10.66572 -10.66571 -10.66464
 Alpha  occ. eigenvalues --  -10.66464 -10.66025 -10.66025 -10.65881 -10.65881
 Alpha  occ. eigenvalues --  -10.65755 -10.65755 -10.65710 -10.65710 -10.65687
 Alpha  occ. eigenvalues --  -10.65687 -10.65662 -10.65662 -10.65662 -10.65662
 Alpha  occ. eigenvalues --  -10.65636 -10.65562 -10.65562 -10.65547 -10.65547
 Alpha  occ. eigenvalues --  -10.65273 -10.65273 -10.65041 -10.65040 -10.64078
 Alpha  occ. eigenvalues --  -10.63980 -10.63204  -1.12641  -1.10311  -1.10079
 Alpha  occ. eigenvalues --   -1.08462  -1.07788  -1.05896  -1.04755  -1.02597
 Alpha  occ. eigenvalues --   -1.02113  -1.00756  -1.00592  -0.97935  -0.97634
 Alpha  occ. eigenvalues --   -0.96914  -0.96253  -0.95052  -0.93476  -0.93470
 Alpha  occ. eigenvalues --   -0.92806  -0.91929  -0.87558  -0.87364  -0.84969
 Alpha  occ. eigenvalues --   -0.84719  -0.83079  -0.81437  -0.81356  -0.79859
 Alpha  occ. eigenvalues --   -0.79748  -0.79524  -0.77603  -0.76423  -0.76196
 Alpha  occ. eigenvalues --   -0.75714  -0.75461  -0.73692  -0.70241  -0.69757
 Alpha  occ. eigenvalues --   -0.69139  -0.68497  -0.67741  -0.67606  -0.66969
 Alpha  occ. eigenvalues --   -0.66824  -0.65659  -0.65360  -0.65123  -0.64858
 Alpha  occ. eigenvalues --   -0.63378  -0.63001  -0.62334  -0.62199  -0.61265
 Alpha  occ. eigenvalues --   -0.61128  -0.60730  -0.60450  -0.60105  -0.60071
 Alpha  occ. eigenvalues --   -0.59598  -0.58939  -0.58770  -0.58148  -0.57843
 Alpha  occ. eigenvalues --   -0.57621  -0.56659  -0.55827  -0.55680  -0.55636
 Alpha  occ. eigenvalues --   -0.55001  -0.54103  -0.53221  -0.52836  -0.52683
 Alpha  occ. eigenvalues --   -0.52515  -0.52305  -0.52251  -0.51229  -0.51014
 Alpha  occ. eigenvalues --   -0.50951  -0.50921  -0.50456  -0.49472  -0.49200
 Alpha  occ. eigenvalues --   -0.48937  -0.48569  -0.47892  -0.44606  -0.44344
 Alpha  occ. eigenvalues --   -0.44101  -0.42920  -0.40533  -0.40407  -0.39288
 Alpha  occ. eigenvalues --   -0.38129  -0.37651  -0.37218  -0.32668
 Alpha virt. eigenvalues --   -0.19235  -0.15667  -0.15590  -0.14454  -0.10501
 Alpha virt. eigenvalues --   -0.09922  -0.08840  -0.08561  -0.08344  -0.07583
 Alpha virt. eigenvalues --   -0.07543  -0.07483  -0.06640  -0.06384  -0.06159

  Beta  occ. eigenvalues --  -10.71260 -10.71259 -10.68597 -10.68597 -10.68589
  Beta  occ. eigenvalues --  -10.68589 -10.68215 -10.68214 -10.68033 -10.68032
  Beta  occ. eigenvalues --  -10.66968 -10.66968 -10.66561 -10.66561 -10.66449
  Beta  occ. eigenvalues --  -10.66449 -10.65991 -10.65991 -10.65882 -10.65882
  Beta  occ. eigenvalues --  -10.65734 -10.65734 -10.65704 -10.65703 -10.65687
  Beta  occ. eigenvalues --  -10.65687 -10.65648 -10.65647 -10.65642 -10.65642
  Beta  occ. eigenvalues --  -10.65612 -10.65574 -10.65574 -10.65550 -10.65550
  Beta  occ. eigenvalues --  -10.65284 -10.65284 -10.65037 -10.65036 -10.64078
  Beta  occ. eigenvalues --  -10.63980 -10.63204  -1.12472  -1.10214  -1.09923
  Beta  occ. eigenvalues --   -1.08340  -1.07680  -1.05734  -1.04640  -1.02464
  Beta  occ. eigenvalues --   -1.01994  -1.00601  -1.00419  -0.97833  -0.97541
  Beta  occ. eigenvalues --   -0.96786  -0.96144  -0.95000  -0.93414  -0.93369
  Beta  occ. eigenvalues --   -0.92706  -0.91833  -0.87202  -0.87086  -0.84893
  Beta  occ. eigenvalues --   -0.84652  -0.83001  -0.81326  -0.81256  -0.79771
  Beta  occ. eigenvalues --   -0.79676  -0.79453  -0.77481  -0.76258  -0.76044
  Beta  occ. eigenvalues --   -0.75547  -0.75425  -0.73563  -0.70128  -0.69606
  Beta  occ. eigenvalues --   -0.69001  -0.68394  -0.67672  -0.67550  -0.66844
  Beta  occ. eigenvalues --   -0.66726  -0.65579  -0.65222  -0.64987  -0.64747
  Beta  occ. eigenvalues --   -0.63099  -0.62959  -0.62249  -0.62112  -0.60975
  Beta  occ. eigenvalues --   -0.60927  -0.60587  -0.60318  -0.60051  -0.60011
  Beta  occ. eigenvalues --   -0.59475  -0.58790  -0.58689  -0.58064  -0.57582
  Beta  occ. eigenvalues --   -0.57390  -0.56505  -0.55618  -0.55572  -0.55438
  Beta  occ. eigenvalues --   -0.54985  -0.53739  -0.53073  -0.52747  -0.52593
  Beta  occ. eigenvalues --   -0.52467  -0.52208  -0.52140  -0.50966  -0.50943
  Beta  occ. eigenvalues --   -0.50824  -0.50450  -0.49717  -0.49115  -0.49033
  Beta  occ. eigenvalues --   -0.48792  -0.48508  -0.47528  -0.44038  -0.43955
  Beta  occ. eigenvalues --   -0.43348  -0.42581  -0.40342  -0.40091  -0.38660
  Beta  occ. eigenvalues --   -0.37892  -0.37399  -0.37031
  Beta virt. eigenvalues --   -0.22745  -0.17262  -0.15527  -0.15382  -0.14469
  Beta virt. eigenvalues --   -0.10291  -0.09528  -0.08471  -0.08360  -0.08314
  Beta virt. eigenvalues --   -0.07575  -0.07556  -0.07250  -0.06619  -0.06343

 Mulliken charges and spin densities:
               1          2
     1  C    0.002324   0.266350
     2  C    0.002758   0.266340
     3  C    0.201523   0.007260
     4  C    0.110841   0.001238
     5  C    0.111600   0.005567
     6  C    0.038213  -0.026906
     7  C   -0.305642   0.001452
     8  H    0.176423  -0.000066
     9  C    0.244762  -0.020380
    10  C   -0.305973   0.001456
    11  H    0.176422  -0.000066
    12  C    0.111905   0.005559
    13  C    0.038506  -0.026919
    14  C    0.254705   0.057006
    15  C    0.316540  -0.029666
    16  C   -0.235873  -0.032177
    17  H    0.163810   0.000969
    18  C   -0.454232  -0.001434
    19  H    0.175771   0.000417
    20  C    0.202330   0.096664
    21  C   -0.139864   0.016579
    22  H    0.174593  -0.000366
    23  C    0.316802  -0.029653
    24  C    0.202030   0.096666
    25  C   -0.453651  -0.001441
    26  H    0.175771   0.000418
    27  C    0.253751   0.056999
    28  C   -0.088907   0.046001
    29  H    0.203485  -0.002753
    30  C   -0.282341   0.030307
    31  H    0.225703  -0.001418
    32  C   -0.361256   0.055156
    33  H    0.181559  -0.002910
    34  C   -0.140103   0.016560
    35  H    0.174577  -0.000365
    36  C   -0.071973  -0.046135
    37  H    0.163210   0.001345
    38  C    0.244768  -0.020352
    39  C   -0.268795   0.062522
    40  H    0.167369  -0.004114
    41  C   -0.237710   0.050842
    42  H    0.180121  -0.002445
    43  C   -0.250763   0.022203
    44  H    0.159564  -0.001342
    45  C   -0.072105  -0.046150
    46  H    0.163219   0.001345
    47  C   -0.139899  -0.018273
    48  H    0.169473  -0.000792
    49  C   -0.282631   0.030288
    50  H    0.225702  -0.001418
    51  C   -0.237855   0.050826
    52  H    0.180118  -0.002445
    53  C   -0.236771  -0.032200
    54  H    0.163816   0.000969
    55  C   -0.305055  -0.027117
    56  H    0.175099   0.000718
    57  C   -0.361313   0.055146
    58  H    0.181557  -0.002910
    59  C   -0.268646   0.062517
    60  H    0.167354  -0.004115
    61  C   -0.304686  -0.027107
    62  H    0.175096   0.000718
    63  C   -0.250643   0.022170
    64  H    0.159557  -0.001342
    65  C   -0.088958   0.046053
    66  H    0.203460  -0.002753
    67  C   -0.140010  -0.018303
    68  H    0.169470  -0.000792
 Sum of Mulliken charges =   1.00000   1.00000

 Dipole moment (field-independent basis, Debye):
    X=             -0.0006    Y=              2.4051    Z=             -0.0015  Tot=              2.4051
 Quadrupole moment (field-independent basis, Debye-Ang):
   XX=           -222.4779   YY=           -175.0603   ZZ=           -176.3722
   XY=             -0.0054   XZ=             -1.9583   YZ=              0.0037

 Normal termination of Gaussian 16 at Fri Nov  8 17:44:17 2024.
