 Gaussian 16, Revision A.03,
 Gaussian 16:  ES64L-G16RevA.03 25-Dec-2016

 --------------------------------------------
 #p opt UM062X/6-311+G** nosymm int=superfine
 --------------------------------------------

 -------------------
 Title Card Required
 -------------------
 Symbolic Z-matrix:
 Charge =  0 Multiplicity = 2

 SCF Done:  E(UM062X) =  -342.482384679     A.U. after   10 cycles
 SCF Done:  E(UM062X) =  -342.482454082     A.U. after    8 cycles
 SCF Done:  E(UM062X) =  -342.482454566     A.U. after    6 cycles
 Optimization completed.
    -- Stationary point found.

                          Input orientation:
 ---------------------------------------------------------------------
 Center     Atomic      Atomic             Coordinates (Angstroms)
 Number     Number       Type             X           Y           Z
 ---------------------------------------------------------------------
      1         15           0        0.929341    0.006924   -0.007470
      2          1           0        1.112308   -1.399369    0.012465
      3          1           0        1.112307    0.096443    1.396085
 ---------------------------------------------------------------------

 Alpha  occ. eigenvalues --  -78.03372  -6.85700  -4.98109  -4.97177  -4.96992
 Alpha  occ. eigenvalues --   -0.71845  -0.44799  -0.36479  -0.29455
 Alpha virt. eigenvalues --    0.02832   0.04254   0.04903   0.05284   0.06083
 Alpha virt. eigenvalues --    0.12224   0.30221   0.30919   0.32697   0.38132
 Alpha virt. eigenvalues --    0.42448   0.55167   0.63149   0.65270   0.66118

  Beta  occ. eigenvalues --  -78.02639  -6.85486  -4.96909  -4.96755  -4.96141
  Beta  occ. eigenvalues --   -0.68073  -0.44205  -0.34504
  Beta virt. eigenvalues --   -0.09198   0.00688   0.03735   0.04676   0.06476
  Beta virt. eigenvalues --    0.06542   0.12529   0.29312   0.30238   0.30419
  Beta virt. eigenvalues --    0.37919   0.44540   0.56437   0.66085   0.70176

 Mulliken charges and spin densities:
               1          2
     1  P    0.041628   1.079429
     2  H   -0.020813  -0.039714
     3  H   -0.020814  -0.039715
 Sum of Mulliken charges =   0.00000   1.00000

 Dipole moment (field-independent basis, Debye):
    X=              0.1625    Y=             -0.5851    Z=              0.6326  Tot=              0.8769
 Quadrupole moment (field-independent basis, Debye-Ang):
   XX=            -14.8857   YY=            -14.8179   ZZ=            -14.9296
   XY=             -0.4913   XZ=              0.5312   YZ=              0.7160

 1\1\GINC-NODE02\FOpt\UM062X\6-311+G(d,p)\H2P1(2)\SZHAO\16-Apr-2025\0\\
 #p opt UM062X/6-311+G** nosymm int=superfine\\Title Card Required\\0,2
 \P,0.9293413957,0.0069239035,-0.0074702782\H,1.1123084713,-1.399368788
 2,0.0124650223\H,1.112307073,0.0964433347,1.3960850159\\Version=ES64L-
 G16RevA.03\HF=-342.4824546\S2=0.754234\S2-1=0.\S2A=0.750011\RMSD=8.959
 e-09\RMSF=2.212e-05\Dipole=0.063944,-0.2302095,0.2488828\Quadrupole=-0
 .0059517,0.0445063,-0.0385546,-0.3652935,0.3949263,0.5323297\PG=CS [SG
 (H2P1)]\\@

 Normal termination of Gaussian 16 at Wed Apr 16 08:39:05 2025.
