 Gaussian 16, Revision A.03,
 Gaussian 16:  ES64L-G16RevA.03 25-Dec-2016

 --------------------------------------------
 #p opt UM062X/6-311+G** nosymm int=superfine
 --------------------------------------------

 -------------------
 Title Card Required
 -------------------
 Symbolic Z-matrix:
 Charge =  0 Multiplicity = 1

 SCF Done:  E(UM062X) =  -95.7913745034     A.U. after   11 cycles
 SCF Done:  E(UM062X) =  -95.7977577355     A.U. after   11 cycles
 SCF Done:  E(UM062X) =  -95.7981434192     A.U. after   10 cycles
 SCF Done:  E(UM062X) =  -95.7981469423     A.U. after    8 cycles
 Optimization completed.
    -- Stationary point found.

                          Input orientation:
 ---------------------------------------------------------------------
 Center     Atomic      Atomic             Coordinates (Angstroms)
 Number     Number       Type             X           Y           Z
 ---------------------------------------------------------------------
      1          6           0       -0.905542    0.000000    0.000000
      2          7           0        0.905542    0.000000    0.000000
      3          1           0        1.118811   -0.992006    0.088260
      4          1           0       -1.169094    1.051609   -0.009500
      5          1           0        1.118853    0.399961    0.912075
      6          1           0       -1.169112   -0.496920   -0.926843
      7          1           0       -1.265891   -0.522234    0.881549
 ---------------------------------------------------------------------

 Alpha  occ. eigenvalues --  -14.73891 -10.57326  -0.93060  -0.76627  -0.53555
 Alpha  occ. eigenvalues --   -0.49295  -0.46414  -0.41029  -0.32454
 Alpha virt. eigenvalues --    0.01436   0.02697   0.05152   0.05937   0.10784
 Alpha virt. eigenvalues --    0.13426   0.13840   0.16155   0.17138   0.18918
 Alpha virt. eigenvalues --    0.21671   0.22439   0.22862   0.30579   0.42441

  Beta  occ. eigenvalues --  -14.73891 -10.57326  -0.93060  -0.76627  -0.53555
  Beta  occ. eigenvalues --   -0.49295  -0.46414  -0.41029  -0.32454
  Beta virt. eigenvalues --    0.01436   0.02697   0.05152   0.05937   0.10784
  Beta virt. eigenvalues --    0.13426   0.13840   0.16155   0.17138   0.18918
  Beta virt. eigenvalues --    0.21671   0.22439   0.22862   0.30579   0.42441

 Mulliken charges and spin densities:
               1          2
     1  C   -0.417617  -0.000000
     2  N   -0.557952   0.000000
     3  H    0.237949  -0.000000
     4  H    0.170870  -0.000000
     5  H    0.237946  -0.000000
     6  H    0.170886   0.000000
     7  H    0.157918  -0.000000
 Sum of Mulliken charges =  -0.00000  -0.00000

 Dipole moment (field-independent basis, Debye):
    X=             -1.2572    Y=             -0.8317    Z=              1.4052  Tot=              2.0608
 Quadrupole moment (field-independent basis, Debye-Ang):
   XX=            -14.9329   YY=            -13.2829   ZZ=            -14.2709
   XY=             -1.2458   XZ=              2.1051   YZ=              0.8999

 Normal termination of Gaussian 16 at Mon Apr 21 18:05:35 2025.
