 Gaussian 16, Revision A.03,
 Gaussian 16:  ES64L-G16RevA.03 25-Dec-2016

 --------------------------------------------
 #p opt UM062X/6-311+G** nosymm int=superfine
 --------------------------------------------

 -------------------
 Title Card Required
 -------------------
 Symbolic Z-matrix:
 Charge =  1 Multiplicity = 2

 SCF Done:  E(UM062X) =  -78.0328069001     A.U. after    9 cycles
 SCF Done:  E(UM062X) =  -78.0646634639     A.U. after    9 cycles
 SCF Done:  E(UM062X) =  -78.0852647160     A.U. after    9 cycles
 SCF Done:  E(UM062X) =  -78.0871414462     A.U. after    9 cycles
 SCF Done:  E(UM062X) =  -78.0871975527     A.U. after    7 cycles
 Optimization completed.
    -- Stationary point found.

                          Input orientation:
 ---------------------------------------------------------------------
 Center     Atomic      Atomic             Coordinates (Angstroms)
 Number     Number       Type             X           Y           Z
 ---------------------------------------------------------------------
      1          6           0       -0.961373    0.000000    0.000000
      2          6           0        0.961373    0.000000    0.000000
      3          1           0       -1.436271   -0.975020   -0.000000
      4          1           0       -1.436313    0.974920   -0.000000
      5          1           0        1.436271    0.975020    0.000000
      6          1           0        1.436313   -0.974920    0.000000
 ---------------------------------------------------------------------

 Alpha  occ. eigenvalues --  -10.91997 -10.91979  -1.07999  -0.99779  -0.81106
 Alpha  occ. eigenvalues --   -0.77019  -0.69228  -0.57584
 Alpha virt. eigenvalues --   -0.35688  -0.21287  -0.14245  -0.11126  -0.09724
 Alpha virt. eigenvalues --   -0.08557  -0.07406  -0.07273  -0.04741  -0.04286
 Alpha virt. eigenvalues --   -0.02332  -0.00903   0.02300   0.09491   0.18135

  Beta  occ. eigenvalues --  -10.91765 -10.91753  -1.04811  -0.97594  -0.80505
  Beta  occ. eigenvalues --   -0.76667  -0.67795
  Beta virt. eigenvalues --   -0.36271  -0.27206  -0.18886  -0.15666  -0.11488
  Beta virt. eigenvalues --   -0.09584  -0.08168  -0.07778  -0.07358  -0.04324
  Beta virt. eigenvalues --   -0.03972  -0.01902  -0.00298   0.01564   0.10146

 Mulliken charges and spin densities:
               1          2
     1  C   -0.065932   0.540799
     2  C   -0.065931   0.540798
     3  H    0.282969  -0.020400
     4  H    0.282963  -0.020398
     5  H    0.282969  -0.020400
     6  H    0.282963  -0.020398
 Sum of Mulliken charges =   1.00000   1.00000

 Dipole moment (field-independent basis, Debye):
    X=              0.0000    Y=             -0.0000    Z=              0.0000  Tot=              0.0000
 Quadrupole moment (field-independent basis, Debye-Ang):
   XX=             -2.7425   YY=             -8.2060   ZZ=            -12.3788
   XY=              0.0001   XZ=              0.0000   YZ=             -0.0000

 Normal termination of Gaussian 16 at Tue Nov 19 11:17:13 2024.
