 Gaussian 16, Revision A.03,
 Gaussian 16:  ES64L-G16RevA.03 25-Dec-2016

 --------------------------------------------
 #p opt UM062X/6-311+G** nosymm int=superfine
 --------------------------------------------

 -------------------
 Title Card Required
 -------------------
 Symbolic Z-matrix:
 Charge =  0 Multiplicity = 1

 SCF Done:  E(UM062X) =  -437.226214651     A.U. after   14 cycles
 SCF Done:  E(UM062X) =  -437.226289169     A.U. after   11 cycles
 SCF Done:  E(UM062X) =  -437.226325393     A.U. after   12 cycles
 SCF Done:  E(UM062X) =  -437.226313662     A.U. after   14 cycles
 SCF Done:  E(UM062X) =  -437.226320396     A.U. after   11 cycles
 SCF Done:  E(UM062X) =  -437.226325507     A.U. after   11 cycles
 SCF Done:  E(UM062X) =  -437.226326189     A.U. after   13 cycles
 Optimization completed.
    -- Stationary point found.

                          Input orientation:
 ---------------------------------------------------------------------
 Center     Atomic      Atomic             Coordinates (Angstroms)
 Number     Number       Type             X           Y           Z
 ---------------------------------------------------------------------
      1          6           0       -1.327140    0.000000    0.000000
      2         16           0        1.327140    0.000000    0.000000
      3          1           0       -1.881136   -0.938314    0.000090
      4          1           0       -1.881503    0.938098   -0.000071
 ---------------------------------------------------------------------

 Alpha  occ. eigenvalues --  -89.91604 -10.69789  -8.27399  -6.19822  -6.18954
 Alpha  occ. eigenvalues --   -6.18700  -0.81514  -0.71837  -0.56579  -0.37754
 Alpha  occ. eigenvalues --   -0.28934  -0.28908
 Alpha virt. eigenvalues --   -0.14303  -0.10631   0.00965   0.04923   0.06006
 Alpha virt. eigenvalues --    0.06600   0.08615   0.08711   0.09146   0.13908
 Alpha virt. eigenvalues --    0.16257   0.17908   0.35934   0.36326   0.37458

  Beta  occ. eigenvalues --  -89.91604 -10.69789  -8.27399  -6.19822  -6.18954
  Beta  occ. eigenvalues --   -6.18700  -0.81514  -0.71837  -0.56579  -0.37754
  Beta  occ. eigenvalues --   -0.28934  -0.28908
  Beta virt. eigenvalues --   -0.14303  -0.10631   0.00965   0.04923   0.06006
  Beta virt. eigenvalues --    0.06600   0.08615   0.08711   0.09146   0.13908
  Beta virt. eigenvalues --    0.16257   0.17908   0.35934   0.36326   0.37458

 Mulliken charges and spin densities:
               1          2
     1  C   -0.261067  -0.000000
     2  S   -0.141681   0.000000
     3  H    0.201374   0.000000
     4  H    0.201374   0.000000
 Sum of Mulliken charges =  -0.00000   0.00000

 Dipole moment (field-independent basis, Debye):
    X=             -4.1546    Y=             -0.0003    Z=              0.0000  Tot=              4.1546
 Quadrupole moment (field-independent basis, Debye-Ang):
   XX=            -14.3297   YY=            -21.7432   ZZ=            -22.2316
   XY=             -0.0003   XZ=              0.0000   YZ=             -0.0000

 Normal termination of Gaussian 16 at Mon Apr 21 19:44:00 2025.
