 Gaussian 16, Revision A.03,
 Gaussian 16:  ES64L-G16RevA.03 25-Dec-2016

 --------------------------------------------
 #p opt UM062X/6-311+G** nosymm int=superfine
 --------------------------------------------

 -------------------
 Title Card Required
 -------------------
 Symbolic Z-matrix:
 Charge =  0 Multiplicity = 1

 SCF Done:  E(UM062X) =  -77.0350713043     A.U. after   10 cycles
 SCF Done:  E(UM062X) =  -77.0789022701     A.U. after    9 cycles
 SCF Done:  E(UM062X) =  -77.1356308264     A.U. after   10 cycles
 SCF Done:  E(UM062X) =  -77.1365474475     A.U. after    8 cycles
 SCF Done:  E(UM062X) =  -77.1365494068     A.U. after    7 cycles
 Optimization completed.
    -- Stationary point found.

                          Input orientation:
 ---------------------------------------------------------------------
 Center     Atomic      Atomic             Coordinates (Angstroms)
 Number     Number       Type             X           Y           Z
 ---------------------------------------------------------------------
      1          6           0       -0.807996    0.000000    0.000000
      2          6           0        0.807996    0.000000    0.000000
      3          1           0       -1.882103   -0.000020    0.000020
      4          1           0        1.882075    0.000002   -0.000002
 ---------------------------------------------------------------------

 Alpha  occ. eigenvalues --  -10.64623 -10.64586  -0.78475  -0.69097  -0.53991
 Alpha  occ. eigenvalues --   -0.30855  -0.30855
 Alpha virt. eigenvalues --   -0.03242  -0.03242   0.00958   0.02339   0.07604
 Alpha virt. eigenvalues --    0.08320   0.08320   0.09479   0.11298   0.11298
 Alpha virt. eigenvalues --    0.17817   0.22861   0.28922   0.46560   0.58699

  Beta  occ. eigenvalues --  -10.64623 -10.64586  -0.78475  -0.69097  -0.53991
  Beta  occ. eigenvalues --   -0.30855  -0.30855
  Beta virt. eigenvalues --   -0.03242  -0.03242   0.00958   0.02339   0.07604
  Beta virt. eigenvalues --    0.08320   0.08320   0.09479   0.11298   0.11298
  Beta virt. eigenvalues --    0.17817   0.22861   0.28922   0.46560   0.58699

 Mulliken charges and spin densities:
               1          2
     1  C   -0.238003   0.000000
     2  C   -0.238005  -0.000000
     3  H    0.238008   0.000000
     4  H    0.238000  -0.000000
 Sum of Mulliken charges =  -0.00000   0.00000

 Dipole moment (field-independent basis, Debye):
    X=             -0.0000    Y=             -0.0000    Z=              0.0000  Tot=              0.0001
 Quadrupole moment (field-independent basis, Debye-Ang):
   XX=             -5.3067   YY=            -15.5176   ZZ=            -15.5176
   XY=              0.0001   XZ=             -0.0001   YZ=             -0.0000

 Normal termination of Gaussian 16 at Tue Dec  3 20:12:14 2024.
