 Gaussian 16, Revision A.03,
 Gaussian 16:  ES64L-G16RevA.03 25-Dec-2016

 --------------------------------------------
 #p opt UM062X/6-311+G** nosymm int=superfine
 --------------------------------------------

 -------------------
 Title Card Required
 -------------------
 Symbolic Z-matrix:
 Charge =  0 Multiplicity = 1

 SCF Done:  E(UM062X) =  -797.487973410     A.U. after   12 cycles
 SCF Done:  E(UM062X) =  -797.489556168     A.U. after   12 cycles
 SCF Done:  E(UM062X) =  -797.489970296     A.U. after   12 cycles
 SCF Done:  E(UM062X) =  -797.490039492     A.U. after   11 cycles
 SCF Done:  E(UM062X) =  -797.490039908     A.U. after   11 cycles
 SCF Done:  E(UM062X) =  -797.490040201     A.U. after   10 cycles
 Optimization completed.
    -- Stationary point found.

                          Input orientation:
 ---------------------------------------------------------------------
 Center     Atomic      Atomic             Coordinates (Angstroms)
 Number     Number       Type             X           Y           Z
 ---------------------------------------------------------------------
      1         16           0       -1.418191    0.000000    0.000000
      2         16           0        1.418191    0.000000    0.000000
      3          1           0       -1.398212   -1.343066   -0.068486
      4          1           0        1.398299    0.104358    1.340635
 ---------------------------------------------------------------------

 Alpha  occ. eigenvalues --  -89.94471 -89.94471  -8.30618  -8.30617  -6.22774
 Alpha  occ. eigenvalues --   -6.22774  -6.22512  -6.22511  -6.21967  -6.21967
 Alpha  occ. eigenvalues --   -0.83159  -0.79628  -0.47567  -0.47215  -0.36781
 Alpha  occ. eigenvalues --   -0.33392  -0.32996
 Alpha virt. eigenvalues --   -0.14497   0.01877   0.03270   0.04755   0.05056
 Alpha virt. eigenvalues --    0.06173   0.07422   0.07433   0.07577   0.11798
 Alpha virt. eigenvalues --    0.13306   0.30643   0.31065   0.32221   0.35522

  Beta  occ. eigenvalues --  -89.94471 -89.94471  -8.30618  -8.30617  -6.22774
  Beta  occ. eigenvalues --   -6.22774  -6.22512  -6.22511  -6.21967  -6.21967
  Beta  occ. eigenvalues --   -0.83159  -0.79628  -0.47567  -0.47215  -0.36781
  Beta  occ. eigenvalues --   -0.33392  -0.32996
  Beta virt. eigenvalues --   -0.14497   0.01877   0.03270   0.04755   0.05056
  Beta virt. eigenvalues --    0.06173   0.07422   0.07433   0.07577   0.11798
  Beta virt. eigenvalues --    0.13306   0.30643   0.31065   0.32221   0.35522

 Mulliken charges and spin densities:
               1          2
     1  S   -0.089237  -0.000000
     2  S   -0.089279   0.000000
     3  H    0.089267   0.000000
     4  H    0.089249  -0.000000
 Sum of Mulliken charges =   0.00000  -0.00000

 Dipole moment (field-independent basis, Debye):
    X=             -0.0003    Y=             -0.9799    Z=              1.0065  Tot=              1.4047
 Quadrupole moment (field-independent basis, Debye-Ang):
   XX=            -25.6676   YY=            -27.8390   ZZ=            -27.8675
   XY=              1.9493   XZ=              1.8982   YZ=              0.5317

 Normal termination of Gaussian 16 at Mon Apr 21 21:15:16 2025.
