 Gaussian 16, Revision A.03,
 Gaussian 16:  ES64L-G16RevA.03 25-Dec-2016

 --------------------------------------------
 #p opt UM062X/6-311+G** nosymm int=superfine
 --------------------------------------------

 -------------------
 Title Card Required
 -------------------
 Symbolic Z-matrix:
 Charge = -1 Multiplicity = 2

 SCF Done:  E(UM062X) =  -50.5592591355     A.U. after   17 cycles
 SCF Done:  E(UM062X) =  -50.5632157737     A.U. after   18 cycles
 SCF Done:  E(UM062X) =  -50.5634619340     A.U. after   15 cycles
 Optimization completed.
    -- Stationary point found.

                          Input orientation:
 ---------------------------------------------------------------------
 Center     Atomic      Atomic             Coordinates (Angstroms)
 Number     Number       Type             X           Y           Z
 ---------------------------------------------------------------------
      1          5           0       -2.016404    0.000000    0.000000
      2          5           0        2.016404    0.000000    0.000000
      3          1           0       -3.280407   -0.000958   -0.000001
      4          1           0        3.280407    0.000958    0.000000
 ---------------------------------------------------------------------

 Alpha  occ. eigenvalues --   -6.91393  -6.91393  -0.34986  -0.34850  -0.09733
 Alpha  occ. eigenvalues --   -0.07049   0.02656
 Alpha virt. eigenvalues --    0.10090   0.12306   0.13468   0.15415   0.16100
 Alpha virt. eigenvalues --    0.21501   0.21726   0.21888   0.22541   0.23163
 Alpha virt. eigenvalues --    0.25451   0.32530   0.37037   0.50202   0.56814

  Beta  occ. eigenvalues --   -6.91305  -6.91305  -0.33921  -0.33862  -0.08626
  Beta  occ. eigenvalues --   -0.06024
  Beta virt. eigenvalues --    0.10592   0.11423   0.12190   0.12613   0.13419
  Beta virt. eigenvalues --    0.13679   0.19184   0.20113   0.20377   0.21281
  Beta virt. eigenvalues --    0.21443   0.21844   0.32384   0.37111   0.49895

 Mulliken charges and spin densities:
               1          2
     1  B   -0.409657   0.511994
     2  B   -0.409657   0.511994
     3  H   -0.090343  -0.011994
     4  H   -0.090343  -0.011994
 Sum of Mulliken charges =  -1.00000   1.00000

 Dipole moment (field-independent basis, Debye):
    X=              0.0000    Y=             -0.0000    Z=              0.0000  Tot=              0.0000
 Quadrupole moment (field-independent basis, Debye-Ang):
   XX=            -39.3780   YY=            -19.0977   ZZ=            -26.4550
   XY=             -0.0011   XZ=             -0.0000   YZ=              0.0044

 Normal termination of Gaussian 16 at Mon Apr 21 17:34:00 2025.
