 Gaussian 16, Revision A.03,
 Gaussian 16:  ES64L-G16RevA.03 25-Dec-2016

 --------------------------------------------
 #p opt UM062X/6-311+G** nosymm int=superfine
 --------------------------------------------

 -------------------
 Title Card Required
 -------------------
 Symbolic Z-matrix:
 Charge =  0 Multiplicity = 1

 SCF Done:  E(UM062X) =  -111.845111043     A.U. after   12 cycles
 SCF Done:  E(UM062X) =  -111.846449184     A.U. after   11 cycles
 SCF Done:  E(UM062X) =  -111.846541802     A.U. after   10 cycles
 SCF Done:  E(UM062X) =  -111.846559867     A.U. after    9 cycles
 SCF Done:  E(UM062X) =  -111.846560271     A.U. after    7 cycles
 Optimization completed.
    -- Stationary point found.

                          Input orientation:
 ---------------------------------------------------------------------
 Center     Atomic      Atomic             Coordinates (Angstroms)
 Number     Number       Type             X           Y           Z
 ---------------------------------------------------------------------
      1          7           0       -0.761540    0.000000    0.000000
      2          7           0        0.761540    0.000000    0.000000
      3          1           0       -1.017130   -0.980550    0.010033
      4          1           0        1.017139    0.843268   -0.500469
      5          1           0       -1.098707    0.414349    0.863788
      6          1           0        1.098684    0.094312    0.953384
 ---------------------------------------------------------------------

 Alpha  occ. eigenvalues --  -14.76093 -14.76073  -1.03851  -0.85936  -0.57145
 Alpha  occ. eigenvalues --   -0.55792  -0.50354  -0.34528  -0.32627
 Alpha virt. eigenvalues --    0.04081   0.05371   0.09344   0.10870   0.13923
 Alpha virt. eigenvalues --    0.14095   0.15232   0.16990   0.20471   0.22071
 Alpha virt. eigenvalues --    0.24244   0.25549   0.26408   0.52597   0.57038

  Beta  occ. eigenvalues --  -14.76093 -14.76073  -1.03851  -0.85936  -0.57145
  Beta  occ. eigenvalues --   -0.55792  -0.50354  -0.34528  -0.32627
  Beta virt. eigenvalues --    0.04081   0.05371   0.09344   0.10870   0.13923
  Beta virt. eigenvalues --    0.14095   0.15232   0.16990   0.20471   0.22071
  Beta virt. eigenvalues --    0.24244   0.25549   0.26408   0.52597   0.57038

 Mulliken charges and spin densities:
               1          2
     1  N   -0.515506   0.000000
     2  N   -0.515510  -0.000000
     3  H    0.273886  -0.000000
     4  H    0.273887   0.000000
     5  H    0.241622  -0.000000
     6  H    0.241621   0.000000
 Sum of Mulliken charges =  -0.00000   0.00000

 Dipole moment (field-independent basis, Debye):
    X=             -0.0000    Y=              0.5844    Z=              2.0876  Tot=              2.1678
 Quadrupole moment (field-independent basis, Debye-Ang):
   XX=            -13.6173   YY=            -12.8180   ZZ=            -12.7760
   XY=              2.9666   XZ=             -0.8304   YZ=              0.0128

 Normal termination of Gaussian 16 at Thu May 15 14:21:41 2025.
