 Gaussian 16, Revision A.03,
 Gaussian 16:  ES64L-G16RevA.03 25-Dec-2016

 --------------------------------------------
 #p opt UM062X/6-311+G** nosymm int=superfine
 --------------------------------------------

 -------------------
 Title Card Required
 -------------------
 Symbolic Z-matrix:
 Charge =  0 Multiplicity = 1

 SCF Done:  E(UM062X) =  -80.4086170022     A.U. after   16 cycles
 SCF Done:  E(UM062X) =  -80.4119892963     A.U. after    9 cycles
 SCF Done:  E(UM062X) =  -80.4120384102     A.U. after    9 cycles
 Optimization completed.
    -- Stationary point found.

                          Input orientation:
 ---------------------------------------------------------------------
 Center     Atomic      Atomic             Coordinates (Angstroms)
 Number     Number       Type             X           Y           Z
 ---------------------------------------------------------------------
      1          5           0       -1.892066    0.000000    0.000000
      2          7           0        1.892066    0.000000    0.000000
      3          1           0       -3.125431   -0.000525    0.000000
      4          1           0        2.931620    0.000630   -0.000000
 ---------------------------------------------------------------------

 Alpha  occ. eigenvalues --  -14.82502  -7.11967  -0.88967  -0.54176  -0.45482
 Alpha  occ. eigenvalues --   -0.33147  -0.27144
 Alpha virt. eigenvalues --   -0.12030  -0.03937  -0.03887   0.02611   0.03944
 Alpha virt. eigenvalues --    0.06661   0.06772   0.09593   0.13936   0.14967
 Alpha virt. eigenvalues --    0.17325   0.19635   0.25512   0.38850   0.42487

  Beta  occ. eigenvalues --  -14.82502  -7.11967  -0.88967  -0.54176  -0.45482
  Beta  occ. eigenvalues --   -0.33147  -0.27144
  Beta virt. eigenvalues --   -0.12030  -0.03937  -0.03887   0.02611   0.03944
  Beta virt. eigenvalues --    0.06661   0.06772   0.09593   0.13936   0.14967
  Beta virt. eigenvalues --    0.17325   0.19635   0.25512   0.38850   0.42487

 Mulliken charges and spin densities:
               1          2
     1  B   -0.014137  -0.000000
     2  N   -0.192243   0.000000
     3  H   -0.008187   0.000000
     4  H    0.214567  -0.000000
 Sum of Mulliken charges =  -0.00000   0.00000

 Dipole moment (field-independent basis, Debye):
    X=              0.2085    Y=              0.0002    Z=              0.0000  Tot=              0.2085
 Quadrupole moment (field-independent basis, Debye-Ang):
   XX=             -3.8076   YY=            -11.8688   ZZ=            -15.1519
   XY=              0.0018   XZ=              0.0000   YZ=             -0.0001

 Normal termination of Gaussian 16 at Mon Apr 21 18:08:08 2025.
