 Gaussian 16, Revision A.03,
 Gaussian 16:  ES64L-G16RevA.03 25-Dec-2016

 --------------------------------------------
 #p opt UM062X/6-311+G** nosymm int=superfine
 --------------------------------------------

 -------------------
 Title Card Required
 -------------------
 Symbolic Z-matrix:
 Charge =  0 Multiplicity = 1

 SCF Done:  E(UM062X) =  -110.246380043     A.U. after   13 cycles
 SCF Done:  E(UM062X) =  -110.254768520     A.U. after   12 cycles
 SCF Done:  E(UM062X) =  -110.259746369     A.U. after   13 cycles
 SCF Done:  E(UM062X) =  -110.259759374     A.U. after   10 cycles
 Optimization completed.
    -- Stationary point found.

                          Input orientation:
 ---------------------------------------------------------------------
 Center     Atomic      Atomic             Coordinates (Angstroms)
 Number     Number       Type             X           Y           Z
 ---------------------------------------------------------------------
      1          7           0       -1.340428    0.000000    0.000000
      2          7           0        1.340428    0.000000    0.000000
      3          1           0       -1.190176   -1.026776    0.000000
      4          1           0        1.190176    1.026776    0.000000
 ---------------------------------------------------------------------

 Alpha  occ. eigenvalues --  -14.88842 -14.88837  -0.93583  -0.91218  -0.49509
 Alpha  occ. eigenvalues --   -0.48182  -0.34702  -0.31646
 Alpha virt. eigenvalues --   -0.19578  -0.16116   0.05620   0.07519   0.10649
 Alpha virt. eigenvalues --    0.12021   0.13359   0.14807   0.15880   0.19131
 Alpha virt. eigenvalues --    0.19624   0.23930   0.52427   0.55646   0.71436

  Beta  occ. eigenvalues --  -14.88842 -14.88837  -0.93583  -0.91218  -0.49509
  Beta  occ. eigenvalues --   -0.48182  -0.34702  -0.31646
  Beta virt. eigenvalues --   -0.19578  -0.16116   0.05620   0.07519   0.10649
  Beta virt. eigenvalues --    0.12021   0.13359   0.14807   0.15880   0.19131
  Beta virt. eigenvalues --    0.19624   0.23930   0.52427   0.55646   0.71436

 Mulliken charges and spin densities:
               1          2
     1  N   -0.244264   0.000000
     2  N   -0.244264  -0.000000
     3  H    0.244264  -0.000000
     4  H    0.244264   0.000000
 Sum of Mulliken charges =  -0.00000  -0.00000

 Dipole moment (field-independent basis, Debye):
    X=              0.0000    Y=              0.0000    Z=              0.0000  Tot=              0.0000
 Quadrupole moment (field-independent basis, Debye-Ang):
   XX=            -13.8162   YY=            -11.0331   ZZ=            -14.1637
   XY=              4.6284   XZ=              0.0000   YZ=              0.0000

 Normal termination of Gaussian 16 at Thu May 15 15:37:43 2025.
