 Gaussian 16, Revision A.03,
 Gaussian 16:  ES64L-G16RevA.03 25-Dec-2016

 --------------------------------------------
 #p opt UM062X/6-311+G** nosymm int=superfine
 --------------------------------------------

 -------------------
 Title Card Required
 -------------------
 Symbolic Z-matrix:
 Charge =  0 Multiplicity = 1

 SCF Done:  E(UM062X) =  -380.938683152     A.U. after   23 cycles
 SCF Done:  E(UM062X) =  -380.940985845     A.U. after   15 cycles
 SCF Done:  E(UM062X) =  -380.942023522     A.U. after   15 cycles
 SCF Done:  E(UM062X) =  -380.942149502     A.U. after   20 cycles
 SCF Done:  E(UM062X) =  -380.942158434     A.U. after   18 cycles
 SCF Done:  E(UM062X) =  -380.942380139     A.U. after   18 cycles
 SCF Done:  E(UM062X) =  -380.942403227     A.U. after   14 cycles
 SCF Done:  E(UM062X) =  -380.942404834     A.U. after   15 cycles
 SCF Done:  E(UM062X) =  -380.942407696     A.U. after   15 cycles
 SCF Done:  E(UM062X) =  -380.942411803     A.U. after   19 cycles
 SCF Done:  E(UM062X) =  -380.942414635     A.U. after   13 cycles
 SCF Done:  E(UM062X) =  -380.942415979     A.U. after   13 cycles
 SCF Done:  E(UM062X) =  -380.942416145     A.U. after   16 cycles
 SCF Done:  E(UM062X) =  -380.942416157     A.U. after   12 cycles
 Optimization completed.
    -- Stationary point found.

                          Input orientation:
 ---------------------------------------------------------------------
 Center     Atomic      Atomic             Coordinates (Angstroms)
 Number     Number       Type             X           Y           Z
 ---------------------------------------------------------------------
      1          6           0       -1.755452    0.000000    0.000000
      2         15           0        1.755452    0.000000    0.000000
      3          1           0       -2.451507   -0.856911   -0.000693
      4          1           0        1.506861   -1.399393   -0.002474
      5          1           0       -2.405738    0.891943    0.000809
 ---------------------------------------------------------------------

 Alpha  occ. eigenvalues --  -78.03976 -10.63695  -6.86189  -4.98176  -4.97431
 Alpha  occ. eigenvalues --   -4.96993  -0.77862  -0.64922  -0.50414  -0.37665
 Alpha  occ. eigenvalues --   -0.33953  -0.23801
 Alpha virt. eigenvalues --   -0.10347  -0.10161   0.01205   0.04091   0.04747
 Alpha virt. eigenvalues --    0.06251   0.06927   0.07470   0.08779   0.11269
 Alpha virt. eigenvalues --    0.13557   0.17048   0.18420   0.31220   0.34334

  Beta  occ. eigenvalues --  -78.03976 -10.63695  -6.86189  -4.98176  -4.97431
  Beta  occ. eigenvalues --   -4.96993  -0.77862  -0.64922  -0.50414  -0.37665
  Beta  occ. eigenvalues --   -0.33953  -0.23801
  Beta virt. eigenvalues --   -0.10347  -0.10161   0.01205   0.04091   0.04747
  Beta virt. eigenvalues --    0.06251   0.06927   0.07470   0.08779   0.11269
  Beta virt. eigenvalues --    0.13557   0.17048   0.18420   0.31220   0.34334

 Mulliken charges and spin densities:
               1          2
     1  C   -0.305681  -0.000000
     2  P    0.033560  -0.000000
     3  H    0.152355  -0.000000
     4  H   -0.032724   0.000000
     5  H    0.152490   0.000000
 Sum of Mulliken charges =  -0.00000   0.00000

 Dipole moment (field-independent basis, Debye):
    X=             -2.8928    Y=             -0.5959    Z=             -0.0010  Tot=              2.9536
 Quadrupole moment (field-independent basis, Debye-Ang):
   XX=            -13.6211   YY=            -21.3345   ZZ=            -25.4970
   XY=             -1.7620   XZ=             -0.0027   YZ=              0.0077

 Normal termination of Gaussian 16 at Mon Apr 21 19:18:36 2025.
