 Gaussian 16, Revision A.03,
 Gaussian 16:  ES64L-G16RevA.03 25-Dec-2016

 --------------------------------------------
 #p opt UM062X/6-311+G** nosymm int=superfine
 --------------------------------------------

 -------------------
 Title Card Required
 -------------------
 Symbolic Z-matrix:
 Charge =  1 Multiplicity = 2

 SCF Done:  E(UM062X) =  -1615.16983451     A.U. after   23 cycles
 SCF Done:  E(UM062X) =  -1615.37345944     A.U. after   19 cycles
 SCF Done:  E(UM062X) =  -1615.54838533     A.U. after   21 cycles
 SCF Done:  E(UM062X) =  -1615.56749174     A.U. after   19 cycles
 SCF Done:  E(UM062X) =  -1615.57187892     A.U. after   19 cycles
 SCF Done:  E(UM062X) =  -1615.57572927     A.U. after   20 cycles
 SCF Done:  E(UM062X) =  -1615.57656801     A.U. after   20 cycles
 SCF Done:  E(UM062X) =  -1615.56810892     A.U. after   22 cycles
 SCF Done:  E(UM062X) =  -1615.57696216     A.U. after   19 cycles
 SCF Done:  E(UM062X) =  -1615.57725189     A.U. after   19 cycles
 SCF Done:  E(UM062X) =  -1615.57700358     A.U. after   19 cycles
 SCF Done:  E(UM062X) =  -1615.57698332     A.U. after   18 cycles
 SCF Done:  E(UM062X) =  -1615.57727687     A.U. after   18 cycles
 SCF Done:  E(UM062X) =  -1615.57731206     A.U. after   16 cycles
 SCF Done:  E(UM062X) =  -1615.57731443     A.U. after   15 cycles
 SCF Done:  E(UM062X) =  -1615.57731562     A.U. after   14 cycles
 SCF Done:  E(UM062X) =  -1615.57731591     A.U. after   12 cycles
 SCF Done:  E(UM062X) =  -1615.57731594     A.U. after   12 cycles
 Optimization completed.
    -- Stationary point found.

                          Input orientation:
 ---------------------------------------------------------------------
 Center     Atomic      Atomic             Coordinates (Angstroms)
 Number     Number       Type             X           Y           Z
 ---------------------------------------------------------------------
      1          6           0       -1.212710    0.000000    0.000000
      2          6           0        1.212710    0.000000   -0.000000
      3          6           0        0.000009   -2.156416    0.000355
      4          6           0        0.000017   -3.531766    0.000572
      5          6           0       -1.130625   -4.324275    0.279708
      6          6           0       -1.211747   -1.481108    0.261201
      7          6           0        0.658160   -5.720587   -0.163727
      8          1           0        1.269168   -6.598181   -0.319721
      9          6           0       -1.471930    0.839244    1.160498
     10          6           0       -0.658393   -5.720540    0.164390
     11          1           0       -1.269500   -6.598092    0.320240
     12          6           0        1.130549   -4.324357   -0.278799
     13          6           0        1.211721   -1.481156   -0.260923
     14          6           0        1.671313    2.254404   -1.168689
     15          6           0       -1.471236    0.306033   -1.407366
     16          6           0       -1.887924    2.910805    2.397767
     17          1           0       -2.047607    3.982610    2.379711
     18          6           0       -2.302629   -3.664203    0.576303
     19          1           0       -3.217778   -4.197970    0.806257
     20          6           0       -1.553567    1.609421   -1.989266
     21          6           0        2.331086   -2.235427   -0.555335
     22          1           0        3.275563   -1.734010   -0.739463
     23          6           0        1.471423    0.306120    1.407309
     24          6           0        1.553615    1.609506    1.989211
     25          6           0        2.302471   -3.664360   -0.575872
     26          1           0        3.217524   -4.198179   -0.806088
     27          6           0       -1.672009    2.254266    1.168712
     28          6           0       -1.463911    0.194879    2.427762
     29          1           0       -1.279803   -0.867270    2.475726
     30          6           0        1.605548   -0.788171    2.310789
     31          1           0        1.586447   -1.800133    1.937664
     32          6           0       -1.902807    2.243057    3.602064
     33          1           0       -2.077002    2.782303    4.525214
     34          6           0       -2.331197   -2.235275    0.555550
     35          1           0       -3.275698   -1.733791    0.739359
     36          6           0       -1.698459    1.738536   -3.387037
     37          1           0       -1.738988    2.739066   -3.801578
     38          6           0        1.471863    0.839286   -1.160522
     39          6           0       -1.625952    3.133288    0.029890
     40          1           0       -1.674760    4.186851    0.287387
     41          6           0       -1.818791    0.652952   -4.222989
     42          1           0       -1.949044    0.792388   -5.289197
     43          6           0       -1.545365    2.864495   -1.286901
     44          1           0       -1.532887    3.732788   -1.938709
     45          6           0        1.699194    1.738613    3.386916
     46          1           0        1.739682    2.739143    3.801464
     47          6           0       -1.676599    0.864129    3.611714
     48          1           0       -1.658135    0.316243    4.545949
     49          6           0       -1.604887   -0.788256   -2.310932
     50          1           0       -1.585801   -1.800227   -1.937847
     51          6           0        1.820141    0.653030    4.222776
     52          1           0        1.950906    0.792454    5.288923
     53          6           0        1.887191    2.911069   -2.397679
     54          1           0        2.046346    3.982952   -2.379560
     55          6           0        1.789056   -0.627389    3.665852
     56          1           0        1.905989   -1.502574    4.293162
     57          6           0        1.902658    2.243353   -3.601984
     58          1           0        2.076860    2.782679   -4.525085
     59          6           0        1.624455    3.133437   -0.029900
     60          1           0        1.672287    4.187033   -0.287444
     61          6           0       -1.787846   -0.627466   -3.666072
     62          1           0       -1.904420   -1.502652   -4.293450
     63          6           0        1.544337    2.864600    1.286907
     64          1           0        1.531275    3.732873    1.938729
     65          6           0        1.464196    0.194993   -2.427823
     66          1           0        1.280308   -0.867180   -2.475903
     67          6           0        1.676922    0.864356   -3.611710
     68          1           0        1.658821    0.316494   -4.545967
 ---------------------------------------------------------------------

 Alpha  occ. eigenvalues --  -10.71541 -10.71539 -10.68611 -10.68611 -10.68560
 Alpha  occ. eigenvalues --  -10.68560 -10.68288 -10.68287 -10.68035 -10.68034
 Alpha  occ. eigenvalues --  -10.66909 -10.66909 -10.66593 -10.66593 -10.66482
 Alpha  occ. eigenvalues --  -10.66482 -10.66039 -10.66038 -10.65919 -10.65919
 Alpha  occ. eigenvalues --  -10.65738 -10.65738 -10.65720 -10.65719 -10.65695
 Alpha  occ. eigenvalues --  -10.65694 -10.65668 -10.65668 -10.65621 -10.65620
 Alpha  occ. eigenvalues --  -10.65592 -10.65592 -10.65548 -10.65548 -10.65428
 Alpha  occ. eigenvalues --  -10.65267 -10.65266 -10.65050 -10.65050 -10.64104
 Alpha  occ. eigenvalues --  -10.64007 -10.63131  -1.12742  -1.10344  -1.10035
 Alpha  occ. eigenvalues --   -1.08480  -1.07794  -1.05972  -1.04695  -1.02614
 Alpha  occ. eigenvalues --   -1.02131  -1.00679  -1.00634  -0.97929  -0.97644
 Alpha  occ. eigenvalues --   -0.96934  -0.96246  -0.95052  -0.93465  -0.93461
 Alpha  occ. eigenvalues --   -0.92795  -0.91945  -0.87622  -0.87336  -0.84965
 Alpha  occ. eigenvalues --   -0.84712  -0.83053  -0.81485  -0.81347  -0.79870
 Alpha  occ. eigenvalues --   -0.79755  -0.79522  -0.77633  -0.76427  -0.76198
 Alpha  occ. eigenvalues --   -0.75676  -0.75458  -0.73741  -0.70229  -0.69788
 Alpha  occ. eigenvalues --   -0.69150  -0.68472  -0.67740  -0.67594  -0.66980
 Alpha  occ. eigenvalues --   -0.66814  -0.65638  -0.65350  -0.65093  -0.64874
 Alpha  occ. eigenvalues --   -0.63414  -0.63029  -0.62315  -0.62215  -0.61319
 Alpha  occ. eigenvalues --   -0.61158  -0.60737  -0.60426  -0.60120  -0.60055
 Alpha  occ. eigenvalues --   -0.59602  -0.58931  -0.58749  -0.58147  -0.57843
 Alpha  occ. eigenvalues --   -0.57605  -0.56595  -0.55786  -0.55694  -0.55641
 Alpha  occ. eigenvalues --   -0.55001  -0.54166  -0.53286  -0.52839  -0.52697
 Alpha  occ. eigenvalues --   -0.52540  -0.52299  -0.52211  -0.51321  -0.51019
 Alpha  occ. eigenvalues --   -0.50943  -0.50931  -0.50503  -0.49450  -0.49120
 Alpha  occ. eigenvalues --   -0.48943  -0.48563  -0.47930  -0.44545  -0.44162
 Alpha  occ. eigenvalues --   -0.44036  -0.42975  -0.40575  -0.40382  -0.39296
 Alpha  occ. eigenvalues --   -0.38102  -0.37695  -0.37240  -0.33098
 Alpha virt. eigenvalues --   -0.18768  -0.15592  -0.15567  -0.14536  -0.10451
 Alpha virt. eigenvalues --   -0.09917  -0.08810  -0.08578  -0.08336  -0.07591
 Alpha virt. eigenvalues --   -0.07576  -0.07483  -0.06633  -0.06384  -0.06215

  Beta  occ. eigenvalues --  -10.71419 -10.71419 -10.68621 -10.68621 -10.68583
  Beta  occ. eigenvalues --  -10.68582 -10.68246 -10.68246 -10.67998 -10.67997
  Beta  occ. eigenvalues --  -10.66922 -10.66921 -10.66581 -10.66580 -10.66465
  Beta  occ. eigenvalues --  -10.66464 -10.66007 -10.66006 -10.65920 -10.65920
  Beta  occ. eigenvalues --  -10.65736 -10.65736 -10.65722 -10.65722 -10.65680
  Beta  occ. eigenvalues --  -10.65680 -10.65651 -10.65651 -10.65604 -10.65603
  Beta  occ. eigenvalues --  -10.65590 -10.65590 -10.65556 -10.65555 -10.65407
  Beta  occ. eigenvalues --  -10.65275 -10.65275 -10.65046 -10.65046 -10.64104
  Beta  occ. eigenvalues --  -10.64006 -10.63131  -1.12576  -1.10244  -1.09876
  Beta  occ. eigenvalues --   -1.08354  -1.07682  -1.05815  -1.04583  -1.02474
  Beta  occ. eigenvalues --   -1.02004  -1.00525  -1.00468  -0.97825  -0.97549
  Beta  occ. eigenvalues --   -0.96802  -0.96134  -0.95000  -0.93399  -0.93362
  Beta  occ. eigenvalues --   -0.92685  -0.91844  -0.87278  -0.87059  -0.84885
  Beta  occ. eigenvalues --   -0.84642  -0.82976  -0.81359  -0.81262  -0.79779
  Beta  occ. eigenvalues --   -0.79682  -0.79451  -0.77507  -0.76256  -0.76041
  Beta  occ. eigenvalues --   -0.75507  -0.75421  -0.73611  -0.70116  -0.69637
  Beta  occ. eigenvalues --   -0.69018  -0.68371  -0.67663  -0.67533  -0.66855
  Beta  occ. eigenvalues --   -0.66715  -0.65556  -0.65214  -0.64959  -0.64758
  Beta  occ. eigenvalues --   -0.63126  -0.62987  -0.62226  -0.62127  -0.61003
  Beta  occ. eigenvalues --   -0.60997  -0.60587  -0.60293  -0.60066  -0.59995
  Beta  occ. eigenvalues --   -0.59476  -0.58775  -0.58668  -0.58056  -0.57569
  Beta  occ. eigenvalues --   -0.57379  -0.56447  -0.55626  -0.55571  -0.55370
  Beta  occ. eigenvalues --   -0.54984  -0.53784  -0.53116  -0.52747  -0.52603
  Beta  occ. eigenvalues --   -0.52492  -0.52199  -0.52098  -0.50982  -0.50947
  Beta  occ. eigenvalues --   -0.50827  -0.50446  -0.49796  -0.49095  -0.49044
  Beta  occ. eigenvalues --   -0.48799  -0.48500  -0.47543  -0.43952  -0.43804
  Beta  occ. eigenvalues --   -0.43283  -0.42633  -0.40319  -0.40120  -0.38665
  Beta  occ. eigenvalues --   -0.37844  -0.37407  -0.37023
  Beta virt. eigenvalues --   -0.23239  -0.17007  -0.15526  -0.15254  -0.14535
  Beta virt. eigenvalues --   -0.10260  -0.09521  -0.08443  -0.08385  -0.08311
  Beta virt. eigenvalues --   -0.07578  -0.07552  -0.07277  -0.06612  -0.06351

 Mulliken charges and spin densities:
               1          2
     1  C   -0.005814   0.227262
     2  C   -0.004999   0.227331
     3  C    0.187156   0.006263
     4  C    0.111464  -0.000011
     5  C    0.110192   0.005887
     6  C    0.062245  -0.021420
     7  C   -0.304190   0.001550
     8  H    0.176430  -0.000072
     9  C    0.245399  -0.004489
    10  C   -0.304560   0.001546
    11  H    0.176430  -0.000072
    12  C    0.110478   0.005874
    13  C    0.062345  -0.021415
    14  C    0.229208   0.060654
    15  C    0.304237  -0.017250
    16  C   -0.224313  -0.030393
    17  H    0.163842   0.000903
    18  C   -0.456511  -0.001526
    19  H    0.175676   0.000463
    20  C    0.200559   0.092874
    21  C   -0.144477   0.017299
    22  H    0.174711  -0.000477
    23  C    0.304628  -0.017247
    24  C    0.199973   0.092911
    25  C   -0.455919  -0.001528
    26  H    0.175675   0.000463
    27  C    0.228568   0.060701
    28  C   -0.104492   0.035892
    29  H    0.202383  -0.002285
    30  C   -0.278164   0.028649
    31  H    0.224973  -0.001086
    32  C   -0.348658   0.053637
    33  H    0.181348  -0.002815
    34  C   -0.144683   0.017285
    35  H    0.174689  -0.000476
    36  C   -0.090759  -0.041771
    37  H    0.163727   0.001244
    38  C    0.245537  -0.004435
    39  C   -0.258385   0.064637
    40  H    0.167752  -0.004410
    41  C   -0.240893   0.045831
    42  H    0.179902  -0.002172
    43  C   -0.232855   0.026261
    44  H    0.159627  -0.001642
    45  C   -0.091224  -0.041814
    46  H    0.163752   0.001244
    47  C   -0.143684  -0.010339
    48  H    0.169863  -0.001138
    49  C   -0.278414   0.028612
    50  H    0.224967  -0.001086
    51  C   -0.241101   0.045813
    52  H    0.179904  -0.002170
    53  C   -0.225729  -0.030414
    54  H    0.163851   0.000902
    55  C   -0.282547  -0.023409
    56  H    0.175033   0.000542
    57  C   -0.349133   0.053570
    58  H    0.181349  -0.002813
    59  C   -0.257292   0.064673
    60  H    0.167703  -0.004415
    61  C   -0.282741  -0.023409
    62  H    0.175037   0.000542
    63  C   -0.232193   0.026187
    64  H    0.159599  -0.001640
    65  C   -0.104665   0.035936
    66  H    0.202329  -0.002286
    67  C   -0.144013  -0.010376
    68  H    0.169867  -0.001139
 Sum of Mulliken charges =   1.00000   1.00000

 Dipole moment (field-independent basis, Debye):
    X=             -0.0004    Y=              2.4353    Z=             -0.0002  Tot=              2.4353
 Quadrupole moment (field-independent basis, Debye-Ang):
   XX=           -222.4479   YY=           -174.9916   ZZ=           -176.4851
   XY=             -0.0081   XZ=             -1.9320   YZ=              0.0009

 Normal termination of Gaussian 16 at Fri Nov  8 17:17:07 2024.
