 Gaussian 16, Revision A.03,
 Gaussian 16:  ES64L-G16RevA.03 25-Dec-2016

 --------------------------------------------
 #p opt UM062X/6-311+G** nosymm int=superfine
 --------------------------------------------

 -------------------
 Title Card Required
 -------------------
 Symbolic Z-matrix:
 Charge =  0 Multiplicity = 1

 SCF Done:  E(UM062X) =  -79.5900284278     A.U. after   10 cycles
 SCF Done:  E(UM062X) =  -79.5929879926     A.U. after    9 cycles
 SCF Done:  E(UM062X) =  -79.5940317591     A.U. after    9 cycles
 SCF Done:  E(UM062X) =  -79.5940353028     A.U. after    7 cycles
 Optimization completed.
    -- Stationary point found.

                          Input orientation:
 ---------------------------------------------------------------------
 Center     Atomic      Atomic             Coordinates (Angstroms)
 Number     Number       Type             X           Y           Z
 ---------------------------------------------------------------------
      1          6           0       -1.746675    0.000000    0.000000
      2          6           0        1.746800    0.000000    0.000000
      3          1           0        1.831998   -0.931948    0.539268
      4          1           0       -1.831861   -0.933000   -0.537449
      5          1           0        1.831990    0.933000    0.537448
      6          1           0        1.831983   -0.001050   -1.076727
      7          1           0       -1.831873    0.931948   -0.539268
      8          1           0       -1.831862    0.001050    1.076727
 ---------------------------------------------------------------------

 Alpha  occ. eigenvalues --  -10.57122 -10.57121  -0.77008  -0.76408  -0.49026
 Alpha  occ. eigenvalues --   -0.49026  -0.48739  -0.48739  -0.22793
 Alpha virt. eigenvalues --   -0.09825   0.03059   0.05270   0.05340   0.05340
 Alpha virt. eigenvalues --    0.07607   0.07607   0.11368   0.12475   0.18519
 Alpha virt. eigenvalues --    0.18519   0.20682   0.20682   0.23321   0.25004

  Beta  occ. eigenvalues --  -10.57122 -10.57121  -0.77008  -0.76408  -0.49026
  Beta  occ. eigenvalues --   -0.49026  -0.48739  -0.48739  -0.22793
  Beta virt. eigenvalues --   -0.09825   0.03059   0.05270   0.05340   0.05340
  Beta virt. eigenvalues --    0.07607   0.07607   0.11368   0.12475   0.18519
  Beta virt. eigenvalues --    0.18519   0.20682   0.20682   0.23321   0.25004

 Mulliken charges and spin densities:
               1          2
     1  C   -0.526534  -0.000000
     2  C   -0.526535   0.000000
     3  H    0.175511  -0.000000
     4  H    0.175512   0.000000
     5  H    0.175512  -0.000000
     6  H    0.175511  -0.000000
     7  H    0.175511   0.000000
     8  H    0.175511   0.000000
 Sum of Mulliken charges =  -0.00000  -0.00000

 Dipole moment (field-independent basis, Debye):
    X=             -0.0000    Y=             -0.0000    Z=             -0.0000  Tot=              0.0000
 Quadrupole moment (field-independent basis, Debye-Ang):
   XX=            -15.4474   YY=            -14.8387   ZZ=            -14.8388
   XY=             -0.0000   XZ=              0.0000   YZ=              0.0000

 Normal termination of Gaussian 16 at Tue Dec  3 10:04:13 2024.
