 Gaussian 16, Revision A.03,
 Gaussian 16:  ES64L-G16RevA.03 25-Dec-2016

 --------------------------------------------
 #p opt UM062X/6-311+G** nosymm int=superfine
 --------------------------------------------

 -------------------
 Title Card Required
 -------------------
 Symbolic Z-matrix:
 Charge =  0 Multiplicity = 1

 SCF Done:  E(UM062X) =  -581.122166451     A.U. after   10 cycles
 SCF Done:  E(UM062X) =  -581.122994105     A.U. after    8 cycles
 SCF Done:  E(UM062X) =  -581.123283344     A.U. after   11 cycles
 SCF Done:  E(UM062X) =  -581.123283861     A.U. after   11 cycles
 SCF Done:  E(UM062X) =  -581.134478122     A.U. after   17 cycles
 SCF Done:  E(UM062X) =  -581.159673117     A.U. after   13 cycles
 SCF Done:  E(UM062X) =  -581.170225034     A.U. after   12 cycles
 SCF Done:  E(UM062X) =  -581.193507374     A.U. after   16 cycles
 SCF Done:  E(UM062X) =  -581.197702127     A.U. after   11 cycles
 SCF Done:  E(UM062X) =  -581.197721576     A.U. after    9 cycles
 SCF Done:  E(UM062X) =  -581.197722675     A.U. after    8 cycles
 Optimization completed.
    -- Stationary point found.

                          Input orientation:
 ---------------------------------------------------------------------
 Center     Atomic      Atomic             Coordinates (Angstroms)
 Number     Number       Type             X           Y           Z
 ---------------------------------------------------------------------
      1         14           0       -1.637518    0.000000    0.000000
      2         14           0        1.637518    0.000000    0.000000
      3          1           0       -2.134226   -1.119423    0.877247
      4          1           0        2.190829    1.121401   -0.838829
      5          1           0       -2.133096    1.121017    0.875812
      6          1           0        2.192262   -1.120424   -0.839230
 ---------------------------------------------------------------------

 Alpha  occ. eigenvalues --  -67.02664 -67.02343  -5.57304  -5.56984  -3.88582
 Alpha  occ. eigenvalues --   -3.88256  -3.88069  -3.87954  -3.87749  -3.87636
 Alpha  occ. eigenvalues --   -0.58994  -0.57345  -0.39796  -0.39170  -0.31657
 Alpha  occ. eigenvalues --   -0.26616
 Alpha virt. eigenvalues --   -0.10373  -0.03822   0.02210   0.02647   0.03761
 Alpha virt. eigenvalues --    0.04814   0.05517   0.05642   0.05816   0.06336
 Alpha virt. eigenvalues --    0.08442   0.08566   0.12451   0.15976   0.27625

  Beta  occ. eigenvalues --  -67.02664 -67.02343  -5.57304  -5.56984  -3.88582
  Beta  occ. eigenvalues --   -3.88256  -3.88069  -3.87954  -3.87749  -3.87636
  Beta  occ. eigenvalues --   -0.58994  -0.57345  -0.39796  -0.39170  -0.31657
  Beta  occ. eigenvalues --   -0.26616
  Beta virt. eigenvalues --   -0.10373  -0.03822   0.02210   0.02647   0.03761
  Beta virt. eigenvalues --    0.04814   0.05517   0.05642   0.05816   0.06336
  Beta virt. eigenvalues --    0.08442   0.08566   0.12451   0.15976   0.27625

 Mulliken charges and spin densities:
               1          2
     1  Si   0.246308   0.000000
     2  Si   0.256131  -0.000000
     3  H   -0.125989   0.000000
     4  H   -0.125230  -0.000000
     5  H   -0.126007   0.000000
     6  H   -0.125212  -0.000000
 Sum of Mulliken charges =  -0.00000  -0.00000

 Dipole moment (field-independent basis, Debye):
    X=              0.1285    Y=              0.0001    Z=              0.0120  Tot=              0.1291
 Quadrupole moment (field-independent basis, Debye-Ang):
   XX=            -25.1603   YY=            -31.8496   ZZ=            -33.3884
   XY=              0.0007   XZ=              2.8740   YZ=             -0.0001

 Normal termination of Gaussian 16 at Mon Apr 21 20:33:05 2025.
