 Gaussian 16, Revision A.03,
 Gaussian 16:  ES64L-G16RevA.03 25-Dec-2016

 ---------------------------------------
 #p UM062X/6-311+G** force int=superfine
 ---------------------------------------

 -------------------
 Title Card Required
 -------------------
 Symbolic Z-matrix:
 Charge =  1 Multiplicity = 2

                         Standard orientation:
 ---------------------------------------------------------------------
 Center     Atomic      Atomic             Coordinates (Angstroms)
 Number     Number       Type             X           Y           Z
 ---------------------------------------------------------------------
      1          6           0       -0.784591    0.000067   -0.011150
      2          6           0        0.784591    0.000027    0.011153
      3          1           0        1.261122    0.920010   -0.314165
      4          1           0       -1.261262    0.919788    0.314349
      5          1           0        1.261926   -0.919187   -0.314901
      6          1           0        0.645737   -0.000973    1.147630
      7          1           0       -1.261779   -0.919419    0.314695
      8          1           0       -0.645744   -0.000787   -1.147627
 ---------------------------------------------------------------------

 SCF Done:  E(UM062X) =  -79.3719452286     A.U. after   11 cycles

 The electronic state is 2-A.
 Alpha  occ. eigenvalues --  -10.85253 -10.85220  -1.17636  -0.99106  -0.82882
 Alpha  occ. eigenvalues --   -0.80573  -0.75403  -0.71090  -0.64593
 Alpha virt. eigenvalues --   -0.17413  -0.12894  -0.12156  -0.11732  -0.10700
 Alpha virt. eigenvalues --   -0.07697  -0.06472  -0.05903  -0.05707  -0.02019
 Alpha virt. eigenvalues --   -0.00350   0.00206   0.02935   0.03551   0.03996

  Beta  occ. eigenvalues --  -10.85023 -10.84993  -1.14689  -0.96179  -0.79756
  Beta  occ. eigenvalues --   -0.77802  -0.73866  -0.70521
  Beta virt. eigenvalues --   -0.42540  -0.17116  -0.13012  -0.11596  -0.11568
  Beta virt. eigenvalues --   -0.10304  -0.07775  -0.06522  -0.05454  -0.03715
  Beta virt. eigenvalues --   -0.01674   0.00195   0.00602   0.03699   0.04267

 Mulliken charges and spin densities:
               1          2
     1  C   -0.362541   0.367414
     2  C   -0.362535   0.367415
     3  H    0.277245  -0.015711
     4  H    0.277244  -0.015708
     5  H    0.277256  -0.015665
     6  H    0.308035   0.163961
     7  H    0.277260  -0.015668
     8  H    0.308035   0.163962
 Sum of Mulliken charges =   1.00000   1.00000

 Dipole moment (field-independent basis, Debye):
    X=             -0.0000    Y=             -0.0011    Z=             -0.0000  Tot=              0.0011
 Quadrupole moment (field-independent basis, Debye-Ang):
   XX=             -8.1399   YY=            -10.8743   ZZ=             -9.9694
   XY=             -0.0002   XZ=              0.3089   YZ=              0.0000

 Normal termination of Gaussian 16 at Tue Nov 19 08:43:07 2024.
