 Gaussian 16, Revision A.03,
 Gaussian 16:  ES64L-G16RevA.03 25-Dec-2016

 --------------------------------------------
 #p opt UM062X/6-311+G** nosymm int=superfine
 --------------------------------------------

 -------------------
 Title Card Required
 -------------------
 Symbolic Z-matrix:
 Charge =  0 Multiplicity = 1

 SCF Done:  E(UM062X) =  -110.287252463     A.U. after   13 cycles
 SCF Done:  E(UM062X) =  -110.298820652     A.U. after   12 cycles
 SCF Done:  E(UM062X) =  -110.302325779     A.U. after   12 cycles
 SCF Done:  E(UM062X) =  -110.302330356     A.U. after    9 cycles
 Optimization completed.
    -- Stationary point found.

                          Input orientation:
 ---------------------------------------------------------------------
 Center     Atomic      Atomic             Coordinates (Angstroms)
 Number     Number       Type             X           Y           Z
 ---------------------------------------------------------------------
      1          7           0       -1.215428    0.000000    0.000000
      2          7           0        1.215428    0.000000    0.000000
      3          1           0       -1.104054   -1.030582   -0.000000
      4          1           0        1.104054    1.030582   -0.000000
 ---------------------------------------------------------------------

 Alpha  occ. eigenvalues --  -14.88717 -14.88711  -0.94215  -0.90386  -0.49734
 Alpha  occ. eigenvalues --   -0.47751  -0.36266  -0.32473
 Alpha virt. eigenvalues --   -0.18431  -0.13529   0.05703   0.07714   0.10652
 Alpha virt. eigenvalues --    0.12221   0.13290   0.14812   0.16022   0.19397
 Alpha virt. eigenvalues --    0.19832   0.24554   0.53061   0.56055   0.75560

  Beta  occ. eigenvalues --  -14.88717 -14.88711  -0.94215  -0.90386  -0.49734
  Beta  occ. eigenvalues --   -0.47751  -0.36266  -0.32473
  Beta virt. eigenvalues --   -0.18431  -0.13529   0.05703   0.07714   0.10652
  Beta virt. eigenvalues --    0.12221   0.13290   0.14812   0.16022   0.19397
  Beta virt. eigenvalues --    0.19832   0.24554   0.53061   0.56055   0.75560

 Mulliken charges and spin densities:
               1          2
     1  N   -0.246629  -0.000000
     2  N   -0.246629   0.000000
     3  H    0.246629   0.000000
     4  H    0.246629  -0.000000
 Sum of Mulliken charges =   0.00000   0.00000

 Dipole moment (field-independent basis, Debye):
    X=              0.0000    Y=              0.0000    Z=             -0.0000  Tot=              0.0000
 Quadrupole moment (field-independent basis, Debye-Ang):
   XX=            -13.6857   YY=            -10.9267   ZZ=            -14.1062
   XY=              4.3252   XZ=             -0.0000   YZ=             -0.0000

 Normal termination of Gaussian 16 at Thu May 15 15:36:32 2025.
