 Gaussian 16, Revision A.03,
 Gaussian 16:  ES64L-G16RevA.03 25-Dec-2016

 --------------------------------------------
 #p opt UM062X/6-311+G** nosymm int=superfine
 --------------------------------------------

 -------------------
 Title Card Required
 -------------------
 Symbolic Z-matrix:
 Charge =  0 Multiplicity = 1

 SCF Done:  E(UM062X) =  -380.928682402     A.U. after   18 cycles
 SCF Done:  E(UM062X) =  -380.931539547     A.U. after   16 cycles
 SCF Done:  E(UM062X) =  -380.932503384     A.U. after   10 cycles
 SCF Done:  E(UM062X) =  -380.932541534     A.U. after   17 cycles
 SCF Done:  E(UM062X) =  -380.932786567     A.U. after   15 cycles
 SCF Done:  E(UM062X) =  -380.932821606     A.U. after   23 cycles
 SCF Done:  E(UM062X) =  -380.932829298     A.U. after   14 cycles
 SCF Done:  E(UM062X) =  -380.932829686     A.U. after   14 cycles
 SCF Done:  E(UM062X) =  -380.932829943     A.U. after   22 cycles
 SCF Done:  E(UM062X) =  -380.932830826     A.U. after   15 cycles
 SCF Done:  E(UM062X) =  -380.932832541     A.U. after   13 cycles
 SCF Done:  E(UM062X) =  -380.932834644     A.U. after   22 cycles
 SCF Done:  E(UM062X) =  -380.932835150     A.U. after   22 cycles
 SCF Done:  E(UM062X) =  -380.932835164     A.U. after   13 cycles
 Optimization completed.
    -- Stationary point found.

                          Input orientation:
 ---------------------------------------------------------------------
 Center     Atomic      Atomic             Coordinates (Angstroms)
 Number     Number       Type             X           Y           Z
 ---------------------------------------------------------------------
      1          6           0       -2.080452    0.000000    0.000000
      2         15           0        2.080452    0.000000    0.000000
      3          1           0       -2.808480   -0.834121    0.001712
      4          1           0        1.807911   -1.394801   -0.001018
      5          1           0       -2.731673    0.895272   -0.001540
 ---------------------------------------------------------------------

 Alpha  occ. eigenvalues --  -78.04524 -10.62258  -6.86785  -4.98797  -4.98025
 Alpha  occ. eigenvalues --   -4.97564  -0.76901  -0.65615  -0.49006  -0.38294
 Alpha  occ. eigenvalues --   -0.32862  -0.24426
 Alpha virt. eigenvalues --   -0.11309  -0.09416   0.01428   0.03754   0.04628
 Alpha virt. eigenvalues --    0.06057   0.06931   0.07352   0.08782   0.10515
 Alpha virt. eigenvalues --    0.13510   0.17331   0.18824   0.31272   0.33259

  Beta  occ. eigenvalues --  -78.04524 -10.62258  -6.86785  -4.98797  -4.98025
  Beta  occ. eigenvalues --   -4.97564  -0.76901  -0.65615  -0.49006  -0.38294
  Beta  occ. eigenvalues --   -0.32862  -0.24426
  Beta virt. eigenvalues --   -0.11309  -0.09416   0.01428   0.03754   0.04628
  Beta virt. eigenvalues --    0.06057   0.06931   0.07352   0.08782   0.10515
  Beta virt. eigenvalues --    0.13510   0.17331   0.18824   0.31272   0.33259

 Mulliken charges and spin densities:
               1          2
     1  C   -0.285738   0.000000
     2  P    0.041019   0.000000
     3  H    0.138934   0.000000
     4  H   -0.032989  -0.000000
     5  H    0.138775   0.000000
 Sum of Mulliken charges =  -0.00000  -0.00000

 Dipole moment (field-independent basis, Debye):
    X=             -2.5432    Y=             -0.5789    Z=             -0.0002  Tot=              2.6083
 Quadrupole moment (field-independent basis, Debye-Ang):
   XX=            -12.4438   YY=            -21.3421   ZZ=            -25.2761
   XY=             -2.1117   XZ=             -0.0008   YZ=              0.0044

 Normal termination of Gaussian 16 at Mon Apr 21 19:21:52 2025.
