 Gaussian 16, Revision A.03,
 Gaussian 16:  ES64L-G16RevA.03 25-Dec-2016

 --------------------------------------------
 #p opt UM062X/6-311+G** nosymm int=superfine
 --------------------------------------------

 -------------------
 Title Card Required
 -------------------
 Symbolic Z-matrix:
 Charge =  1 Multiplicity = 2

 SCF Done:  E(UM062X) =  -76.7285668097     A.U. after   10 cycles
 SCF Done:  E(UM062X) =  -76.7634275775     A.U. after   10 cycles
 SCF Done:  E(UM062X) =  -76.7900689074     A.U. after   10 cycles
 SCF Done:  E(UM062X) =  -76.7902154312     A.U. after    8 cycles
 Optimization completed.
    -- Stationary point found.

                          Input orientation:
 ---------------------------------------------------------------------
 Center     Atomic      Atomic             Coordinates (Angstroms)
 Number     Number       Type             X           Y           Z
 ---------------------------------------------------------------------
      1          6           0       -0.789105    0.000000    0.000000
      2          6           0        0.789105    0.000000    0.000000
      3          1           0       -1.881217   -0.000013   -0.000012
      4          1           0        1.881212   -0.000013   -0.000013
 ---------------------------------------------------------------------

 Alpha  occ. eigenvalues --  -10.98941 -10.98893  -1.12574  -0.98825  -0.85929
 Alpha  occ. eigenvalues --   -0.65395  -0.63187
 Alpha virt. eigenvalues --   -0.34576  -0.32570  -0.23666  -0.14263  -0.10839
 Alpha virt. eigenvalues --   -0.10655  -0.09333  -0.09091  -0.05252  -0.04916
 Alpha virt. eigenvalues --    0.01753   0.04052   0.09029   0.21701   0.31390

  Beta  occ. eigenvalues --  -10.98698 -10.98664  -1.08476  -0.97108  -0.85197
  Beta  occ. eigenvalues --   -0.61089
  Beta virt. eigenvalues --   -0.41885  -0.30863  -0.26760  -0.21566  -0.15358
  Beta virt. eigenvalues --   -0.11206  -0.10900  -0.09692  -0.09497  -0.05105
  Beta virt. eigenvalues --   -0.04753   0.00994   0.04171   0.09465   0.22551

 Mulliken charges and spin densities:
               1          2
     1  C    0.147909   0.521074
     2  C    0.147908   0.521076
     3  H    0.352093  -0.021075
     4  H    0.352091  -0.021075
 Sum of Mulliken charges =   1.00000   1.00000

 Dipole moment (field-independent basis, Debye):
    X=             -0.0000    Y=             -0.0000    Z=             -0.0000  Tot=              0.0001
 Quadrupole moment (field-independent basis, Debye-Ang):
   XX=              2.1342   YY=            -11.3229   ZZ=            -11.6021
   XY=             -0.0000   XZ=             -0.0000   YZ=             -1.0050

 Normal termination of Gaussian 16 at Tue Nov 19 13:11:44 2024.
