 Gaussian 16, Revision A.03,
 Gaussian 16:  ES64L-G16RevA.03 25-Dec-2016

 --------------------------------------------
 #p opt UM062X/6-311+G** nosymm int=superfine
 --------------------------------------------

 -------------------
 Title Card Required
 -------------------
 Symbolic Z-matrix:
 Charge =  1 Multiplicity = 2

 SCF Done:  E(UM062X) =  -582.169711126     A.U. after   11 cycles
 SCF Done:  E(UM062X) =  -582.169801979     A.U. after    9 cycles
 SCF Done:  E(UM062X) =  -582.169806204     A.U. after    8 cycles
 Optimization completed.
    -- Stationary point found.

                          Input orientation:
 ---------------------------------------------------------------------
 Center     Atomic      Atomic             Coordinates (Angstroms)
 Number     Number       Type             X           Y           Z
 ---------------------------------------------------------------------
      1         14           0       -1.551292    0.000000    0.000000
      2         14           0        1.551292    0.000000    0.000000
      3          1           0        1.728368   -1.454800    0.000019
      4          1           0       -1.728161   -0.727305    1.259967
      5          1           0        1.728670    0.727429   -1.259821
      6          1           0        1.728017    0.727397    1.259935
      7          1           0       -1.728394    1.454796   -0.000086
      8          1           0       -1.728500   -0.727528   -1.259789
 ---------------------------------------------------------------------

 Alpha  occ. eigenvalues --  -67.23888 -67.23888  -5.78752  -5.78751  -4.10455
 Alpha  occ. eigenvalues --   -4.10452  -4.09633  -4.09633  -4.09633  -4.09632
 Alpha  occ. eigenvalues --   -0.84427  -0.81319  -0.63600  -0.63599  -0.62379
 Alpha  occ. eigenvalues --   -0.62379  -0.49574
 Alpha virt. eigenvalues --   -0.24244  -0.15359  -0.11728  -0.11656  -0.11655
 Alpha virt. eigenvalues --   -0.10672  -0.10672  -0.09917  -0.08854  -0.08854
 Alpha virt. eigenvalues --   -0.07489  -0.06498  -0.06498  -0.03559   0.00693

  Beta  occ. eigenvalues --  -67.23620 -67.23620  -5.78680  -5.78679  -4.09788
  Beta  occ. eigenvalues --   -4.09786  -4.09544  -4.09544  -4.09544  -4.09544
  Beta  occ. eigenvalues --   -0.81863  -0.79809  -0.63173  -0.63172  -0.62114
  Beta  occ. eigenvalues --   -0.62114
  Beta virt. eigenvalues --   -0.31132  -0.19659  -0.14863  -0.11418  -0.11417
  Beta virt. eigenvalues --   -0.10785  -0.10678  -0.10677  -0.09701  -0.08173
  Beta virt. eigenvalues --   -0.08173  -0.06264  -0.06264  -0.05506  -0.02898

 Mulliken charges and spin densities:
               1          2
     1  Si   0.495843   0.544569
     2  Si   0.495843   0.544569
     3  H    0.001388  -0.014858
     4  H    0.001381  -0.014851
     5  H    0.001393  -0.014866
     6  H    0.001376  -0.014845
     7  H    0.001389  -0.014858
     8  H    0.001387  -0.014859
 Sum of Mulliken charges =   1.00000   1.00000

 Dipole moment (field-independent basis, Debye):
    X=              0.0000    Y=              0.0000    Z=             -0.0000  Tot=              0.0000
 Quadrupole moment (field-independent basis, Debye-Ang):
   XX=             -9.7391   YY=            -25.7852   ZZ=            -25.7854
   XY=             -0.0002   XZ=              0.0000   YZ=              0.0000

 Normal termination of Gaussian 16 at Mon Apr 21 20:14:30 2025.
