 Gaussian 16, Revision A.03,
 Gaussian 16:  ES64L-G16RevA.03 25-Dec-2016

 --------------------------------------------
 #p opt UM062X/6-311+G** nosymm int=superfine
 --------------------------------------------

 -------------------
 Title Card Required
 -------------------
 Symbolic Z-matrix:
 Charge =  1 Multiplicity = 2

 SCF Done:  E(UM062X) =  -80.1559468006     A.U. after   15 cycles
 SCF Done:  E(UM062X) =  -80.1567940895     A.U. after   10 cycles
 SCF Done:  E(UM062X) =  -80.1567968693     A.U. after    9 cycles
 Optimization completed.
    -- Stationary point found.

                          Input orientation:
 ---------------------------------------------------------------------
 Center     Atomic      Atomic             Coordinates (Angstroms)
 Number     Number       Type             X           Y           Z
 ---------------------------------------------------------------------
      1          5           0       -1.852734    0.000000    0.000000
      2          7           0        1.852734    0.000000    0.000000
      3          1           0       -3.058482   -0.000228    0.000000
      4          1           0        2.888269    0.000087   -0.000000
 ---------------------------------------------------------------------

 Alpha  occ. eigenvalues --  -14.95384  -7.53762  -1.08469  -0.86197  -0.62361
 Alpha  occ. eigenvalues --   -0.54922  -0.54922
 Alpha virt. eigenvalues --   -0.44656  -0.34897  -0.34897  -0.15539  -0.11651
 Alpha virt. eigenvalues --   -0.09949  -0.09949  -0.07843  -0.03964   0.01328
 Alpha virt. eigenvalues --    0.01328   0.03345   0.07848   0.12711   0.12711

  Beta  occ. eigenvalues --  -14.92908  -7.54998  -0.95630  -0.89820  -0.68253
  Beta  occ. eigenvalues --   -0.56706
  Beta virt. eigenvalues --   -0.35983  -0.35983  -0.19688  -0.19688  -0.14619
  Beta virt. eigenvalues --   -0.10651  -0.09721  -0.09721  -0.07080  -0.02839
  Beta virt. eigenvalues --    0.03327   0.03327   0.06322   0.08272   0.16179

 Mulliken charges and spin densities:
               1          2
     1  B    0.754868  -0.843587
     2  N   -0.244697   2.054233
     3  H    0.223557  -0.143150
     4  H    0.266271  -0.067497
 Sum of Mulliken charges =   1.00000   1.00000

 Dipole moment (field-independent basis, Debye):
    X=             -7.3560    Y=             -0.0000    Z=              0.0000  Tot=              7.3560
 Quadrupole moment (field-independent basis, Debye-Ang):
   XX=             18.2377   YY=            -10.2793   ZZ=            -10.2793
   XY=              0.0007   XZ=             -0.0000   YZ=             -0.0000

 Normal termination of Gaussian 16 at Mon Apr 21 17:54:52 2025.
