 Gaussian 16, Revision A.03,
 Gaussian 16:  ES64L-G16RevA.03 25-Dec-2016

 ---------------------------------------------------
 #p UM062X/6-311+G** force int=superfine pop=saveNBO
 ---------------------------------------------------

 -------------------
 Title Card Required
 -------------------
 Symbolic Z-matrix:
 Charge =  0 Multiplicity = 1

                         Standard orientation:
 ---------------------------------------------------------------------
 Center     Atomic      Atomic             Coordinates (Angstroms)
 Number     Number       Type             X           Y           Z
 ---------------------------------------------------------------------
      1          8           0        0.000000    0.711938   -0.053208
      2          8           0       -0.000000   -0.711938   -0.053208
      3          1           0       -0.815009    0.901722    0.425664
      4          1           0        0.815009   -0.901722    0.425664
 ---------------------------------------------------------------------

 SCF Done:  E(UM062X) =  -151.535216695     A.U. after   10 cycles

 The electronic state is 1-A.
 Alpha  occ. eigenvalues --  -19.68964 -19.68946  -1.27169  -1.02168  -0.62367
 Alpha  occ. eigenvalues --   -0.59628  -0.51802  -0.41688  -0.37024
 Alpha virt. eigenvalues --    0.04958   0.06073   0.12062   0.16167   0.18129
 Alpha virt. eigenvalues --    0.18819   0.20981   0.21013   0.22071   0.27649
 Alpha virt. eigenvalues --    0.33731   0.51222   0.52001   0.98474   1.00401

  Beta  occ. eigenvalues --  -19.68964 -19.68946  -1.27169  -1.02168  -0.62367
  Beta  occ. eigenvalues --   -0.59628  -0.51802  -0.41688  -0.37024
  Beta virt. eigenvalues --    0.04958   0.06073   0.12062   0.16167   0.18129
  Beta virt. eigenvalues --    0.18819   0.20981   0.21013   0.22071   0.27649
  Beta virt. eigenvalues --    0.33731   0.51222   0.52001   0.98474   1.00401

 Mulliken charges and spin densities:
               1          2
     1  O   -0.270898   0.000000
     2  O   -0.270898   0.000000
     3  H    0.270898  -0.000000
     4  H    0.270898  -0.000000
 Sum of Mulliken charges =  -0.00000   0.00000

 Dipole moment (field-independent basis, Debye):
    X=              0.0000    Y=             -0.0000    Z=              1.8169  Tot=              1.8169
 Quadrupole moment (field-independent basis, Debye-Ang):
   XX=             -9.5296   YY=            -11.6985   ZZ=            -12.0981
   XY=             -3.2806   XZ=              0.0000   YZ=             -0.0000

 Summary of Natural Population Analysis:

                                       Natural Population
                Natural  -----------------------------------------------
    Atom  No    Charge         Core      Valence    Rydberg      Total
 -----------------------------------------------------------------------
      O    1   -0.22937      0.99991     3.21927    0.01019     4.22937
      O    2   -0.22937      0.99991     3.21927    0.01019     4.22937
      H    3    0.22937      0.00000     0.26796    0.00266     0.27063
      H    4    0.22937      0.00000     0.26796    0.00266     0.27063
 =======================================================================
   * Total *   -0.00000      1.99982     6.97447    0.02570     9.00000

 Optimization completed.
    -- Stationary point found.
 Normal termination of Gaussian 16 at Wed Apr 16 04:50:38 2025.
