 Gaussian 16, Revision A.03,
 Gaussian 16:  ES64L-G16RevA.03 25-Dec-2016

 ---------------------------------------
 #p UM062X/6-311+G** force int=superfine
 ---------------------------------------

 -------------------
 Title Card Required
 -------------------
 Symbolic Z-matrix:
 Charge =  1 Multiplicity = 2

                         Standard orientation:
 ---------------------------------------------------------------------
 Center     Atomic      Atomic             Coordinates (Angstroms)
 Number     Number       Type             X           Y           Z
 ---------------------------------------------------------------------
      1          6           0        0.373974    0.706534   -1.673550
      2          6           0       -0.373978   -0.706528    1.673551
      3          1           0       -1.255890   -1.212490    1.298149
      4          1           0        0.461746   -0.283627   -2.105484
      5          1           0       -0.461710    0.283263    2.106344
      6          1           0        0.576930   -1.225899    1.700340
      7          1           0        1.255782    1.212678   -1.298148
      8          1           0       -0.576835    1.226042   -1.701207
 ---------------------------------------------------------------------

 SCF Done:  E(UM062X) =  -79.3219468764     A.U. after   10 cycles

 The electronic state is 2-A.
 Alpha  occ. eigenvalues --  -10.83982 -10.83980  -1.02540  -1.02049  -0.73529
 Alpha  occ. eigenvalues --   -0.73529  -0.73340  -0.73339  -0.48647
 Alpha virt. eigenvalues --   -0.37283  -0.13035  -0.10204  -0.09692  -0.09692
 Alpha virt. eigenvalues --   -0.06236  -0.06236  -0.04449  -0.03109  -0.00552
 Alpha virt. eigenvalues --   -0.00549   0.01299   0.01301   0.03158   0.08374

  Beta  occ. eigenvalues --  -10.83768 -10.83768  -0.99873  -0.99549  -0.73019
  Beta  occ. eigenvalues --   -0.73018  -0.72809  -0.72809
  Beta virt. eigenvalues --   -0.32781  -0.26538  -0.16098  -0.11061  -0.11060
  Beta virt. eigenvalues --   -0.10183  -0.06264  -0.06263  -0.05014  -0.02170
  Beta virt. eigenvalues --   -0.00869  -0.00866   0.01574   0.01576   0.03078

 Mulliken charges and spin densities:
               1          2
     1  C   -0.258287   0.558312
     2  C   -0.258287   0.558312
     3  H    0.252790  -0.019425
     4  H    0.252728  -0.019454
     5  H    0.252750  -0.019454
     6  H    0.252747  -0.019433
     7  H    0.252791  -0.019425
     8  H    0.252768  -0.019433
 Sum of Mulliken charges =   1.00000   1.00000

 Dipole moment (field-independent basis, Debye):
    X=              0.0000    Y=             -0.0001    Z=             -0.0000  Tot=              0.0001
 Quadrupole moment (field-independent basis, Debye-Ang):
   XX=            -10.4334   YY=             -8.7181   ZZ=              2.2660
   XY=              1.2621   XZ=             -2.9887   YZ=             -5.6446

 Normal termination of Gaussian 16 at Wed Nov 13 13:05:16 2024.
