 Gaussian 16, Revision A.03,
 Gaussian 16:  ES64L-G16RevA.03 25-Dec-2016

 --------------------------------------------
 #p opt UM062X/6-311+G** nosymm int=superfine
 --------------------------------------------

 -------------------
 Title Card Required
 -------------------
 Symbolic Z-matrix:
 Charge =  1 Multiplicity = 2

 SCF Done:  E(UM062X) =  -92.5742993841     A.U. after   18 cycles
 SCF Done:  E(UM062X) =  -92.5746198574     A.U. after   10 cycles
 Optimization completed.
    -- Stationary point found.

                          Input orientation:
 ---------------------------------------------------------------------
 Center     Atomic      Atomic             Coordinates (Angstroms)
 Number     Number       Type             X           Y           Z
 ---------------------------------------------------------------------
      1          6           0       -1.901540    0.000000    0.000000
      2          7           0        1.901540    0.000000    0.000000
      3          1           0       -3.018531    0.000000    0.000000
 ---------------------------------------------------------------------

 Alpha  occ. eigenvalues --  -15.21158 -10.97953  -1.16641  -0.99041  -0.71704
 Alpha  occ. eigenvalues --   -0.68644  -0.65601
 Alpha virt. eigenvalues --   -0.42023  -0.34364  -0.32868  -0.13750  -0.09853
 Alpha virt. eigenvalues --   -0.07891  -0.07169  -0.04228  -0.02232  -0.01802
 Alpha virt. eigenvalues --   -0.01692   0.06976   0.25543   0.35071   0.35304

  Beta  occ. eigenvalues --  -15.18568 -10.98329  -1.04873  -1.01213  -0.66817
  Beta  occ. eigenvalues --   -0.50507
  Beta virt. eigenvalues --   -0.42967  -0.38585  -0.36232  -0.33872  -0.13538
  Beta virt. eigenvalues --   -0.10252  -0.08415  -0.08003  -0.04745  -0.02577
  Beta virt. eigenvalues --   -0.02193  -0.01698   0.05226   0.26155   0.34655

 Mulliken charges and spin densities:
               1          2
     1  C    0.301219  -0.467045
     2  N    0.452236   1.451872
     3  H    0.246546   0.015172
 Sum of Mulliken charges =   1.00000   1.00000

 Dipole moment (field-independent basis, Debye):
    X=             -3.0837    Y=              0.0000    Z=              0.0000  Tot=              3.0837
 Quadrupole moment (field-independent basis, Debye-Ang):
   XX=             17.2316   YY=            -10.2491   ZZ=            -10.4277
   XY=              0.0000   XZ=              0.0000   YZ=             -0.9050

 Normal termination of Gaussian 16 at Mon Apr 21 18:37:01 2025.
