 Gaussian 16, Revision A.03,
 Gaussian 16:  ES64L-G16RevA.03 25-Dec-2016

 ---------------------------------------------------
 #p UM062X/6-311+G** force int=superfine pop=saveNBO
 ---------------------------------------------------

 -------------------
 Title Card Required
 -------------------
 Symbolic Z-matrix:
 Charge =  0 Multiplicity = 1

                         Standard orientation:
 ---------------------------------------------------------------------
 Center     Atomic      Atomic             Coordinates (Angstroms)
 Number     Number       Type             X           Y           Z
 ---------------------------------------------------------------------
      1          8           0        0.000000    0.000000    1.168562
      2          8           0        0.000000    0.000000   -1.168562
 ---------------------------------------------------------------------

 SCF Done:  E(UM062X) =  -149.901773593     A.U. after    9 cycles

 Unable to determine electronic state:  partially filled degenerate orbitals.
 Alpha  occ. eigenvalues --  -19.83842 -19.83836  -1.12307  -1.09020  -0.49843
 Alpha  occ. eigenvalues --   -0.47953  -0.46208  -0.42647
 Alpha virt. eigenvalues --   -0.28857  -0.24781   0.10228   0.12783   0.14975
 Alpha virt. eigenvalues --    0.15066   0.20317   0.20621   0.21520   0.31368
 Alpha virt. eigenvalues --    0.92122   0.96835   0.97883   1.04810   1.06151

  Beta  occ. eigenvalues --  -19.83842 -19.83836  -1.12307  -1.09020  -0.49843
  Beta  occ. eigenvalues --   -0.47953  -0.46208  -0.42647
  Beta virt. eigenvalues --   -0.28857  -0.24781   0.10228   0.12783   0.14975
  Beta virt. eigenvalues --    0.15066   0.20317   0.20621   0.21520   0.31368
  Beta virt. eigenvalues --    0.92122   0.96835   0.97883   1.04810   1.06151

 Mulliken charges and spin densities:
               1          2
     1  O   -0.000000   0.000000
     2  O   -0.000000   0.000000
 Sum of Mulliken charges =  -0.00000   0.00000

 Dipole moment (field-independent basis, Debye):
    X=             -0.0000    Y=             -0.0000    Z=              0.0000  Tot=              0.0000
 Quadrupole moment (field-independent basis, Debye-Ang):
   XX=            -10.1752   YY=            -11.9375   ZZ=             -9.1749
   XY=              0.0000   XZ=             -0.0000   YZ=              0.0000

 Summary of Natural Population Analysis:

                                       Natural Population
                Natural  -----------------------------------------------
    Atom  No    Charge         Core      Valence    Rydberg      Total
 -----------------------------------------------------------------------
      O    1    0.00000      1.00000     2.99918    0.00082     4.00000
      O    2    0.00000      1.00000     2.99918    0.00082     4.00000
 =======================================================================
   * Total *    0.00000      2.00000     5.99836    0.00164     8.00000

 Normal termination of Gaussian 16 at Mon Apr 21 19:48:23 2025.
