 Gaussian 16, Revision A.03,
 Gaussian 16:  ES64L-G16RevA.03 25-Dec-2016

 --------------------------------------------
 #p opt UM062X/6-311+G** nosymm int=superfine
 --------------------------------------------

 -------------------
 Title Card Required
 -------------------
 Symbolic Z-matrix:
 Charge =  1 Multiplicity = 2

 SCF Done:  E(UM062X) =  -76.5858210354     A.U. after   17 cycles
 SCF Done:  E(UM062X) =  -76.5861706660     A.U. after   56 cycles
 Optimization completed.
    -- Stationary point found.

                          Input orientation:
 ---------------------------------------------------------------------
 Center     Atomic      Atomic             Coordinates (Angstroms)
 Number     Number       Type             X           Y           Z
 ---------------------------------------------------------------------
      1          6           0       -1.732160    0.000000    0.000000
      2          6           0        1.732160    0.000000    0.000000
      3          1           0       -2.850091    0.000000   -0.000000
      4          1           0        2.850091    0.000000    0.000000
 ---------------------------------------------------------------------

 Alpha  occ. eigenvalues --  -10.94814 -10.94813  -0.98511  -0.98268  -0.64917
 Alpha  occ. eigenvalues --   -0.62527  -0.48845
 Alpha virt. eigenvalues --   -0.40450  -0.33801  -0.33189  -0.12569  -0.11485
 Alpha virt. eigenvalues --   -0.07848  -0.07355  -0.05361  -0.04894  -0.04519
 Alpha virt. eigenvalues --   -0.01537  -0.00377   0.05974   0.23779   0.30583

  Beta  occ. eigenvalues --  -10.94407 -10.94407  -0.96114  -0.95980  -0.63591
  Beta  occ. eigenvalues --   -0.61115
  Beta virt. eigenvalues --   -0.32014  -0.31264  -0.30439  -0.29607  -0.13065
  Beta virt. eigenvalues --   -0.11405  -0.07325  -0.06594  -0.06156  -0.04181
  Beta virt. eigenvalues --   -0.03262  -0.02138   0.01266   0.07462   0.23087

 Mulliken charges and spin densities:
               1          2
     1  C    0.262487   0.516507
     2  C    0.262486   0.516507
     3  H    0.237513  -0.016507
     4  H    0.237513  -0.016507
 Sum of Mulliken charges =   1.00000   1.00000

 Dipole moment (field-independent basis, Debye):
    X=             -0.0000    Y=             -0.0000    Z=             -0.0000  Tot=              0.0000
 Quadrupole moment (field-independent basis, Debye-Ang):
   XX=             18.0207   YY=            -11.3793   ZZ=             -9.6465
   XY=             -0.0000   XZ=              0.0000   YZ=             -0.5228

 Normal termination of Gaussian 16 at Tue Dec  3 11:30:05 2024.
