 Gaussian 16, Revision A.03,
 Gaussian 16:  ES64L-G16RevA.03 25-Dec-2016

 --------------------------------------------
 #p opt UM062X/6-311+G** nosymm int=superfine
 --------------------------------------------

 -------------------
 Title Card Required
 -------------------
 Symbolic Z-matrix:
 Charge =  0 Multiplicity = 1

 SCF Done:  E(UM062X) =  -80.4012528901     A.U. after   18 cycles
 SCF Done:  E(UM062X) =  -80.4051668296     A.U. after   13 cycles
 SCF Done:  E(UM062X) =  -80.4052466030     A.U. after   12 cycles
 SCF Done:  E(UM062X) =  -80.4061792104     A.U. after   15 cycles
 SCF Done:  E(UM062X) =  -80.4173467983     A.U. after   14 cycles
 SCF Done:  E(UM062X) =  -80.4229995194     A.U. after   15 cycles
 SCF Done:  E(UM062X) =  -80.4306514528     A.U. after   13 cycles
 SCF Done:  E(UM062X) =  -80.4307265872     A.U. after    9 cycles
 SCF Done:  E(UM062X) =  -80.4325487330     A.U. after   19 cycles
 SCF Done:  E(UM062X) =  -80.4196124550     A.U. after   19 cycles
 SCF Done:  E(UM062X) =  -80.4357591781     A.U. after   15 cycles
 SCF Done:  E(UM062X) =  -80.4363024805     A.U. after   16 cycles
 SCF Done:  E(UM062X) =  -80.4365892816     A.U. after   16 cycles
 SCF Done:  E(UM062X) =  -80.4371532686     A.U. after   22 cycles
 SCF Done:  E(UM062X) =  -80.4374241260     A.U. after   13 cycles
 SCF Done:  E(UM062X) =  -80.4374486006     A.U. after   15 cycles
 SCF Done:  E(UM062X) =  -80.4374522720     A.U. after   14 cycles
 SCF Done:  E(UM062X) =  -80.4374526925     A.U. after   14 cycles
 Optimization completed.
    -- Stationary point found.

                          Input orientation:
 ---------------------------------------------------------------------
 Center     Atomic      Atomic             Coordinates (Angstroms)
 Number     Number       Type             X           Y           Z
 ---------------------------------------------------------------------
      1          5           0       -1.467095   -0.000081    0.000000
      2          7           0        1.467051    0.000036   -0.000000
      3          1           0       -2.637547   -0.205997    0.260447
      4          1           0        1.339401    0.637352   -0.806521
 ---------------------------------------------------------------------

 Alpha  occ. eigenvalues --  -14.78779  -7.17420  -0.85400  -0.58592  -0.42282
 Alpha  occ. eigenvalues --   -0.31873  -0.29611
 Alpha virt. eigenvalues --   -0.08785  -0.07047  -0.06445   0.01140   0.04205
 Alpha virt. eigenvalues --    0.05337   0.05385   0.11790   0.15488   0.17019
 Alpha virt. eigenvalues --    0.18035   0.21013   0.25387   0.35517   0.39497

  Beta  occ. eigenvalues --  -14.78779  -7.17420  -0.85400  -0.58592  -0.42282
  Beta  occ. eigenvalues --   -0.31873  -0.29611
  Beta virt. eigenvalues --   -0.08785  -0.07047  -0.06445   0.01140   0.04205
  Beta virt. eigenvalues --    0.05337   0.05385   0.11790   0.15488   0.17019
  Beta virt. eigenvalues --    0.18035   0.21013   0.25387   0.35517   0.39497

 Mulliken charges and spin densities:
               1          2
     1  B    0.052950   0.000000
     2  N   -0.267906  -0.000000
     3  H    0.030955   0.000000
     4  H    0.184001  -0.000000
 Sum of Mulliken charges =  -0.00000  -0.00000

 Dipole moment (field-independent basis, Debye):
    X=             -3.6217    Y=              0.6888    Z=             -0.8719  Tot=              3.7883
 Quadrupole moment (field-independent basis, Debye-Ang):
   XX=             -9.9013   YY=            -14.1543   ZZ=            -13.5536
   XY=              1.6312   XZ=             -2.0639   YZ=             -1.2640

 Normal termination of Gaussian 16 at Mon Apr 21 18:07:25 2025.
