 Gaussian 16, Revision A.03,
 Gaussian 16:  ES64L-G16RevA.03 25-Dec-2016

 --------------------------------------------
 #p opt UM062X/6-311+G** nosymm int=superfine
 --------------------------------------------

 -------------------
 Title Card Required
 -------------------
 Symbolic Z-matrix:
 Charge =  0 Multiplicity = 2

 SCF Done:  E(UM062X) =  -39.8096223508     A.U. after   10 cycles
 SCF Done:  E(UM062X) =  -39.8180785509     A.U. after   11 cycles
 SCF Done:  E(UM062X) =  -39.8204653724     A.U. after   11 cycles
 SCF Done:  E(UM062X) =  -39.8207931373     A.U. after   10 cycles
 SCF Done:  E(UM062X) =  -39.8208586418     A.U. after    9 cycles
 SCF Done:  E(UM062X) =  -39.8208671748     A.U. after    8 cycles
 SCF Done:  E(UM062X) =  -39.8208686753     A.U. after    8 cycles
 Optimization completed.
    -- Stationary point found.

                          Input orientation:
 ---------------------------------------------------------------------
 Center     Atomic      Atomic             Coordinates (Angstroms)
 Number     Number       Type             X           Y           Z
 ---------------------------------------------------------------------
      1          6           0       -0.992060    0.017950   -0.000048
      2          1           0       -1.025272   -0.519788    0.934573
      3          1           0       -0.924798    1.094653   -0.000939
      4          1           0       -1.023863   -0.521227   -0.933921
 ---------------------------------------------------------------------

 Alpha  occ. eigenvalues --  -10.54495  -0.77839  -0.49114  -0.49111  -0.28694
 Alpha virt. eigenvalues --    0.03944   0.05986   0.05986   0.09091   0.18983
 Alpha virt. eigenvalues --    0.19450   0.19452   0.44022   0.44023   0.48677
 Alpha virt. eigenvalues --    0.57584   0.65716   0.65720   0.75491   1.09616

  Beta  occ. eigenvalues --  -10.53806  -0.73026  -0.47830  -0.47827
  Beta virt. eigenvalues --   -0.04277   0.02681   0.06172   0.06172   0.12576
  Beta virt. eigenvalues --    0.19838   0.19840   0.20587   0.43374   0.43375
  Beta virt. eigenvalues --    0.49513   0.59736   0.67914   0.67918   0.77449

 Mulliken charges and spin densities:
               1          2
     1  C   -0.484063   1.150245
     2  H    0.161357  -0.050081
     3  H    0.161356  -0.050081
     4  H    0.161350  -0.050083
 Sum of Mulliken charges =  -0.00000   1.00000

 Dipole moment (field-independent basis, Debye):
    X=              0.0017    Y=             -0.0001    Z=             -0.0000  Tot=              0.0017
 Quadrupole moment (field-independent basis, Debye-Ang):
   XX=             -9.2568   YY=             -7.2610   ZZ=             -7.2537
   XY=              0.1237   XZ=             -0.0016   YZ=             -0.0001

 1\1\GINC-NODE02\FOpt\UM062X\6-311+G(d,p)\C1H3(2)\SZHAO\16-Apr-2025\0\\
 #p opt UM062X/6-311+G** nosymm int=superfine\\Title Card Required\\0,2
 \C,-0.9920604653,0.0179502969,-0.0000475591\H,-1.0252718421,-0.5197875
 197,0.934572942\H,-0.9247983625,1.0946534719,-0.0009393074\H,-1.023862
 7101,-0.5212273691,-0.9339210456\\Version=ES64L-G16RevA.03\HF=-39.8208
 687\S2=0.754649\S2-1=0.\S2A=0.750015\RMSD=2.325e-09\RMSF=1.660e-05\Dip
 ole=0.0006752,-0.0000505,-0.0000114\Quadrupole=-0.9910232,0.4927836,0.
 4982395,0.0919669,-0.0011812,-0.0000942\PG=C01 [X(C1H3)]\\@

 Normal termination of Gaussian 16 at Wed Apr 16 08:32:23 2025.
