 Gaussian 16, Revision A.03,
 Gaussian 16:  ES64L-G16RevA.03 25-Dec-2016

 ---------------------------------------------------
 #p UM062X/6-311+G** force int=superfine pop=saveNBO
 ---------------------------------------------------

 -------------------
 Title Card Required
 -------------------
 Symbolic Z-matrix:
 Charge =  0 Multiplicity = 1

                         Standard orientation:
 ---------------------------------------------------------------------
 Center     Atomic      Atomic             Coordinates (Angstroms)
 Number     Number       Type             X           Y           Z
 ---------------------------------------------------------------------
      1          6           0        0.000000    0.000000   -1.526951
      2          8           0        0.000000    0.000000    1.145213
 ---------------------------------------------------------------------

 SCF Done:  E(UM062X) =  -112.783682242     A.U. after   24 cycles

 The electronic state is 1-SG.
 Alpha  occ. eigenvalues --  -19.68397 -10.79315  -0.99342  -0.70052  -0.37767
 Alpha  occ. eigenvalues --   -0.37767  -0.34060
 Alpha virt. eigenvalues --   -0.15859  -0.15859  -0.12935   0.03226   0.06390
 Alpha virt. eigenvalues --    0.06390   0.07210   0.19016   0.21697   0.21697
 Alpha virt. eigenvalues --    0.30169   0.52863   0.52863   0.55848   0.63531

  Beta  occ. eigenvalues --  -19.68397 -10.79315  -0.99342  -0.70052  -0.37767
  Beta  occ. eigenvalues --   -0.37767  -0.34060
  Beta virt. eigenvalues --   -0.15859  -0.15859  -0.12935   0.03226   0.06390
  Beta virt. eigenvalues --    0.06390   0.07210   0.19016   0.21697   0.21697
  Beta virt. eigenvalues --    0.30169   0.52863   0.52863   0.55848   0.63531

 Mulliken charges and spin densities:
               1          2
     1  C    0.246506  -0.000000
     2  O   -0.246506   0.000000
 Sum of Mulliken charges =  -0.00000   0.00000

 Dipole moment (field-independent basis, Debye):
    X=              0.0000    Y=              0.0000    Z=             -3.2326  Tot=              3.2326
 Quadrupole moment (field-independent basis, Debye-Ang):
   XX=            -11.2091   YY=            -11.2091   ZZ=            -11.1767
   XY=              0.0000   XZ=              0.0000   YZ=              0.0000

 Summary of Natural Population Analysis:

                                       Natural Population
                Natural  -----------------------------------------------
    Atom  No    Charge         Core      Valence    Rydberg      Total
 -----------------------------------------------------------------------
      C    1    0.16575      1.00000     1.83373    0.00053     2.83425
      O    2   -0.16575      1.00000     3.16511    0.00063     4.16575
 =======================================================================
   * Total *    0.00000      2.00000     4.99884    0.00116     7.00000

 Normal termination of Gaussian 16 at Mon Apr 21 19:32:11 2025.
