 Gaussian 16, Revision A.03,
 Gaussian 16:  ES64L-G16RevA.03 25-Dec-2016

 --------------------------------------------
 #p opt UM062X/6-311+G** nosymm int=superfine
 --------------------------------------------

 -------------------
 Title Card Required
 -------------------
 Symbolic Z-matrix:
 Charge =  0 Multiplicity = 1

 SCF Done:  E(UM062X) =  -582.385113774     A.U. after   10 cycles
 SCF Done:  E(UM062X) =  -582.387327076     A.U. after    9 cycles
 SCF Done:  E(UM062X) =  -582.387899235     A.U. after    9 cycles
 Optimization completed.
    -- Stationary point found.

                          Input orientation:
 ---------------------------------------------------------------------
 Center     Atomic      Atomic             Coordinates (Angstroms)
 Number     Number       Type             X           Y           Z
 ---------------------------------------------------------------------
      1         14           0       -2.194819    0.000000    0.000000
      2         14           0        2.194819    0.000000    0.000000
      3          1           0        2.602389   -1.418099   -0.000055
      4          1           0       -2.602348   -0.708955    1.228186
      5          1           0        2.602479    0.709127   -1.228043
      6          1           0        2.602357    0.709008    1.228152
      7          1           0       -2.602392    1.418098   -0.000111
      8          1           0       -2.602485   -0.709181   -1.228009
 ---------------------------------------------------------------------

 Alpha  occ. eigenvalues --  -67.01849 -67.01849  -5.56733  -5.56732  -3.87965
 Alpha  occ. eigenvalues --   -3.87964  -3.87731  -3.87731  -3.87731  -3.87731
 Alpha  occ. eigenvalues --   -0.61132  -0.60777  -0.42049  -0.42048  -0.41962
 Alpha  occ. eigenvalues --   -0.41961  -0.22316
 Alpha virt. eigenvalues --   -0.10207   0.02083   0.02929   0.02929   0.03311
 Alpha virt. eigenvalues --    0.05116   0.05116   0.05938   0.06795   0.07430
 Alpha virt. eigenvalues --    0.07430   0.08711   0.08711   0.12247   0.16017

  Beta  occ. eigenvalues --  -67.01849 -67.01849  -5.56733  -5.56732  -3.87965
  Beta  occ. eigenvalues --   -3.87964  -3.87731  -3.87731  -3.87731  -3.87731
  Beta  occ. eigenvalues --   -0.61132  -0.60777  -0.42049  -0.42048  -0.41962
  Beta  occ. eigenvalues --   -0.41961  -0.22316
  Beta virt. eigenvalues --   -0.10207   0.02083   0.02929   0.02929   0.03311
  Beta virt. eigenvalues --    0.05116   0.05116   0.05938   0.06795   0.07430
  Beta virt. eigenvalues --    0.07430   0.08711   0.08711   0.12247   0.16017

 Mulliken charges and spin densities:
               1          2
     1  Si   0.269097  -0.000000
     2  Si   0.269097   0.000000
     3  H   -0.089698  -0.000000
     4  H   -0.089699  -0.000000
     5  H   -0.089700   0.000000
     6  H   -0.089699  -0.000000
     7  H   -0.089698  -0.000000
     8  H   -0.089700  -0.000000
 Sum of Mulliken charges =  -0.00000  -0.00000

 Dipole moment (field-independent basis, Debye):
    X=              0.0000    Y=             -0.0000    Z=              0.0000  Tot=              0.0000
 Quadrupole moment (field-independent basis, Debye-Ang):
   XX=            -28.2384   YY=            -32.1333   ZZ=            -32.1333
   XY=             -0.0003   XZ=              0.0000   YZ=              0.0000

 Normal termination of Gaussian 16 at Mon Apr 21 20:20:02 2025.
