 Gaussian 16, Revision A.03,
 Gaussian 16:  ES64L-G16RevA.03 25-Dec-2016

 --------------------------------------------
 #p opt UM062X/6-311+G** nosymm int=superfine
 --------------------------------------------

 -------------------
 Title Card Required
 -------------------
 Symbolic Z-matrix:
 Charge =  1 Multiplicity = 2

 SCF Done:  E(UM062X) =  -79.3635302320     A.U. after   10 cycles
 SCF Done:  E(UM062X) =  -79.3653501964     A.U. after    8 cycles
 SCF Done:  E(UM062X) =  -79.3653729288     A.U. after    8 cycles
 Optimization completed.
    -- Stationary point found.

                          Input orientation:
 ---------------------------------------------------------------------
 Center     Atomic      Atomic             Coordinates (Angstroms)
 Number     Number       Type             X           Y           Z
 ---------------------------------------------------------------------
      1          6           0       -1.112804    0.000000    0.000000
      2          6           0        1.112804    0.000000    0.000000
      3          1           0        1.219651   -0.934311    0.540701
      4          1           0       -1.219006   -0.935430   -0.538899
      5          1           0        1.219336    0.935483    0.538741
      6          1           0        1.219020   -0.001111   -1.079555
      7          1           0       -1.219669    0.934361   -0.540612
      8          1           0       -1.219333    0.000952    1.079524
 ---------------------------------------------------------------------

 Alpha  occ. eigenvalues --  -10.85951 -10.85943  -1.08566  -1.02028  -0.77638
 Alpha  occ. eigenvalues --   -0.77637  -0.74070  -0.74069  -0.60322
 Alpha virt. eigenvalues --   -0.27819  -0.16023  -0.10926  -0.10926  -0.09931
 Alpha virt. eigenvalues --   -0.06872  -0.06304  -0.06304  -0.04913  -0.04911
 Alpha virt. eigenvalues --   -0.02360   0.01677   0.01680   0.04819   0.07315

  Beta  occ. eigenvalues --  -10.85741 -10.85740  -1.05222  -0.99291  -0.76765
  Beta  occ. eigenvalues --   -0.76764  -0.73358  -0.73357
  Beta virt. eigenvalues --   -0.37471  -0.19951  -0.15897  -0.11083  -0.11083
  Beta virt. eigenvalues --   -0.08917  -0.06987  -0.06599  -0.06599  -0.04552
  Beta virt. eigenvalues --   -0.04550  -0.01553   0.02233   0.02235   0.05259

 Mulliken charges and spin densities:
               1          2
     1  C   -0.306839   0.561525
     2  C   -0.306838   0.561525
     3  H    0.268959  -0.020519
     4  H    0.268933  -0.020499
     5  H    0.268946  -0.020505
     6  H    0.268933  -0.020501
     7  H    0.268959  -0.020519
     8  H    0.268946  -0.020507
 Sum of Mulliken charges =   1.00000   1.00000

 Dipole moment (field-independent basis, Debye):
    X=              0.0000    Y=             -0.0000    Z=             -0.0000  Tot=              0.0000
 Quadrupole moment (field-independent basis, Debye-Ang):
   XX=             -5.4048   YY=            -10.8417   ZZ=            -10.8418
   XY=             -0.0006   XZ=              0.0003   YZ=             -0.0000

 Normal termination of Gaussian 16 at Wed Nov 13 13:24:32 2024.
