 Gaussian 16, Revision A.03,
 Gaussian 16:  ES64L-G16RevA.03 25-Dec-2016

 --------------------------------------------
 #p opt UM062X/6-311+G** nosymm int=superfine
 --------------------------------------------

 -------------------
 Title Card Required
 -------------------
 Symbolic Z-matrix:
 Charge =  0 Multiplicity = 1

 SCF Done:  E(UM062X) =  -474.445859658     A.U. after   16 cycles
 SCF Done:  E(UM062X) =  -474.453738347     A.U. after   13 cycles
 SCF Done:  E(UM062X) =  -474.453892968     A.U. after   14 cycles
 SCF Done:  E(UM062X) =  -474.454071689     A.U. after   16 cycles
 SCF Done:  E(UM062X) =  -474.454211837     A.U. after   17 cycles
 SCF Done:  E(UM062X) =  -474.454300330     A.U. after   15 cycles
 SCF Done:  E(UM062X) =  -474.454316658     A.U. after   14 cycles
 SCF Done:  E(UM062X) =  -474.454317334     A.U. after   14 cycles
 SCF Done:  E(UM062X) =  -474.454317355     A.U. after   10 cycles
 Optimization completed.
    -- Stationary point found.

                          Input orientation:
 ---------------------------------------------------------------------
 Center     Atomic      Atomic             Coordinates (Angstroms)
 Number     Number       Type             X           Y           Z
 ---------------------------------------------------------------------
      1          8           0       -1.286007    0.000001   -0.000004
      2         16           0        1.286007   -0.000001    0.000004
      3          1           0       -1.320109   -0.501789    0.828502
      4          1           0        1.175946   -0.666057   -1.163398
 ---------------------------------------------------------------------

 Alpha  occ. eigenvalues --  -89.97500 -19.67461  -8.33538  -6.25757  -6.25386
 Alpha  occ. eigenvalues --   -6.24835  -1.08856  -0.83229  -0.52817  -0.49208
 Alpha  occ. eigenvalues --   -0.39948  -0.38901  -0.34972
 Alpha virt. eigenvalues --   -0.16546   0.01588   0.04069   0.04747   0.05661
 Alpha virt. eigenvalues --    0.07441   0.14923   0.19506   0.20006   0.21470
 Alpha virt. eigenvalues --    0.26686   0.31313   0.34039   0.35440   0.40168

  Beta  occ. eigenvalues --  -89.97500 -19.67461  -8.33538  -6.25757  -6.25386
  Beta  occ. eigenvalues --   -6.24835  -1.08856  -0.83229  -0.52817  -0.49208
  Beta  occ. eigenvalues --   -0.39948  -0.38901  -0.34972
  Beta virt. eigenvalues --   -0.16546   0.01588   0.04069   0.04747   0.05661
  Beta virt. eigenvalues --    0.07441   0.14923   0.19506   0.20006   0.21470
  Beta virt. eigenvalues --    0.26686   0.31313   0.34039   0.35440   0.40168

 Mulliken charges and spin densities:
               1          2
     1  O   -0.431094   0.000000
     2  S    0.070597  -0.000000
     3  H    0.249665  -0.000000
     4  H    0.110832   0.000000
 Sum of Mulliken charges =  -0.00000   0.00000

 Dipole moment (field-independent basis, Debye):
    X=              1.8678    Y=             -1.4386    Z=              0.4404  Tot=              2.3984
 Quadrupole moment (field-independent basis, Debye-Ang):
   XX=            -18.2876   YY=            -20.8860   ZZ=            -17.6168
   XY=              0.5335   XZ=             -3.5794   YZ=              0.6632

 Normal termination of Gaussian 16 at Mon Apr 21 22:40:38 2025.
