 Gaussian 16, Revision A.03,
 Gaussian 16:  ES64L-G16RevA.03 25-Dec-2016

 --------------------------------------------
 #p opt UM062X/6-311+G** nosymm int=superfine
 --------------------------------------------

 -------------------
 Title Card Required
 -------------------
 Symbolic Z-matrix:
 Charge =  0 Multiplicity = 1

 SCF Done:  E(UM062X) =  -581.260804864     A.U. after    9 cycles
 SCF Done:  E(UM062X) =  -581.260870126     A.U. after    7 cycles
 SCF Done:  E(UM062X) =  -581.260887021     A.U. after    7 cycles
 SCF Done:  E(UM062X) =  -581.260877465     A.U. after    8 cycles
 SCF Done:  E(UM062X) =  -581.260884824     A.U. after    8 cycles
 SCF Done:  E(UM062X) =  -581.260887631     A.U. after    7 cycles
 SCF Done:  E(UM062X) =  -581.260888684     A.U. after    7 cycles
 Optimization completed.
    -- Stationary point found.

                          Input orientation:
 ---------------------------------------------------------------------
 Center     Atomic      Atomic             Coordinates (Angstroms)
 Number     Number       Type             X           Y           Z
 ---------------------------------------------------------------------
      1         14           0       -1.162518    0.000000    0.000000
      2         14           0        1.162518    0.000000    0.000000
      3          1           0       -1.926682   -1.257288    0.000401
      4          1           0        1.926682    1.257288   -0.000400
      5          1           0       -1.926686    1.257286   -0.000394
      6          1           0        1.926686   -1.257286    0.000396
 ---------------------------------------------------------------------

 Alpha  occ. eigenvalues --  -67.01288 -67.01288  -5.56202  -5.56195  -3.87421
 Alpha  occ. eigenvalues --   -3.87413  -3.87266  -3.87218  -3.87211  -3.87211
 Alpha  occ. eigenvalues --   -0.62776  -0.56480  -0.43881  -0.41922  -0.37029
 Alpha  occ. eigenvalues --   -0.23665
 Alpha virt. eigenvalues --   -0.05247   0.00368   0.02234   0.03280   0.03697
 Alpha virt. eigenvalues --    0.04851   0.04979   0.05451   0.05722   0.07233
 Alpha virt. eigenvalues --    0.07570   0.08771   0.12901   0.24106   0.24308

  Beta  occ. eigenvalues --  -67.01288 -67.01288  -5.56202  -5.56195  -3.87421
  Beta  occ. eigenvalues --   -3.87413  -3.87266  -3.87218  -3.87211  -3.87211
  Beta  occ. eigenvalues --   -0.62776  -0.56480  -0.43881  -0.41922  -0.37029
  Beta  occ. eigenvalues --   -0.23665
  Beta virt. eigenvalues --   -0.05247   0.00368   0.02234   0.03280   0.03697
  Beta virt. eigenvalues --    0.04851   0.04979   0.05451   0.05722   0.07233
  Beta virt. eigenvalues --    0.07570   0.08771   0.12901   0.24106   0.24308

 Mulliken charges and spin densities:
               1          2
     1  Si   0.125563  -0.000000
     2  Si   0.125563   0.000000
     3  H   -0.062782   0.000000
     4  H   -0.062782  -0.000000
     5  H   -0.062782   0.000000
     6  H   -0.062782  -0.000000
 Sum of Mulliken charges =  -0.00000   0.00000

 Dipole moment (field-independent basis, Debye):
    X=              0.0000    Y=              0.0000    Z=              0.0000  Tot=              0.0000
 Quadrupole moment (field-independent basis, Debye-Ang):
   XX=            -27.2680   YY=            -29.2541   ZZ=            -32.8277
   XY=             -0.0000   XZ=             -0.0000   YZ=             -0.0011

 Normal termination of Gaussian 16 at Mon Apr 21 20:29:46 2025.
