 Gaussian 16, Revision A.03,
 Gaussian 16:  ES64L-G16RevA.03 25-Dec-2016

 --------------------------------------------
 #p opt UM062X/6-311+G** nosymm int=superfine
 --------------------------------------------

 -------------------
 Title Card Required
 -------------------
 Symbolic Z-matrix:
 Charge =  1 Multiplicity = 2

 SCF Done:  E(UM062X) =  -80.1583880246     A.U. after   15 cycles
 SCF Done:  E(UM062X) =  -80.1592156681     A.U. after   10 cycles
 SCF Done:  E(UM062X) =  -80.1592183108     A.U. after    8 cycles
 Optimization completed.
    -- Stationary point found.

                          Input orientation:
 ---------------------------------------------------------------------
 Center     Atomic      Atomic             Coordinates (Angstroms)
 Number     Number       Type             X           Y           Z
 ---------------------------------------------------------------------
      1          5           0       -1.727734    0.000000    0.000000
      2          7           0        1.727734    0.000000    0.000000
      3          1           0       -2.932857   -0.000259   -0.000000
      4          1           0        2.763276    0.000021    0.000000
 ---------------------------------------------------------------------

 Alpha  occ. eigenvalues --  -14.96432  -7.53393  -1.09423  -0.85922  -0.63420
 Alpha  occ. eigenvalues --   -0.55914  -0.55914
 Alpha virt. eigenvalues --   -0.43545  -0.34459  -0.34459  -0.15153  -0.11374
 Alpha virt. eigenvalues --   -0.09902  -0.09902  -0.06823  -0.03375   0.00868
 Alpha virt. eigenvalues --    0.00868   0.03767   0.07890   0.12987   0.12987

  Beta  occ. eigenvalues --  -14.93972  -7.54633  -0.96611  -0.89518  -0.67970
  Beta  occ. eigenvalues --   -0.57726
  Beta virt. eigenvalues --   -0.35735  -0.35735  -0.20610  -0.20610  -0.14497
  Beta virt. eigenvalues --   -0.10656  -0.09591  -0.09591  -0.07142  -0.02432
  Beta virt. eigenvalues --    0.02803   0.02803   0.06016   0.08416   0.16314

 Mulliken charges and spin densities:
               1          2
     1  B    0.745782  -0.838185
     2  N   -0.246023   2.050228
     3  H    0.223242  -0.143245
     4  H    0.276999  -0.068798
 Sum of Mulliken charges =   1.00000   1.00000

 Dipole moment (field-independent basis, Debye):
    X=             -6.6233    Y=             -0.0002    Z=             -0.0000  Tot=              6.6233
 Quadrupole moment (field-independent basis, Debye-Ang):
   XX=             15.4581   YY=            -10.2807   ZZ=            -10.2807
   XY=              0.0005   XZ=              0.0000   YZ=              0.0000

 Normal termination of Gaussian 16 at Mon Apr 21 17:59:18 2025.
