 Gaussian 16, Revision A.03,
 Gaussian 16:  ES64L-G16RevA.03 25-Dec-2016

 ----------------------------------------------------------------------
 #p opt UM062X/6-311+G** nosymm int=superfine SCF=(MaxCycle=200,NoVarAc
 c,noincfock) guess=read
 ----------------------------------------------------------------------

 -------------------
 Title Card Required
 -------------------
 Symbolic Z-matrix:
 Charge =  0 Multiplicity = 1

 SCF Done:  E(UM062X) =  -474.336270226     A.U. after   23 cycles
 SCF Done:  E(UM062X) =  -474.336583956     A.U. after   84 cycles
 SCF Done:  E(UM062X) =  -474.336590451     A.U. after   36 cycles
 SCF Done:  E(UM062X) =  -474.336590633     A.U. after   13 cycles
 SCF Done:  E(UM062X) =  -474.339880173     A.U. after   66 cycles
 SCF Done:  E(UM062X) =  -474.343466358     A.U. after   44 cycles
 SCF Done:  E(UM062X) =  -474.349959350     A.U. after   25 cycles
 SCF Done:  E(UM062X) =  -474.358002254     A.U. after   24 cycles
 SCF Done:  E(UM062X) =  -474.355187525     A.U. after   26 cycles
 SCF Done:  E(UM062X) =  -474.360630563     A.U. after   36 cycles
 SCF Done:  E(UM062X) =  -474.361175680     A.U. after   21 cycles
 SCF Done:  E(UM062X) =  -474.360048604     A.U. after   25 cycles
 SCF Done:  E(UM062X) =  -474.361726859     A.U. after   25 cycles
 SCF Done:  E(UM062X) =  -474.361985243     A.U. after   18 cycles
 SCF Done:  E(UM062X) =  -474.362109422     A.U. after   22 cycles
 SCF Done:  E(UM062X) =  -474.362112319     A.U. after   19 cycles
 SCF Done:  E(UM062X) =  -474.362116883     A.U. after   26 cycles
 Optimization completed.
    -- Stationary point found.

                          Input orientation:
 ---------------------------------------------------------------------
 Center     Atomic      Atomic             Coordinates (Angstroms)
 Number     Number       Type             X           Y           Z
 ---------------------------------------------------------------------
      1          8           0       -1.886007   -0.000001   -0.000001
      2         16           0        1.886006    0.000024    0.000025
      3          1           0       -1.844404   -0.025689   -0.969163
      4          1           0        1.634386   -0.995424    0.872485
 ---------------------------------------------------------------------

 Alpha  occ. eigenvalues --  -89.97825 -19.67145  -8.34009  -6.26213  -6.25857
 Alpha  occ. eigenvalues --   -6.25287  -1.08393  -0.83968  -0.52458  -0.49820
 Alpha  occ. eigenvalues --   -0.39707  -0.35888  -0.33246
 Alpha virt. eigenvalues --   -0.23366   0.01486   0.04043   0.04524   0.05374
 Alpha virt. eigenvalues --    0.06604   0.13064   0.19245   0.19665   0.21409
 Alpha virt. eigenvalues --    0.24063   0.30826   0.33896   0.34581   0.39224

  Beta  occ. eigenvalues --  -89.97825 -19.67145  -8.34009  -6.26213  -6.25857
  Beta  occ. eigenvalues --   -6.25287  -1.08393  -0.83968  -0.52458  -0.49820
  Beta  occ. eigenvalues --   -0.39707  -0.35888  -0.33246
  Beta virt. eigenvalues --   -0.23366   0.01486   0.04043   0.04524   0.05374
  Beta virt. eigenvalues --    0.06604   0.13064   0.19245   0.19665   0.21409
  Beta virt. eigenvalues --    0.24063   0.30826   0.33896   0.34581   0.39224

 Mulliken charges and spin densities:
               1          2
     1  O   -0.387382   0.000000
     2  S    0.036248  -0.000000
     3  H    0.246557   0.000000
     4  H    0.104577  -0.000000
 Sum of Mulliken charges =  -0.00000  -0.00000

 Dipole moment (field-independent basis, Debye):
    X=              2.4234    Y=             -0.9462    Z=             -0.9805  Tot=              2.7802
 Quadrupole moment (field-independent basis, Debye-Ang):
   XX=            -18.6759   YY=            -20.4212   ZZ=            -18.4818
   XY=             -1.5130   XZ=              4.7662   YZ=             -1.9550

 Normal termination of Gaussian 16 at Tue Apr 22 01:49:38 2025.
