 Gaussian 16, Revision A.03,
 Gaussian 16:  ES64L-G16RevA.03 25-Dec-2016

 --------------------------------------------
 #p opt UM062X/6-311+G** nosymm int=superfine
 --------------------------------------------

 -------------------
 Title Card Required
 -------------------
 Symbolic Z-matrix:
 Charge =  0 Multiplicity = 1

 SCF Done:  E(UM062X) =  -437.219233039     A.U. after   16 cycles
 SCF Done:  E(UM062X) =  -437.219243509     A.U. after   13 cycles
 SCF Done:  E(UM062X) =  -437.219244896     A.U. after   13 cycles
 SCF Done:  E(UM062X) =  -437.219245279     A.U. after   12 cycles
 Optimization completed.
    -- Stationary point found.

                          Input orientation:
 ---------------------------------------------------------------------
 Center     Atomic      Atomic             Coordinates (Angstroms)
 Number     Number       Type             X           Y           Z
 ---------------------------------------------------------------------
      1          6           0       -1.352140    0.000000    0.000000
      2         16           0        1.352140    0.000000    0.000000
      3          1           0       -1.923948   -0.929893   -0.000788
      4          1           0       -1.924573    0.929511   -0.000942
 ---------------------------------------------------------------------

 Alpha  occ. eigenvalues --  -89.91322 -10.69708  -8.27150  -6.19629  -6.18643
 Alpha  occ. eigenvalues --   -6.18448  -0.81544  -0.71666  -0.56312  -0.37725
 Alpha  occ. eigenvalues --   -0.28784  -0.28752
 Alpha virt. eigenvalues --   -0.14133  -0.11048   0.00797   0.04935   0.06018
 Alpha virt. eigenvalues --    0.06580   0.08613   0.08784   0.09123   0.13965
 Alpha virt. eigenvalues --    0.16310   0.17500   0.35969   0.36459   0.37535

  Beta  occ. eigenvalues --  -89.91322 -10.69708  -8.27150  -6.19629  -6.18643
  Beta  occ. eigenvalues --   -6.18448  -0.81544  -0.71666  -0.56312  -0.37725
  Beta  occ. eigenvalues --   -0.28784  -0.28752
  Beta virt. eigenvalues --   -0.14133  -0.11048   0.00797   0.04935   0.06018
  Beta virt. eigenvalues --    0.06580   0.08613   0.08784   0.09123   0.13965
  Beta virt. eigenvalues --    0.16310   0.17500   0.35969   0.36459   0.37535

 Mulliken charges and spin densities:
               1          2
     1  C   -0.251087  -0.000000
     2  S   -0.144539   0.000000
     3  H    0.197812   0.000000
     4  H    0.197814   0.000000
 Sum of Mulliken charges =  -0.00000  -0.00000

 Dipole moment (field-independent basis, Debye):
    X=             -4.3106    Y=             -0.0005    Z=             -0.0021  Tot=              4.3106
 Quadrupole moment (field-independent basis, Debye-Ang):
   XX=            -13.9936   YY=            -21.8540   ZZ=            -22.2454
   XY=             -0.0004   XZ=             -0.0016   YZ=             -0.0000

 Normal termination of Gaussian 16 at Mon Apr 21 19:43:28 2025.
