 Gaussian 16, Revision A.03,
 Gaussian 16:  ES64L-G16RevA.03 25-Dec-2016

 --------------------------------------------
 #p opt UM062X/6-311+G** nosymm int=superfine
 --------------------------------------------

 -------------------
 Title Card Required
 -------------------
 Symbolic Z-matrix:
 Charge = -1 Multiplicity = 2

 SCF Done:  E(UM062X) =  -51.8499264484     A.U. after   11 cycles
 SCF Done:  E(UM062X) =  -51.8499424095     A.U. after   14 cycles
 SCF Done:  E(UM062X) =  -51.8499467016     A.U. after   16 cycles
 Optimization completed.
    -- Stationary point found.

                          Input orientation:
 ---------------------------------------------------------------------
 Center     Atomic      Atomic             Coordinates (Angstroms)
 Number     Number       Type             X           Y           Z
 ---------------------------------------------------------------------
      1          5           0       -1.822274    0.000000    0.000000
      2          5           0        1.822274    0.000000    0.000000
      3          1           0       -2.497713   -1.010850    0.000896
      4          1           0        2.497713    1.010851    0.000421
      5          1           0       -2.497716    1.010849    0.000930
      6          1           0        2.497716   -1.010848    0.001403
 ---------------------------------------------------------------------

 Alpha  occ. eigenvalues --   -6.87028  -6.87027  -0.37288  -0.37068  -0.21293
 Alpha  occ. eigenvalues --   -0.21153  -0.05765  -0.00242
 Alpha virt. eigenvalues --    0.12041   0.13842   0.15449   0.16088   0.16341
 Alpha virt. eigenvalues --    0.17889   0.20376   0.21221   0.21461   0.23448
 Alpha virt. eigenvalues --    0.32499   0.33920   0.34708   0.38496   0.50285

  Beta  occ. eigenvalues --   -6.86411  -6.86410  -0.35992  -0.35707  -0.20639
  Beta  occ. eigenvalues --   -0.20480   0.01002
  Beta virt. eigenvalues --    0.13249   0.13250   0.14422   0.14631   0.18011
  Beta virt. eigenvalues --    0.18149   0.18162   0.22636   0.22860   0.23797
  Beta virt. eigenvalues --    0.25139   0.32551   0.33965   0.34735   0.39262

 Mulliken charges and spin densities:
               1          2
     1  B   -0.337256   0.491374
     2  B   -0.337256   0.491374
     3  H   -0.081372   0.004313
     4  H   -0.081372   0.004313
     5  H   -0.081372   0.004313
     6  H   -0.081372   0.004313
 Sum of Mulliken charges =  -1.00000   1.00000

 Dipole moment (field-independent basis, Debye):
    X=              0.0000    Y=              0.0000    Z=              0.0067  Tot=              0.0067
 Quadrupole moment (field-independent basis, Debye-Ang):
   XX=            -41.4194   YY=            -24.6640   ZZ=            -19.0064
   XY=             -0.0000   XZ=              0.0000   YZ=              0.0013

 Normal termination of Gaussian 16 at Mon Apr 21 17:20:45 2025.
