 Gaussian 16, Revision A.03,
 Gaussian 16:  ES64L-G16RevA.03 25-Dec-2016

 --------------------------------------------
 #p opt UM062X/6-311+G** nosymm int=superfine
 --------------------------------------------

 -------------------
 Title Card Required
 -------------------
 Symbolic Z-matrix:
 Charge =  0 Multiplicity = 3

 SCF Done:  E(UM062X) =  -50.5910531970     A.U. after   10 cycles
 SCF Done:  E(UM062X) =  -50.5910760459     A.U. after    7 cycles
 Optimization completed.
    -- Stationary point found.

                          Input orientation:
 ---------------------------------------------------------------------
 Center     Atomic      Atomic             Coordinates (Angstroms)
 Number     Number       Type             X           Y           Z
 ---------------------------------------------------------------------
      1          5           0       -1.153410    0.000000    0.000000
      2          5           0        1.153410    0.000000    0.000000
      3          1           0       -2.330901   -0.000081   -0.000000
      4          1           0        2.330901    0.000081    0.000000
 ---------------------------------------------------------------------

 Alpha  occ. eigenvalues --   -7.14803  -7.14788  -0.58382  -0.55737  -0.39026
 Alpha  occ. eigenvalues --   -0.22837  -0.22837
 Alpha virt. eigenvalues --   -0.05721  -0.05721  -0.03758   0.02533   0.02719
 Alpha virt. eigenvalues --    0.06431   0.06431   0.07598   0.07695   0.07695
 Alpha virt. eigenvalues --    0.13421   0.21488   0.24675   0.38019   0.38892

  Beta  occ. eigenvalues --   -7.14535  -7.14528  -0.54891  -0.53765  -0.36786
  Beta virt. eigenvalues --   -0.06363  -0.06363  -0.00689  -0.00689   0.00676
  Beta virt. eigenvalues --    0.01597   0.03121   0.05456   0.08567   0.08567
  Beta virt. eigenvalues --    0.11371   0.11371   0.11878   0.22486   0.26693

 Mulliken charges and spin densities:
               1          2
     1  B   -0.114954   1.038130
     2  B   -0.114954   1.038130
     3  H    0.114954  -0.038130
     4  H    0.114954  -0.038130
 Sum of Mulliken charges =  -0.00000   2.00000

 Dipole moment (field-independent basis, Debye):
    X=              0.0000    Y=             -0.0000    Z=              0.0000  Tot=              0.0000
 Quadrupole moment (field-independent basis, Debye-Ang):
   XX=            -10.4472   YY=            -16.3519   ZZ=            -16.3519
   XY=              0.0003   XZ=              0.0000   YZ=              0.0000

 1\1\GINC-NODE06\FOpt\UM062X\6-311+G(d,p)\B2H2(3)\SZHAO\21-Apr-2025\0\\
 #p opt UM062X/6-311+G** nosymm int=superfine\\Title Card Required\\0,3
 \B,-1.15341047,0.,0.\B,1.15341047,0.,0.\H,-2.3309008169,-0.000080556,-
 0.0000000004\H,2.330900817,0.000080556,0.0000000004\\Version=ES64L-G16
 RevA.03\HF=-50.591076\S2=2.009351\S2-1=0.\S2A=2.000027\RMSD=7.211e-09\
 RMSF=2.079e-05\Dipole=0.0000002,0.,0.\Quadrupole=2.9266773,-1.4633386,
 -1.4633386,0.0002118,0.,0.\PG=C*V [C*(H1B1B1H1)]\\@

 Normal termination of Gaussian 16 at Mon Apr 21 17:27:57 2025.
