 Gaussian 16, Revision A.03,
 Gaussian 16:  ES64L-G16RevA.03 25-Dec-2016

 --------------------------------------------
 #p opt UM062X/6-311+G** nosymm int=superfine
 --------------------------------------------

 -------------------
 Title Card Required
 -------------------
 Symbolic Z-matrix:
 Charge =  0 Multiplicity = 1

 SCF Done:  E(UM062X) =  -380.940020178     A.U. after   23 cycles
 SCF Done:  E(UM062X) =  -380.942285171     A.U. after   15 cycles
 SCF Done:  E(UM062X) =  -380.943350449     A.U. after   15 cycles
 SCF Done:  E(UM062X) =  -380.943482814     A.U. after   16 cycles
 SCF Done:  E(UM062X) =  -380.943458843     A.U. after   16 cycles
 SCF Done:  E(UM062X) =  -380.943703828     A.U. after   17 cycles
 SCF Done:  E(UM062X) =  -380.943713804     A.U. after   14 cycles
 SCF Done:  E(UM062X) =  -380.943715177     A.U. after   15 cycles
 SCF Done:  E(UM062X) =  -380.943720038     A.U. after   14 cycles
 SCF Done:  E(UM062X) =  -380.943723912     A.U. after   16 cycles
 SCF Done:  E(UM062X) =  -380.943725817     A.U. after   16 cycles
 SCF Done:  E(UM062X) =  -380.943726291     A.U. after   22 cycles
 SCF Done:  E(UM062X) =  -380.943726335     A.U. after   17 cycles
 Optimization completed.
    -- Stationary point found.

                          Input orientation:
 ---------------------------------------------------------------------
 Center     Atomic      Atomic             Coordinates (Angstroms)
 Number     Number       Type             X           Y           Z
 ---------------------------------------------------------------------
      1          6           0       -1.730452    0.000000    0.000000
      2         15           0        1.730452    0.000000    0.000000
      3          1           0       -2.423509   -0.858861   -0.000348
      4          1           0        1.484149   -1.399757   -0.000941
      5          1           0       -2.379856    0.892116    0.000168
 ---------------------------------------------------------------------

 Alpha  occ. eigenvalues --  -78.03955 -10.63806  -6.86162  -4.98144  -4.97404
 Alpha  occ. eigenvalues --   -4.96970  -0.77926  -0.64883  -0.50530  -0.37632
 Alpha  occ. eigenvalues --   -0.34036  -0.23765
 Alpha virt. eigenvalues --   -0.10418  -0.10023   0.01199   0.04116   0.04754
 Alpha virt. eigenvalues --    0.06260   0.06928   0.07459   0.08789   0.11324
 Alpha virt. eigenvalues --    0.13565   0.17043   0.18403   0.31207   0.34331

  Beta  occ. eigenvalues --  -78.03955 -10.63806  -6.86162  -4.98144  -4.97404
  Beta  occ. eigenvalues --   -4.96970  -0.77926  -0.64883  -0.50530  -0.37632
  Beta  occ. eigenvalues --   -0.34036  -0.23765
  Beta virt. eigenvalues --   -0.10418  -0.10023   0.01199   0.04116   0.04754
  Beta virt. eigenvalues --    0.06260   0.06928   0.07459   0.08789   0.11324
  Beta virt. eigenvalues --    0.13565   0.17043   0.18403   0.31207   0.34331

 Mulliken charges and spin densities:
               1          2
     1  C   -0.308205   0.000000
     2  P    0.033585  -0.000000
     3  H    0.153581  -0.000000
     4  H   -0.032712   0.000000
     5  H    0.153751  -0.000000
 Sum of Mulliken charges =  -0.00000   0.00000

 Dipole moment (field-independent basis, Debye):
    X=             -2.9009    Y=             -0.5960    Z=             -0.0007  Tot=              2.9615
 Quadrupole moment (field-independent basis, Debye-Ang):
   XX=            -13.7268   YY=            -21.3293   ZZ=            -25.5138
   XY=             -1.7357   XZ=             -0.0013   YZ=              0.0030

 Normal termination of Gaussian 16 at Mon Apr 21 19:18:58 2025.
