 Gaussian 16, Revision A.03,
 Gaussian 16:  ES64L-G16RevA.03 25-Dec-2016

 --------------------------------------------
 #p opt UM062X/6-311+G** nosymm int=superfine
 --------------------------------------------

 -------------------
 Title Card Required
 -------------------
 Symbolic Z-matrix:
 Charge =  0 Multiplicity = 1

 SCF Done:  E(UM062X) =  -114.115114832     A.U. after   16 cycles
 SCF Done:  E(UM062X) =  -114.115960225     A.U. after   10 cycles
 SCF Done:  E(UM062X) =  -114.116181379     A.U. after    9 cycles
 SCF Done:  E(UM062X) =  -114.116189216     A.U. after   13 cycles
 Optimization completed.
    -- Stationary point found.

                          Input orientation:
 ---------------------------------------------------------------------
 Center     Atomic      Atomic             Coordinates (Angstroms)
 Number     Number       Type             X           Y           Z
 ---------------------------------------------------------------------
      1          6           0       -1.348311    0.000000    0.000000
      2          8           0        1.348311    0.000000    0.000000
      3          1           0       -1.983819   -0.896341   -0.000043
      4          1           0       -1.983824    0.896338   -0.000043
 ---------------------------------------------------------------------

 Alpha  occ. eigenvalues --  -19.68603 -10.67348  -0.99095  -0.80241  -0.53738
 Alpha  occ. eigenvalues --   -0.37767  -0.37761  -0.35784
 Alpha virt. eigenvalues --   -0.12301  -0.12150   0.00852   0.05267   0.07051
 Alpha virt. eigenvalues --    0.07517   0.15537   0.16370   0.19227   0.22110
 Alpha virt. eigenvalues --    0.25012   0.30616   0.41896   0.44370   0.55179

  Beta  occ. eigenvalues --  -19.68603 -10.67348  -0.99095  -0.80241  -0.53738
  Beta  occ. eigenvalues --   -0.37767  -0.37761  -0.35784
  Beta virt. eigenvalues --   -0.12301  -0.12150   0.00852   0.05267   0.07051
  Beta virt. eigenvalues --    0.07517   0.15537   0.16370   0.19227   0.22110
  Beta virt. eigenvalues --    0.25012   0.30616   0.41896   0.44370   0.55179

 Mulliken charges and spin densities:
               1          2
     1  C   -0.203238  -0.000000
     2  O   -0.142723   0.000000
     3  H    0.172981   0.000000
     4  H    0.172981   0.000000
 Sum of Mulliken charges =  -0.00000   0.00000

 Dipole moment (field-independent basis, Debye):
    X=             -4.3759    Y=             -0.0000    Z=             -0.0001  Tot=              4.3759
 Quadrupole moment (field-independent basis, Debye-Ang):
   XX=             -7.2685   YY=            -12.6730   ZZ=            -12.5130
   XY=             -0.0000   XZ=             -0.0000   YZ=             -0.0000

 Normal termination of Gaussian 16 at Mon Apr 21 18:49:25 2025.
