 Gaussian 16, Revision A.03,
 Gaussian 16:  ES64L-G16RevA.03 25-Dec-2016

 --------------------------------------------
 #p opt UM062X/6-311+G** nosymm int=superfine
 --------------------------------------------

 -------------------
 Title Card Required
 -------------------
 Symbolic Z-matrix:
 Charge =  0 Multiplicity = 1

 SCF Done:  E(UM062X) =  -78.3101778565     A.U. after    8 cycles
 SCF Done:  E(UM062X) =  -78.3524406416     A.U. after    8 cycles
 SCF Done:  E(UM062X) =  -78.3892331894     A.U. after   10 cycles
 SCF Done:  E(UM062X) =  -78.3980920940     A.U. after    8 cycles
 SCF Done:  E(UM062X) =  -78.3988974556     A.U. after    8 cycles
 SCF Done:  E(UM062X) =  -78.3989066246     A.U. after    8 cycles
 Optimization completed.
    -- Stationary point found.

                          Input orientation:
 ---------------------------------------------------------------------
 Center     Atomic      Atomic             Coordinates (Angstroms)
 Number     Number       Type             X           Y           Z
 ---------------------------------------------------------------------
      1          6           0       -0.967793    0.000000    0.000000
      2          6           0        0.967793    0.000000    0.000000
      3          1           0       -1.442620   -0.968268    0.000000
      4          1           0       -1.442599    0.968266    0.000000
      5          1           0        1.442620    0.968268    0.000000
      6          1           0        1.442599   -0.968266    0.000000
 ---------------------------------------------------------------------

 Alpha  occ. eigenvalues --  -10.60596 -10.60580  -0.77934  -0.71030  -0.52952
 Alpha  occ. eigenvalues --   -0.49233  -0.39008  -0.26634
 Alpha virt. eigenvalues --   -0.05797   0.02433   0.03363   0.05394   0.07401
 Alpha virt. eigenvalues --    0.08997   0.09839   0.11267   0.11467   0.15466
 Alpha virt. eigenvalues --    0.16508   0.21082   0.21196   0.28360   0.39955

  Beta  occ. eigenvalues --  -10.60596 -10.60580  -0.77934  -0.71030  -0.52952
  Beta  occ. eigenvalues --   -0.49233  -0.39008  -0.26634
  Beta virt. eigenvalues --   -0.05797   0.02433   0.03363   0.05394   0.07401
  Beta virt. eigenvalues --    0.08997   0.09839   0.11267   0.11467   0.15466
  Beta virt. eigenvalues --    0.16508   0.21082   0.21196   0.28360   0.39955

 Mulliken charges and spin densities:
               1          2
     1  C   -0.355370   0.000000
     2  C   -0.355370  -0.000000
     3  H    0.177685  -0.000000
     4  H    0.177684  -0.000000
     5  H    0.177685   0.000000
     6  H    0.177684   0.000000
 Sum of Mulliken charges =  -0.00000   0.00000

 Dipole moment (field-independent basis, Debye):
    X=              0.0000    Y=              0.0000    Z=              0.0000  Tot=              0.0000
 Quadrupole moment (field-independent basis, Debye-Ang):
   XX=            -11.3803   YY=            -12.1205   ZZ=            -17.9879
   XY=              0.0001   XZ=              0.0000   YZ=              0.0000

 Normal termination of Gaussian 16 at Tue Nov 19 11:00:00 2024.
