 Gaussian 16, Revision A.03,
 Gaussian 16:  ES64L-G16RevA.03 25-Dec-2016

 --------------------------------------------
 #p opt UM062X/6-311+G** nosymm int=superfine
 --------------------------------------------

 -------------------
 Title Card Required
 -------------------
 Symbolic Z-matrix:
 Charge =  0 Multiplicity = 1

 SCF Done:  E(UM062X) =  -79.7717324048     A.U. after    8 cycles
 SCF Done:  E(UM062X) =  -79.7781924368     A.U. after    8 cycles
 SCF Done:  E(UM062X) =  -79.7782613593     A.U. after    7 cycles
 Optimization completed.
    -- Stationary point found.

                          Input orientation:
 ---------------------------------------------------------------------
 Center     Atomic      Atomic             Coordinates (Angstroms)
 Number     Number       Type             X           Y           Z
 ---------------------------------------------------------------------
      1          6           0       -0.679557    0.000000    0.000000
      2          6           0        0.679626    0.000000    0.000000
      3          1           0        1.113509   -0.871158    0.504116
      4          1           0       -1.113422   -0.872162   -0.502405
      5          1           0        1.113492    0.872163    0.502401
      6          1           0        1.113532   -0.000962   -1.006504
      7          1           0       -1.113439    0.871156   -0.504120
      8          1           0       -1.113464    0.000959    1.006503
 ---------------------------------------------------------------------

 Alpha  occ. eigenvalues --  -10.51078 -10.50991  -0.88566  -0.69049  -0.51759
 Alpha  occ. eigenvalues --   -0.51759  -0.46544  -0.38261  -0.38260
 Alpha virt. eigenvalues --    0.02142   0.04188   0.05260   0.05260   0.08775
 Alpha virt. eigenvalues --    0.08868   0.08868   0.14118   0.19155   0.19155
 Alpha virt. eigenvalues --    0.20363   0.20363   0.24093   0.27903   0.34327

  Beta  occ. eigenvalues --  -10.51078 -10.50991  -0.88566  -0.69049  -0.51759
  Beta  occ. eigenvalues --   -0.51759  -0.46544  -0.38261  -0.38260
  Beta virt. eigenvalues --    0.02142   0.04188   0.05260   0.05260   0.08775
  Beta virt. eigenvalues --    0.08868   0.08868   0.14118   0.19155   0.19155
  Beta virt. eigenvalues --    0.20363   0.20363   0.24093   0.27903   0.34327

 Mulliken charges and spin densities:
               1          2
     1  C   -0.452750  -0.000000
     2  C   -0.452750   0.000000
     3  H    0.150917  -0.000000
     4  H    0.150916   0.000000
     5  H    0.150916  -0.000000
     6  H    0.150917  -0.000000
     7  H    0.150917   0.000000
     8  H    0.150917   0.000000
 Sum of Mulliken charges =  -0.00000  -0.00000

 Dipole moment (field-independent basis, Debye):
    X=              0.0000    Y=             -0.0000    Z=             -0.0000  Tot=              0.0000
 Quadrupole moment (field-independent basis, Debye-Ang):
   XX=            -15.6320   YY=            -14.9651   ZZ=            -14.9650
   XY=             -0.0000   XZ=             -0.0001   YZ=             -0.0001

 Normal termination of Gaussian 16 at Tue Nov 19 11:49:40 2024.
