 Gaussian 16, Revision A.03,
 Gaussian 16:  ES64L-G16RevA.03 25-Dec-2016

 --------------------------------------------
 #p opt UM062X/6-311+G** nosymm int=superfine
 --------------------------------------------

 -------------------
 Title Card Required
 -------------------
 Symbolic Z-matrix:
 Charge =  1 Multiplicity = 2

 SCF Done:  E(UM062X) =  -579.744946493     A.U. after   16 cycles
 SCF Done:  E(UM062X) =  -579.745593839     A.U. after   14 cycles
 SCF Done:  E(UM062X) =  -579.745715439     A.U. after   14 cycles
 SCF Done:  E(UM062X) =  -579.745752282     A.U. after   14 cycles
 SCF Done:  E(UM062X) =  -579.745774312     A.U. after   14 cycles
 SCF Done:  E(UM062X) =  -579.745803314     A.U. after   15 cycles
 SCF Done:  E(UM062X) =  -579.745838586     A.U. after   15 cycles
 SCF Done:  E(UM062X) =  -579.745865665     A.U. after   15 cycles
 SCF Done:  E(UM062X) =  -579.745874207     A.U. after   12 cycles
 SCF Done:  E(UM062X) =  -579.745874843     A.U. after   13 cycles
 SCF Done:  E(UM062X) =  -579.745874847     A.U. after   12 cycles
 Optimization completed.
    -- Stationary point found.

                          Input orientation:
 ---------------------------------------------------------------------
 Center     Atomic      Atomic             Coordinates (Angstroms)
 Number     Number       Type             X           Y           Z
 ---------------------------------------------------------------------
      1         14           0       -1.177975    0.000000    0.000000
      2         14           0        1.177975    0.000000    0.000000
      3          1           0        0.029076   -1.147533   -0.484309
      4          1           0        2.464010   -0.738404   -0.018728
 ---------------------------------------------------------------------

 Alpha  occ. eigenvalues --  -67.30133 -67.27628  -5.84145  -5.82136  -4.15164
 Alpha  occ. eigenvalues --   -4.14809  -4.14766  -4.13572  -4.13194  -4.12741
 Alpha  occ. eigenvalues --   -0.88607  -0.73642  -0.60071  -0.55125  -0.48256
 Alpha virt. eigenvalues --   -0.28961  -0.27614  -0.22107  -0.15517  -0.12076
 Alpha virt. eigenvalues --   -0.09096  -0.08855  -0.08746  -0.08459  -0.05891
 Alpha virt. eigenvalues --   -0.05763  -0.02642  -0.01220   0.06834   0.11874

  Beta  occ. eigenvalues --  -67.29899 -67.27309  -5.84092  -5.82044  -4.14777
  Beta  occ. eigenvalues --   -4.14730  -4.14459  -4.13104  -4.12747  -4.12637
  Beta  occ. eigenvalues --   -0.86297  -0.72521  -0.59255  -0.53919
  Beta virt. eigenvalues --   -0.32897  -0.27813  -0.23906  -0.20749  -0.15534
  Beta virt. eigenvalues --   -0.14311  -0.09504  -0.08676  -0.08464  -0.08335
  Beta virt. eigenvalues --   -0.05581  -0.04644  -0.02605  -0.01929   0.06814

 Mulliken charges and spin densities:
               1          2
     1  Si   0.666661   0.457593
     2  Si   0.407689   0.589650
     3  H   -0.128767  -0.022557
     4  H    0.054416  -0.024686
 Sum of Mulliken charges =   1.00000   1.00000

 Dipole moment (field-independent basis, Debye):
    X=              0.6555    Y=             -0.4285    Z=             -0.0430  Tot=              0.7843
 Quadrupole moment (field-independent basis, Debye-Ang):
   XX=            -11.9424   YY=            -23.2942   ZZ=            -22.8997
   XY=             -0.1479   XZ=             -0.0533   YZ=             -0.1245

 Normal termination of Gaussian 16 at Mon Apr 21 22:51:12 2025.
