 Gaussian 16, Revision A.03,
 Gaussian 16:  ES64L-G16RevA.03 25-Dec-2016

 --------------------------------------------
 #p opt UM062X/6-311+G** nosymm int=superfine
 --------------------------------------------

 -------------------
 Title Card Required
 -------------------
 Symbolic Z-matrix:
 Charge =  1 Multiplicity = 2

 SCF Done:  E(UM062X) =  -580.876812061     A.U. after   11 cycles
 SCF Done:  E(UM062X) =  -580.877305160     A.U. after    9 cycles
 SCF Done:  E(UM062X) =  -580.877479383     A.U. after   17 cycles
 SCF Done:  E(UM062X) =  -580.876829812     A.U. after   34 cycles
 SCF Done:  E(UM062X) =  -580.877475568     A.U. after   20 cycles
 SCF Done:  E(UM062X) =  -580.877479542     A.U. after   11 cycles
 Optimization completed.
    -- Stationary point found.

                          Input orientation:
 ---------------------------------------------------------------------
 Center     Atomic      Atomic             Coordinates (Angstroms)
 Number     Number       Type             X           Y           Z
 ---------------------------------------------------------------------
      1         14           0       -1.666295    0.000000    0.000000
      2         14           0        1.666295    0.000000    0.000000
      3          1           0       -2.348167   -1.302941   -0.000723
      4          1           0        2.348165    1.302942    0.000251
      5          1           0       -2.348172    1.302938    0.001210
      6          1           0        2.348170   -1.302939   -0.000351
 ---------------------------------------------------------------------

 Alpha  occ. eigenvalues --  -67.26861 -67.26861  -5.81132  -5.81131  -4.12748
 Alpha  occ. eigenvalues --   -4.12748  -4.12119  -4.12117  -4.11915  -4.11915
 Alpha  occ. eigenvalues --   -0.81054  -0.79335  -0.63741  -0.63345  -0.50789
 Alpha  occ. eigenvalues --   -0.41339
 Alpha virt. eigenvalues --   -0.30701  -0.29902  -0.13214  -0.12965  -0.11899
 Alpha virt. eigenvalues --   -0.10411  -0.08953  -0.08753  -0.07436  -0.07054
 Alpha virt. eigenvalues --   -0.06310  -0.05519  -0.01956  -0.00586   0.11957

  Beta  occ. eigenvalues --  -67.26568 -67.26568  -5.81047  -5.81047  -4.12047
  Beta  occ. eigenvalues --   -4.12045  -4.12025  -4.12025  -4.11810  -4.11810
  Beta  occ. eigenvalues --   -0.79237  -0.77844  -0.63748  -0.63402  -0.49758
  Beta virt. eigenvalues --   -0.28252  -0.27902  -0.24921  -0.13620  -0.13370
  Beta virt. eigenvalues --   -0.11627  -0.11388  -0.09650  -0.08325  -0.06831
  Beta virt. eigenvalues --   -0.06704  -0.06662  -0.03888  -0.03830  -0.00979

 Mulliken charges and spin densities:
               1          2
     1  Si   0.439121   0.553797
     2  Si   0.439123   0.553773
     3  H    0.030439  -0.026892
     4  H    0.030439  -0.026893
     5  H    0.030439  -0.026892
     6  H    0.030439  -0.026893
 Sum of Mulliken charges =   1.00000   1.00000

 Dipole moment (field-independent basis, Debye):
    X=              0.0000    Y=              0.0000    Z=             -0.0000  Tot=              0.0000
 Quadrupole moment (field-independent basis, Debye-Ang):
   XX=             -4.9460   YY=            -23.8222   ZZ=            -25.1670
   XY=             -0.0000   XZ=              0.0007   YZ=              0.0007

 Normal termination of Gaussian 16 at Mon Apr 21 20:23:22 2025.
