 Gaussian 16, Revision A.03,
 Gaussian 16:  ES64L-G16RevA.03 25-Dec-2016

 --------------------------------------------
 #p opt UM062X/6-311+G** nosymm int=superfine
 --------------------------------------------

 -------------------
 Title Card Required
 -------------------
 Symbolic Z-matrix:
 Charge =  0 Multiplicity = 1

 SCF Done:  E(UM062X) =  -114.098962913     A.U. after   14 cycles
 SCF Done:  E(UM062X) =  -114.100424666     A.U. after   10 cycles
 SCF Done:  E(UM062X) =  -114.100865009     A.U. after    9 cycles
 SCF Done:  E(UM062X) =  -114.100870688     A.U. after    8 cycles
 Optimization completed.
    -- Stationary point found.

                          Input orientation:
 ---------------------------------------------------------------------
 Center     Atomic      Atomic             Coordinates (Angstroms)
 Number     Number       Type             X           Y           Z
 ---------------------------------------------------------------------
      1          6           0       -1.523311    0.000000    0.000000
      2          8           0        1.523311    0.000000    0.000000
      3          1           0       -2.180757   -0.884370   -0.000008
      4          1           0       -2.180762    0.884367   -0.000007
 ---------------------------------------------------------------------

 Alpha  occ. eigenvalues --  -19.71223 -10.65347  -1.01301  -0.78941  -0.51888
 Alpha  occ. eigenvalues --   -0.40129  -0.40119  -0.34461
 Alpha virt. eigenvalues --   -0.14668  -0.11178   0.01195   0.05612   0.07429
 Alpha virt. eigenvalues --    0.07933   0.15546   0.17198   0.18175   0.21051
 Alpha virt. eigenvalues --    0.23682   0.28476   0.42614   0.45474   0.56205

  Beta  occ. eigenvalues --  -19.71223 -10.65347  -1.01301  -0.78941  -0.51888
  Beta  occ. eigenvalues --   -0.40129  -0.40119  -0.34461
  Beta virt. eigenvalues --   -0.14668  -0.11178   0.01195   0.05612   0.07429
  Beta virt. eigenvalues --    0.07933   0.15546   0.17198   0.18175   0.21051
  Beta virt. eigenvalues --    0.23682   0.28476   0.42614   0.45474   0.56205

 Mulliken charges and spin densities:
               1          2
     1  C   -0.238113   0.000000
     2  O   -0.083084  -0.000000
     3  H    0.160598  -0.000000
     4  H    0.160598  -0.000000
 Sum of Mulliken charges =  -0.00000  -0.00000

 Dipole moment (field-independent basis, Debye):
    X=             -3.7279    Y=             -0.0000    Z=             -0.0000  Tot=              3.7279
 Quadrupole moment (field-independent basis, Debye-Ang):
   XX=             -6.3953   YY=            -12.8736   ZZ=            -12.5068
   XY=              0.0000   XZ=              0.0000   YZ=             -0.0000

 Normal termination of Gaussian 16 at Mon Apr 21 18:50:46 2025.
