 Gaussian 16, Revision A.03,
 Gaussian 16:  ES64L-G16RevA.03 25-Dec-2016

 --------------------------------------------
 #p opt UM062X/6-311+G** nosymm int=superfine
 --------------------------------------------

 -------------------
 Title Card Required
 -------------------
 Symbolic Z-matrix:
 Charge =  1 Multiplicity = 2

 SCF Done:  E(UM062X) =  -79.3052424530     A.U. after   12 cycles
 SCF Done:  E(UM062X) =  -79.3346876721     A.U. after   13 cycles
 SCF Done:  E(UM062X) =  -79.3402038365     A.U. after   11 cycles
 SCF Done:  E(UM062X) =  -79.3406570082     A.U. after   11 cycles
 SCF Done:  E(UM062X) =  -79.3533955091     A.U. after   13 cycles
 SCF Done:  E(UM062X) =  -79.3500589155     A.U. after   14 cycles
 SCF Done:  E(UM062X) =  -79.3605889228     A.U. after   11 cycles
 SCF Done:  E(UM062X) =  -79.3619071800     A.U. after   13 cycles
 SCF Done:  E(UM062X) =  -79.3619467012     A.U. after   11 cycles
 SCF Done:  E(UM062X) =  -79.3620634250     A.U. after   12 cycles
 SCF Done:  E(UM062X) =  -79.3622948710     A.U. after   13 cycles
 SCF Done:  E(UM062X) =  -79.3694805193     A.U. after   10 cycles
 SCF Done:  E(UM062X) =  -79.3715654064     A.U. after   13 cycles
 SCF Done:  E(UM062X) =  -79.3715142938     A.U. after   12 cycles
 SCF Done:  E(UM062X) =  -79.3717550088     A.U. after   11 cycles
 SCF Done:  E(UM062X) =  -79.3717879161     A.U. after   11 cycles
 SCF Done:  E(UM062X) =  -79.3717998212     A.U. after   10 cycles
 SCF Done:  E(UM062X) =  -79.3718023158     A.U. after    9 cycles
 SCF Done:  E(UM062X) =  -79.3718040705     A.U. after   10 cycles
 SCF Done:  E(UM062X) =  -79.3718044877     A.U. after    9 cycles
 Optimization completed.
    -- Stationary point found.

                          Input orientation:
 ---------------------------------------------------------------------
 Center     Atomic      Atomic             Coordinates (Angstroms)
 Number     Number       Type             X           Y           Z
 ---------------------------------------------------------------------
      1          6           0       -0.770403    0.000000    0.000000
      2          6           0        0.770403    0.000000    0.000000
      3          1           0        1.254149   -0.919447    0.317984
      4          1           0       -1.254651   -0.918333   -0.320208
      5          1           0        1.254609    0.917787    0.322097
      6          1           0        0.668047    0.002308   -1.146483
      7          1           0       -1.255265    0.918774   -0.318232
      8          1           0       -0.665583   -0.000541    1.146589
 ---------------------------------------------------------------------

 Alpha  occ. eigenvalues --  -10.85024 -10.84987  -1.17980  -0.98984  -0.82924
 Alpha  occ. eigenvalues --   -0.80695  -0.75495  -0.70774  -0.64743
 Alpha virt. eigenvalues --   -0.17432  -0.12685  -0.12249  -0.11787  -0.10824
 Alpha virt. eigenvalues --   -0.07719  -0.06468  -0.05703  -0.05465  -0.02089
 Alpha virt. eigenvalues --   -0.00362   0.00693   0.03443   0.03558   0.04208

  Beta  occ. eigenvalues --  -10.84803 -10.84767  -1.15063  -0.96086  -0.79895
  Beta  occ. eigenvalues --   -0.77614  -0.73983  -0.70205
  Beta virt. eigenvalues --   -0.42757  -0.17168  -0.12895  -0.11667  -0.11625
  Beta virt. eigenvalues --   -0.10415  -0.07784  -0.06510  -0.05435  -0.03505
  Beta virt. eigenvalues --   -0.01776   0.00166   0.01076   0.04262   0.04287

 Mulliken charges and spin densities:
               1          2
     1  C   -0.368630   0.344034
     2  C   -0.369876   0.342595
     3  H    0.277954  -0.013384
     4  H    0.277940  -0.013518
     5  H    0.277896  -0.013368
     6  H    0.313332   0.183488
     7  H    0.278001  -0.013427
     8  H    0.313384   0.183579
 Sum of Mulliken charges =   1.00000   1.00000

 Dipole moment (field-independent basis, Debye):
    X=             -0.0008    Y=              0.0012    Z=              0.0018  Tot=              0.0023
 Quadrupole moment (field-independent basis, Debye-Ang):
   XX=             -8.1844   YY=            -10.8909   ZZ=             -9.8854
   XY=             -0.0002   XZ=             -0.3952   YZ=              0.0003

 Normal termination of Gaussian 16 at Sat Nov 16 16:03:30 2024.
