 Gaussian 16, Revision A.03,
 Gaussian 16:  ES64L-G16RevA.03 25-Dec-2016

 --------------------------------------------
 #p opt UM062X/6-311+G** nosymm int=superfine
 --------------------------------------------

 -------------------
 Title Card Required
 -------------------
 Symbolic Z-matrix:
 Charge =  1 Multiplicity = 2

 SCF Done:  E(UM062X) =  -80.1568679365     A.U. after   15 cycles
 SCF Done:  E(UM062X) =  -80.1577075056     A.U. after   10 cycles
 SCF Done:  E(UM062X) =  -80.1577102294     A.U. after    8 cycles
 Optimization completed.
    -- Stationary point found.

                          Input orientation:
 ---------------------------------------------------------------------
 Center     Atomic      Atomic             Coordinates (Angstroms)
 Number     Number       Type             X           Y           Z
 ---------------------------------------------------------------------
      1          5           0       -1.802734    0.000000    0.000000
      2          7           0        1.802734    0.000000    0.000000
      3          1           0       -3.008245   -0.000242   -0.000000
      4          1           0        2.838261    0.000057    0.000000
 ---------------------------------------------------------------------

 Alpha  occ. eigenvalues --  -14.95786  -7.53628  -1.08835  -0.86097  -0.62765
 Alpha  occ. eigenvalues --   -0.55302  -0.55302
 Alpha virt. eigenvalues --   -0.44240  -0.34748  -0.34748  -0.15374  -0.11539
 Alpha virt. eigenvalues --   -0.09935  -0.09935  -0.07340  -0.03836   0.01143
 Alpha virt. eigenvalues --    0.01143   0.03453   0.07860   0.12799   0.12799

  Beta  occ. eigenvalues --  -14.93315  -7.54865  -0.96005  -0.89709  -0.68140
  Beta  occ. eigenvalues --   -0.57106
  Beta virt. eigenvalues --   -0.35890  -0.35890  -0.20042  -0.20042  -0.14574
  Beta virt. eigenvalues --   -0.10650  -0.09671  -0.09671  -0.07108  -0.02694
  Beta virt. eigenvalues --    0.03122   0.03122   0.06225   0.08284   0.16242

 Mulliken charges and spin densities:
               1          2
     1  B    0.751436  -0.841443
     2  N   -0.245451   2.052668
     3  H    0.223614  -0.143272
     4  H    0.270401  -0.067954
 Sum of Mulliken charges =   1.00000   1.00000

 Dipole moment (field-independent basis, Debye):
    X=             -7.0664    Y=             -0.0001    Z=             -0.0000  Tot=              7.0664
 Quadrupole moment (field-independent basis, Debye-Ang):
   XX=             17.1118   YY=            -10.2801   ZZ=            -10.2801
   XY=              0.0006   XZ=              0.0000   YZ=              0.0000

 Normal termination of Gaussian 16 at Mon Apr 21 17:59:35 2025.
