 Gaussian 16, Revision A.03,
 Gaussian 16:  ES64L-G16RevA.03 25-Dec-2016

 --------------------------------------------
 #p opt UM062X/6-311+G** nosymm int=superfine
 --------------------------------------------

 -------------------
 Title Card Required
 -------------------
 Symbolic Z-matrix:
 Charge =  0 Multiplicity = 1

 SCF Done:  E(UM062X) =  -438.620013409     A.U. after   11 cycles
 SCF Done:  E(UM062X) =  -438.625483976     A.U. after   10 cycles
 SCF Done:  E(UM062X) =  -438.626396761     A.U. after   10 cycles
 SCF Done:  E(UM062X) =  -438.626401139     A.U. after    8 cycles
 SCF Done:  E(UM062X) =  -438.626402206     A.U. after    8 cycles
 Optimization completed.
    -- Stationary point found.

                          Input orientation:
 ---------------------------------------------------------------------
 Center     Atomic      Atomic             Coordinates (Angstroms)
 Number     Number       Type             X           Y           Z
 ---------------------------------------------------------------------
      1          6           0       -1.185220    0.000000    0.000000
      2         16           0        1.185220    0.000000    0.000000
      3          1           0        1.213694   -1.342555   -0.001624
      4          1           0       -1.377465    1.064743    0.002457
      5          1           0       -1.412549   -0.517666   -0.922111
      6          1           0       -1.412544   -0.521863    0.919747
 ---------------------------------------------------------------------

 Alpha  occ. eigenvalues --  -89.89416 -10.60336  -8.25677  -6.17766  -6.17631
 Alpha  occ. eigenvalues --   -6.17127  -0.81944  -0.75868  -0.51361  -0.51294
 Alpha  occ. eigenvalues --   -0.43822  -0.34936  -0.29609
 Alpha virt. eigenvalues --   -0.04403   0.02133   0.04481   0.05356   0.05771
 Alpha virt. eigenvalues --    0.07387   0.07831   0.08609   0.11500   0.13605
 Alpha virt. eigenvalues --    0.17610   0.18345   0.24131   0.32765   0.35238

  Beta  occ. eigenvalues --  -89.89416 -10.60336  -8.25677  -6.17766  -6.17631
  Beta  occ. eigenvalues --   -6.17127  -0.81944  -0.75868  -0.51361  -0.51294
  Beta  occ. eigenvalues --   -0.43822  -0.34936  -0.29609
  Beta virt. eigenvalues --   -0.04403   0.02133   0.04481   0.05356   0.05771
  Beta virt. eigenvalues --    0.07387   0.07831   0.08609   0.11500   0.13605
  Beta virt. eigenvalues --    0.17610   0.18345   0.24131   0.32765   0.35238

 Mulliken charges and spin densities:
               1          2
     1  C   -0.528019  -0.000000
     2  S   -0.135916   0.000000
     3  H    0.063801  -0.000000
     4  H    0.199081   0.000000
     5  H    0.200545   0.000000
     6  H    0.200508  -0.000000
 Sum of Mulliken charges =  -0.00000  -0.00000

 Dipole moment (field-independent basis, Debye):
    X=             -2.2496    Y=             -0.9249    Z=             -0.0011  Tot=              2.4323
 Quadrupole moment (field-independent basis, Debye-Ang):
   XX=            -21.0802   YY=            -19.3113   ZZ=            -23.2531
   XY=             -1.5049   XZ=             -0.0018   YZ=              0.0048

 Normal termination of Gaussian 16 at Mon Apr 21 19:35:00 2025.
