 Gaussian 16, Revision A.03,
 Gaussian 16:  ES64L-G16RevA.03 25-Dec-2016

 ---------------------------------------------------
 #p UM062X/6-311+G** force int=superfine pop=saveNBO
 ---------------------------------------------------

 -------------------
 Title Card Required
 -------------------
 Symbolic Z-matrix:
 Charge =  0 Multiplicity = 1

                         Standard orientation:
 ---------------------------------------------------------------------
 Center     Atomic      Atomic             Coordinates (Angstroms)
 Number     Number       Type             X           Y           Z
 ---------------------------------------------------------------------
      1          6           0        0.000000    0.000000   -1.326951
      2          8           0        0.000000    0.000000    0.995213
 ---------------------------------------------------------------------

 SCF Done:  E(UM062X) =  -112.823879428     A.U. after   19 cycles

 The electronic state is 1-SG.
 Alpha  occ. eigenvalues --  -19.68260 -10.83944  -0.99145  -0.72315  -0.36996
 Alpha  occ. eigenvalues --   -0.36178  -0.36178
 Alpha virt. eigenvalues --   -0.18015  -0.18015  -0.11696   0.02924   0.06080
 Alpha virt. eigenvalues --    0.06080   0.06922   0.20006   0.22588   0.22588
 Alpha virt. eigenvalues --    0.31908   0.51376   0.51376   0.54027   0.65879

  Beta  occ. eigenvalues --  -19.68260 -10.83944  -0.99145  -0.72315  -0.36996
  Beta  occ. eigenvalues --   -0.36178  -0.36178
  Beta virt. eigenvalues --   -0.18015  -0.18015  -0.11696   0.02924   0.06080
  Beta virt. eigenvalues --    0.06080   0.06922   0.20006   0.22588   0.22588
  Beta virt. eigenvalues --    0.31908   0.51376   0.51376   0.54027   0.65879

 Mulliken charges and spin densities:
               1          2
     1  C    0.328615   0.000000
     2  O   -0.328615   0.000000
 Sum of Mulliken charges =  -0.00000   0.00000

 Dipole moment (field-independent basis, Debye):
    X=              0.0000    Y=              0.0000    Z=             -3.8203  Tot=              3.8203
 Quadrupole moment (field-independent basis, Debye-Ang):
   XX=            -11.4436   YY=            -11.4436   ZZ=            -10.7150
   XY=              0.0000   XZ=              0.0000   YZ=              0.0000

 Summary of Natural Population Analysis:

                                       Natural Population
                Natural  -----------------------------------------------
    Atom  No    Charge         Core      Valence    Rydberg      Total
 -----------------------------------------------------------------------
      C    1    0.26060      1.00000     1.73867    0.00074     2.73940
      O    2   -0.26060      1.00000     3.25996    0.00064     4.26060
 =======================================================================
   * Total *   -0.00000      2.00000     4.99863    0.00138     7.00000

 Normal termination of Gaussian 16 at Mon Apr 21 19:30:48 2025.
