 Gaussian 16, Revision A.03,
 Gaussian 16:  ES64L-G16RevA.03 25-Dec-2016

 --------------------------------------------
 #p opt UM062X/6-311+G** nosymm int=superfine
 --------------------------------------------

 -------------------
 Title Card Required
 -------------------
 Symbolic Z-matrix:
 Charge =  0 Multiplicity = 1

 SCF Done:  E(UM062X) =  -381.059530125     A.U. after   13 cycles
 SCF Done:  E(UM062X) =  -381.061854445     A.U. after   11 cycles
 SCF Done:  E(UM062X) =  -381.062100041     A.U. after   12 cycles
 SCF Done:  E(UM062X) =  -381.058784970     A.U. after   13 cycles
 SCF Done:  E(UM062X) =  -381.062151348     A.U. after   11 cycles
 SCF Done:  E(UM062X) =  -381.061821480     A.U. after   13 cycles
 SCF Done:  E(UM062X) =  -381.062218693     A.U. after   14 cycles
 SCF Done:  E(UM062X) =  -381.062219623     A.U. after    9 cycles
 SCF Done:  E(UM062X) =  -381.062220164     A.U. after    9 cycles
 Optimization completed.
    -- Stationary point found.

                          Input orientation:
 ---------------------------------------------------------------------
 Center     Atomic      Atomic             Coordinates (Angstroms)
 Number     Number       Type             X           Y           Z
 ---------------------------------------------------------------------
      1          6           0       -1.180452    0.000000    0.000000
      2         15           0        1.180452    0.000000    0.000000
      3          1           0       -1.702069   -0.950039    0.013068
      4          1           0        1.133061   -1.419410    0.020195
      5          1           0       -1.694606    0.953494   -0.013305
 ---------------------------------------------------------------------

 Alpha  occ. eigenvalues --  -78.06170 -10.62465  -6.88069  -4.99572  -4.99438
 Alpha  occ. eigenvalues --   -4.99336  -0.76672  -0.66294  -0.51993  -0.39619
 Alpha  occ. eigenvalues --   -0.34491  -0.26520
 Alpha virt. eigenvalues --   -0.09900  -0.02667   0.02204   0.04332   0.05060
 Alpha virt. eigenvalues --    0.05562   0.06577   0.07275   0.10292   0.10929
 Alpha virt. eigenvalues --    0.14523   0.18771   0.20923   0.30294   0.31675

  Beta  occ. eigenvalues --  -78.06170 -10.62465  -6.88069  -4.99572  -4.99438
  Beta  occ. eigenvalues --   -4.99336  -0.76672  -0.66294  -0.51993  -0.39619
  Beta  occ. eigenvalues --   -0.34491  -0.26520
  Beta virt. eigenvalues --   -0.09900  -0.02667   0.02204   0.04332   0.05060
  Beta virt. eigenvalues --    0.05562   0.06577   0.07275   0.10292   0.10929
  Beta virt. eigenvalues --    0.14523   0.18771   0.20923   0.30294   0.31675

 Mulliken charges and spin densities:
               1          2
     1  C   -0.451970   0.000001
     2  P    0.092439  -0.000001
     3  H    0.187980  -0.000000
     4  H   -0.017048   0.000000
     5  H    0.188600  -0.000000
 Sum of Mulliken charges =   0.00000  -0.00000

 Dipole moment (field-independent basis, Debye):
    X=             -0.8612    Y=             -0.5847    Z=              0.0081  Tot=              1.0409
 Quadrupole moment (field-independent basis, Debye-Ang):
   XX=            -18.4298   YY=            -20.1953   ZZ=            -24.3430
   XY=             -1.1945   XZ=              0.0169   YZ=             -0.0582

 Normal termination of Gaussian 16 at Mon Apr 21 19:10:06 2025.
