 Gaussian 16, Revision A.03,
 Gaussian 16:  ES64L-G16RevA.03 25-Dec-2016

 --------------------------------------------
 #p opt UM062X/6-311+G** nosymm int=superfine
 --------------------------------------------

 -------------------
 Title Card Required
 -------------------
 Symbolic Z-matrix:
 Charge = -1 Multiplicity = 2

 SCF Done:  E(UM062X) =  -51.8492988256     A.U. after   11 cycles
 SCF Done:  E(UM062X) =  -51.8493130269     A.U. after   14 cycles
 SCF Done:  E(UM062X) =  -51.8493153013     A.U. after   13 cycles
 Optimization completed.
    -- Stationary point found.

                          Input orientation:
 ---------------------------------------------------------------------
 Center     Atomic      Atomic             Coordinates (Angstroms)
 Number     Number       Type             X           Y           Z
 ---------------------------------------------------------------------
      1          5           0       -1.872274    0.000000    0.000000
      2          5           0        1.872274    0.000000    0.000000
      3          1           0       -2.545980   -1.011419    0.000492
      4          1           0        2.545980    1.011419    0.000018
      5          1           0       -2.545982    1.011417    0.000518
      6          1           0        2.545982   -1.011417    0.000992
 ---------------------------------------------------------------------

 Alpha  occ. eigenvalues --   -6.87207  -6.87207  -0.37436  -0.37253  -0.21472
 Alpha  occ. eigenvalues --   -0.21356  -0.05677  -0.00737
 Alpha virt. eigenvalues --    0.11991   0.13660   0.15359   0.15998   0.16177
 Alpha virt. eigenvalues --    0.17790   0.20269   0.21143   0.21311   0.23360
 Alpha virt. eigenvalues --    0.32415   0.33818   0.34544   0.38199   0.50342

  Beta  occ. eigenvalues --   -6.86594  -6.86593  -0.36131  -0.35880  -0.20809
  Beta  occ. eigenvalues --   -0.20674   0.01204
  Beta virt. eigenvalues --    0.13207   0.13229   0.14470   0.14539   0.17593
  Beta virt. eigenvalues --    0.18114   0.18174   0.22541   0.22790   0.23859
  Beta virt. eigenvalues --    0.25204   0.32465   0.33900   0.34604   0.38988

 Mulliken charges and spin densities:
               1          2
     1  B   -0.338294   0.491599
     2  B   -0.338294   0.491599
     3  H   -0.080853   0.004201
     4  H   -0.080853   0.004201
     5  H   -0.080853   0.004201
     6  H   -0.080853   0.004201
 Sum of Mulliken charges =  -1.00000   1.00000

 Dipole moment (field-independent basis, Debye):
    X=              0.0000    Y=              0.0000    Z=              0.0039  Tot=              0.0039
 Quadrupole moment (field-independent basis, Debye-Ang):
   XX=            -41.4536   YY=            -24.6446   ZZ=            -19.0263
   XY=             -0.0000   XZ=              0.0000   YZ=              0.0013

 Normal termination of Gaussian 16 at Mon Apr 21 17:25:56 2025.
