 Gaussian 16, Revision A.03,
 Gaussian 16:  ES64L-G16RevA.03 25-Dec-2016

 -------------------------------------------------------------------
 #p opt UM062X/6-311+G** nosymm int=superfine SCF=NoVarAcc SCF=tight
 -------------------------------------------------------------------

 -------------------
 Title Card Required
 -------------------
 Symbolic Z-matrix:
 Charge =  1 Multiplicity = 2

 SCF Done:  E(UM062X) =  -79.3163800691     A.U. after   27 cycles
 SCF Done:  E(UM062X) =  -79.3164663561     A.U. after    9 cycles
 SCF Done:  E(UM062X) =  -79.3164921321     A.U. after   11 cycles
 SCF Done:  E(UM062X) =  -79.3165057254     A.U. after    9 cycles
 SCF Done:  E(UM062X) =  -79.3165065725     A.U. after    8 cycles
 Optimization completed.
    -- Stationary point found.

                          Input orientation:
 ---------------------------------------------------------------------
 Center     Atomic      Atomic             Coordinates (Angstroms)
 Number     Number       Type             X           Y           Z
 ---------------------------------------------------------------------
      1          6           0       -9.782675    0.000000    0.000000
      2          6           0        9.782675    0.000000    0.000000
      3          1           0        9.782100   -0.936695    0.542390
      4          1           0       -9.783061   -0.937681   -0.540688
      5          1           0        9.785250    0.938081    0.539985
      6          1           0        9.784001   -0.001383   -1.082397
      7          1           0       -9.784759    0.937111   -0.541658
      8          1           0       -9.783499    0.000449    1.082398
 ---------------------------------------------------------------------

 Alpha  occ. eigenvalues --  -10.78139 -10.78139  -0.96904  -0.96903  -0.68153
 Alpha  occ. eigenvalues --   -0.68152  -0.68152  -0.68151  -0.38145
 Alpha virt. eigenvalues --   -0.36680  -0.07828  -0.07827  -0.04345  -0.04345
 Alpha virt. eigenvalues --   -0.04345  -0.04345  -0.02254  -0.02254   0.05133
 Alpha virt. eigenvalues --    0.05134   0.05134   0.05135   0.05226   0.05227

  Beta  occ. eigenvalues --  -10.77896 -10.77896  -0.94235  -0.94235  -0.67579
  Beta  occ. eigenvalues --   -0.67578  -0.67578  -0.67577
  Beta virt. eigenvalues --   -0.23180  -0.23180  -0.08376  -0.08376  -0.03979
  Beta virt. eigenvalues --   -0.03979  -0.03979  -0.03979  -0.00300  -0.00300
  Beta virt. eigenvalues --    0.05429   0.05430   0.05430   0.05431   0.06681

 Mulliken charges and spin densities:
               1          2
     1  C   -0.190681   0.566907
     2  C   -0.190682   0.566907
     3  H    0.230226  -0.022302
     4  H    0.230224  -0.022302
     5  H    0.230230  -0.022302
     6  H    0.230227  -0.022303
     7  H    0.230232  -0.022302
     8  H    0.230225  -0.022303
 Sum of Mulliken charges =   1.00000   1.00000

 Dipole moment (field-independent basis, Debye):
    X=              0.0000    Y=             -0.0001    Z=              0.0000  Tot=              0.0001
 Quadrupole moment (field-independent basis, Debye-Ang):
   XX=            446.0398   YY=            -11.1281   ZZ=            -11.1284
   XY=              0.0018   XZ=             -0.0003   YZ=             -0.0003

 Normal termination of Gaussian 16 at Tue Dec  3 16:17:48 2024.
