 Gaussian 16, Revision A.03,
 Gaussian 16:  ES64L-G16RevA.03 25-Dec-2016

 --------------------------------------------
 #p opt UM062X/6-311+G** nosymm int=superfine
 --------------------------------------------

 -------------------
 Title Card Required
 -------------------
 Symbolic Z-matrix:
 Charge =  0 Multiplicity = 1

 SCF Done:  E(UM062X) =  -474.498773487     A.U. after   13 cycles
 SCF Done:  E(UM062X) =  -474.502333390     A.U. after   13 cycles
 SCF Done:  E(UM062X) =  -474.502806256     A.U. after   15 cycles
 SCF Done:  E(UM062X) =  -474.502969739     A.U. after   13 cycles
 SCF Done:  E(UM062X) =  -474.502970558     A.U. after   10 cycles
 SCF Done:  E(UM062X) =  -474.502970642     A.U. after    8 cycles
 Optimization completed.
    -- Stationary point found.

                          Input orientation:
 ---------------------------------------------------------------------
 Center     Atomic      Atomic             Coordinates (Angstroms)
 Number     Number       Type             X           Y           Z
 ---------------------------------------------------------------------
      1          8           0       -1.114392    0.000000    0.000000
      2         16           0        1.114392    0.000000    0.000000
      3          1           0       -1.208441   -0.954754   -0.124308
      4          1           0        1.079503    0.294857    1.310413
 ---------------------------------------------------------------------

 Alpha  occ. eigenvalues --  -89.96742 -19.67177  -8.32774  -6.24993  -6.24628
 Alpha  occ. eigenvalues --   -6.24093  -1.09802  -0.82700  -0.53584  -0.49310
 Alpha  occ. eigenvalues --   -0.41887  -0.39854  -0.34230
 Alpha virt. eigenvalues --   -0.11685   0.01516   0.04161   0.04914   0.05854
 Alpha virt. eigenvalues --    0.07764   0.15547   0.19426   0.20013   0.21840
 Alpha virt. eigenvalues --    0.27506   0.31654   0.33831   0.35108   0.40700

  Beta  occ. eigenvalues --  -89.96742 -19.67177  -8.32774  -6.24993  -6.24628
  Beta  occ. eigenvalues --   -6.24093  -1.09802  -0.82700  -0.53584  -0.49310
  Beta  occ. eigenvalues --   -0.41887  -0.39854  -0.34230
  Beta virt. eigenvalues --   -0.11685   0.01516   0.04161   0.04914   0.05854
  Beta virt. eigenvalues --    0.07764   0.15547   0.19426   0.20013   0.21840
  Beta virt. eigenvalues --    0.27506   0.31654   0.33831   0.35108   0.40700

 Mulliken charges and spin densities:
               1          2
     1  O   -0.437155  -0.000000
     2  S    0.078823  -0.000000
     3  H    0.254389   0.000000
     4  H    0.103943   0.000000
 Sum of Mulliken charges =  -0.00000   0.00000

 Dipole moment (field-independent basis, Debye):
    X=              1.5303    Y=             -1.3879    Z=              0.8757  Tot=              2.2438
 Quadrupole moment (field-independent basis, Debye-Ang):
   XX=            -18.5794   YY=            -19.7739   ZZ=            -18.5154
   XY=              2.7537   XZ=              1.7815   YZ=              1.2075

 Normal termination of Gaussian 16 at Thu May 15 12:55:13 2025.
