 Gaussian 16, Revision A.03,
 Gaussian 16:  ES64L-G16RevA.03 25-Dec-2016

 --------------------------------------------
 #p opt UM062X/6-311+G** nosymm int=superfine
 --------------------------------------------

 -------------------
 Title Card Required
 -------------------
 Symbolic Z-matrix:
 Charge = -1 Multiplicity = 2

 SCF Done:  E(UM062X) =  -50.5832027589     A.U. after   25 cycles

 Alpha  occ. eigenvalues --   -6.93537  -6.93527  -0.37255  -0.35511  -0.16020
 Alpha  occ. eigenvalues --   -0.01553  -0.00382
 Alpha virt. eigenvalues --    0.13182   0.13281   0.13879   0.15228   0.15988
 Alpha virt. eigenvalues --    0.20199   0.21351   0.21452   0.21935   0.22769
 Alpha virt. eigenvalues --    0.25801   0.37090   0.39767   0.54786   0.57874

  Beta  occ. eigenvalues --   -6.93484  -6.93478  -0.35727  -0.34574  -0.14633
  Beta  occ. eigenvalues --    0.01199
  Beta virt. eigenvalues --    0.10295   0.13535   0.13914   0.14210   0.14716
  Beta virt. eigenvalues --    0.16897   0.19183   0.20290   0.20501   0.23125
  Beta virt. eigenvalues --    0.23414   0.23903   0.37236   0.39773   0.54115

 Mulliken charges and spin densities:
               1          2
     1  B   -0.528417   0.526849
     2  B   -0.528417   0.526849
     3  H    0.028417  -0.026849
     4  H    0.028417  -0.026849
 Sum of Mulliken charges =  -1.00000   1.00000

 Dipole moment (field-independent basis, Debye):
    X=              0.0000    Y=             -0.0000    Z=             -0.0000  Tot=              0.0000
 Quadrupole moment (field-independent basis, Debye-Ang):
   XX=            -24.3055   YY=            -31.4614   ZZ=            -24.1126
   XY=              0.0061   XZ=              0.0000   YZ=             -0.0000

 Optimization completed.
    -- Stationary point found.

                          Input orientation:
 ---------------------------------------------------------------------
 Center     Atomic      Atomic             Coordinates (Angstroms)
 Number     Number       Type             X           Y           Z
 ---------------------------------------------------------------------
      1          5           0       -1.216404    0.000000    0.000000
      2          5           0        1.216404    0.000000    0.000000
      3          1           0       -2.400183   -0.000904    0.000000
      4          1           0        2.400183    0.000904    0.000000
 ---------------------------------------------------------------------

 Normal termination of Gaussian 16 at Mon Apr 21 17:30:52 2025.
