 Gaussian 16, Revision A.03,
 Gaussian 16:  ES64L-G16RevA.03 25-Dec-2016

 --------------------------------------------
 #p opt UM062X/6-311+G** nosymm int=superfine
 --------------------------------------------

 -------------------
 Title Card Required
 -------------------
 Symbolic Z-matrix:
 Charge =  0 Multiplicity = 1

 SCF Done:  E(UM062X) =  -114.129299278     A.U. after   17 cycles
 SCF Done:  E(UM062X) =  -114.129791370     A.U. after   10 cycles
 SCF Done:  E(UM062X) =  -114.129888707     A.U. after    9 cycles
 SCF Done:  E(UM062X) =  -114.129898242     A.U. after   13 cycles
 Optimization completed.
    -- Stationary point found.

                          Input orientation:
 ---------------------------------------------------------------------
 Center     Atomic      Atomic             Coordinates (Angstroms)
 Number     Number       Type             X           Y           Z
 ---------------------------------------------------------------------
      1          6           0       -1.248311    0.000000    0.000000
      2          8           0        1.248311    0.000000    0.000000
      3          1           0       -1.865781   -0.906064   -0.000099
      4          1           0       -1.865785    0.906062   -0.000098
 ---------------------------------------------------------------------

 Alpha  occ. eigenvalues --  -19.66895 -10.68761  -0.97784  -0.81088  -0.55046
 Alpha  occ. eigenvalues --   -0.36752  -0.36224  -0.36197
 Alpha virt. eigenvalues --   -0.13024  -0.10380   0.00653   0.05001   0.06784
 Alpha virt. eigenvalues --    0.07255   0.15647   0.15743   0.19980   0.22805
 Alpha virt. eigenvalues --    0.25791   0.31783   0.41565   0.43362   0.54571

  Beta  occ. eigenvalues --  -19.66895 -10.68761  -0.97784  -0.81088  -0.55046
  Beta  occ. eigenvalues --   -0.36752  -0.36224  -0.36197
  Beta virt. eigenvalues --   -0.13024  -0.10380   0.00653   0.05001   0.06784
  Beta virt. eigenvalues --    0.07255   0.15647   0.15743   0.19980   0.22805
  Beta virt. eigenvalues --    0.25791   0.31783   0.41565   0.43362   0.54571

 Mulliken charges and spin densities:
               1          2
     1  C   -0.173865  -0.000000
     2  O   -0.189590   0.000000
     3  H    0.181727   0.000000
     4  H    0.181727   0.000000
 Sum of Mulliken charges =  -0.00000   0.00000

 Dipole moment (field-independent basis, Debye):
    X=             -4.7728    Y=             -0.0000    Z=             -0.0003  Tot=              4.7728
 Quadrupole moment (field-independent basis, Debye-Ang):
   XX=             -7.8397   YY=            -12.5190   ZZ=            -12.5371
   XY=             -0.0000   XZ=             -0.0000   YZ=              0.0000

 Normal termination of Gaussian 16 at Mon Apr 21 18:44:28 2025.
