 Gaussian 16, Revision A.03,
 Gaussian 16:  ES64L-G16RevA.03 25-Dec-2016

 --------------------------------------------
 #p opt UM062X/6-311+G** nosymm int=superfine
 --------------------------------------------

 -------------------
 Title Card Required
 -------------------
 Symbolic Z-matrix:
 Charge =  0 Multiplicity = 1

 SCF Done:  E(UM062X) =  -92.9126057532     A.U. after   14 cycles
 SCF Done:  E(UM062X) =  -92.9142226009     A.U. after   11 cycles
 SCF Done:  E(UM062X) =  -92.9142296992     A.U. after    9 cycles
 Optimization completed.
    -- Stationary point found.

                          Input orientation:
 ---------------------------------------------------------------------
 Center     Atomic      Atomic             Coordinates (Angstroms)
 Number     Number       Type             X           Y           Z
 ---------------------------------------------------------------------
      1          6           0       -1.172394    0.000000    0.000000
      2          7           0        1.172394    0.000000    0.000000
      3          1           0       -2.292145   -0.000000    0.000000
 ---------------------------------------------------------------------

 Alpha  occ. eigenvalues --  -14.86798 -10.74386  -0.81160  -0.77368  -0.43939
 Alpha  occ. eigenvalues --   -0.30149  -0.30149
 Alpha virt. eigenvalues --   -0.14873  -0.14873  -0.08941   0.01106   0.06787
 Alpha virt. eigenvalues --    0.07269   0.07269   0.13234   0.16945   0.16945
 Alpha virt. eigenvalues --    0.18716   0.26347   0.45033   0.53563   0.53563

  Beta  occ. eigenvalues --  -14.86798 -10.74386  -0.81160  -0.77368  -0.43939
  Beta  occ. eigenvalues --   -0.30149  -0.30149
  Beta virt. eigenvalues --   -0.14873  -0.14873  -0.08941   0.01106   0.06787
  Beta virt. eigenvalues --    0.07269   0.07269   0.13234   0.16945   0.16945
  Beta virt. eigenvalues --    0.18716   0.26347   0.45033   0.53563   0.53563

 Mulliken charges and spin densities:
               1          2
     1  C   -0.100637   0.000000
     2  N   -0.101027  -0.000000
     3  H    0.201664  -0.000000
 Sum of Mulliken charges =  -0.00000   0.00000

 Dipole moment (field-independent basis, Debye):
    X=             -3.7826    Y=             -0.0000    Z=              0.0000  Tot=              3.7826
 Quadrupole moment (field-independent basis, Debye-Ang):
   XX=             -6.1924   YY=            -14.2307   ZZ=            -14.2307
   XY=              0.0000   XZ=             -0.0000   YZ=              0.0000

 Normal termination of Gaussian 16 at Mon Apr 21 18:38:16 2025.
