 Gaussian 16, Revision A.03,
 Gaussian 16:  ES64L-G16RevA.03 25-Dec-2016

 ---------------------------------------------------
 #p UM062X/6-311+G** force int=superfine pop=saveNBO
 ---------------------------------------------------

 -------------------
 Title Card Required
 -------------------
 Symbolic Z-matrix:
 Charge =  0 Multiplicity = 1

                         Standard orientation:
 ---------------------------------------------------------------------
 Center     Atomic      Atomic             Coordinates (Angstroms)
 Number     Number       Type             X           Y           Z
 ---------------------------------------------------------------------
      1          6           0        0.000000    0.000000   -1.469808
      2          8           0        0.000000    0.000000    1.102356
 ---------------------------------------------------------------------

 SCF Done:  E(UM062X) =  -112.791548389     A.U. after   26 cycles

 The electronic state is 1-SG.
 Alpha  occ. eigenvalues --  -19.67910 -10.80268  -0.98988  -0.70612  -0.37230
 Alpha  occ. eigenvalues --   -0.37230  -0.34682
 Alpha virt. eigenvalues --   -0.16337  -0.16337  -0.12382   0.03117   0.06288
 Alpha virt. eigenvalues --    0.06288   0.07113   0.19319   0.21971   0.21971
 Alpha virt. eigenvalues --    0.30754   0.52520   0.52520   0.55655   0.64088

  Beta  occ. eigenvalues --  -19.67910 -10.80268  -0.98988  -0.70612  -0.37230
  Beta  occ. eigenvalues --   -0.37230  -0.34682
  Beta virt. eigenvalues --   -0.16337  -0.16337  -0.12382   0.03117   0.06288
  Beta virt. eigenvalues --    0.06288   0.07113   0.19319   0.21971   0.21971
  Beta virt. eigenvalues --    0.30754   0.52520   0.52520   0.55655   0.64088

 Mulliken charges and spin densities:
               1          2
     1  C    0.268336  -0.000000
     2  O   -0.268336   0.000000
 Sum of Mulliken charges =   0.00000   0.00000

 Dipole moment (field-independent basis, Debye):
    X=              0.0000    Y=              0.0000    Z=             -3.3996  Tot=              3.3996
 Quadrupole moment (field-independent basis, Debye-Ang):
   XX=            -11.2367   YY=            -11.2367   ZZ=            -11.1255
   XY=              0.0000   XZ=              0.0000   YZ=              0.0000

 Summary of Natural Population Analysis:

                                       Natural Population
                Natural  -----------------------------------------------
    Atom  No    Charge         Core      Valence    Rydberg      Total
 -----------------------------------------------------------------------
      C    1    0.18902      1.00000     1.81054    0.00044     2.81098
      O    2   -0.18902      1.00000     3.18770    0.00132     4.18902
 =======================================================================
   * Total *    0.00000      2.00000     4.99824    0.00176     7.00000

 Normal termination of Gaussian 16 at Mon Apr 21 19:31:40 2025.
