 Gaussian 16, Revision A.03,
 Gaussian 16:  ES64L-G16RevA.03 25-Dec-2016

 --------------------------------------------
 #p opt UM062X/6-311+G** nosymm int=superfine
 --------------------------------------------

 -------------------
 Title Card Required
 -------------------
 Symbolic Z-matrix:
 Charge =  0 Multiplicity = 1

 SCF Done:  E(UM062X) =  -151.344045205     A.U. after   21 cycles
 SCF Done:  E(UM062X) =  -151.346218169     A.U. after   20 cycles
 SCF Done:  E(UM062X) =  -151.349556615     A.U. after   22 cycles
 SCF Done:  E(UM062X) =  -151.350170129     A.U. after   29 cycles
 SCF Done:  E(UM062X) =  -151.350269697     A.U. after   24 cycles
 SCF Done:  E(UM062X) =  -151.350278004     A.U. after   26 cycles
 SCF Done:  E(UM062X) =  -151.350278066     A.U. after   24 cycles
 Optimization completed.
    -- Stationary point found.

                          Input orientation:
 ---------------------------------------------------------------------
 Center     Atomic      Atomic             Coordinates (Angstroms)
 Number     Number       Type             X           Y           Z
 ---------------------------------------------------------------------
      1          8           0       -1.436938    0.000000    0.000000
      2          8           0        1.436938    0.000000    0.000000
      3          1           0       -1.255130   -0.769559   -0.568798
      4          1           0        1.255148    0.769179    0.569318
 ---------------------------------------------------------------------

 Alpha  occ. eigenvalues --  -19.72734 -19.72732  -1.13330  -1.12461  -0.57117
 Alpha  occ. eigenvalues --   -0.56407  -0.44540  -0.43790  -0.38737
 Alpha virt. eigenvalues --   -0.24526   0.05369   0.08540   0.14725   0.15199
 Alpha virt. eigenvalues --    0.17681   0.19104   0.20869   0.21675   0.23763
 Alpha virt. eigenvalues --    0.31791   0.48669   0.52776   0.96284   0.99188

  Beta  occ. eigenvalues --  -19.72734 -19.72732  -1.13330  -1.12461  -0.57117
  Beta  occ. eigenvalues --   -0.56407  -0.44540  -0.43790  -0.38737
  Beta virt. eigenvalues --   -0.24526   0.05369   0.08540   0.14725   0.15199
  Beta virt. eigenvalues --    0.17681   0.19104   0.20869   0.21675   0.23763
  Beta virt. eigenvalues --    0.31791   0.48669   0.52776   0.96284   0.99188

 Mulliken charges and spin densities:
               1          2
     1  O   -0.269919   0.000000
     2  O   -0.269921  -0.000000
     3  H    0.269921  -0.000000
     4  H    0.269920  -0.000000
 Sum of Mulliken charges =  -0.00000  -0.00000

 Dipole moment (field-independent basis, Debye):
    X=              0.0000    Y=             -0.0008    Z=              0.0010  Tot=              0.0013
 Quadrupole moment (field-independent basis, Debye-Ang):
   XX=            -12.6183   YY=            -10.4439   ZZ=            -11.9335
   XY=              3.9988   XZ=              2.9577   YZ=              2.4325

 Normal termination of Gaussian 16 at Mon Apr 21 21:36:31 2025.
