 Gaussian 16, Revision A.03,
 Gaussian 16:  ES64L-G16RevA.03 25-Dec-2016

 ---------------------------------------
 #p UM062X/6-311+G** force int=superfine
 ---------------------------------------

 -------------------
 Title Card Required
 -------------------
 Symbolic Z-matrix:
 Charge =  1 Multiplicity = 2

                         Standard orientation:
 ---------------------------------------------------------------------
 Center     Atomic      Atomic             Coordinates (Angstroms)
 Number     Number       Type             X           Y           Z
 ---------------------------------------------------------------------
      1          6           0       -0.000000    0.000000    0.789105
      2          6           0       -0.000000    0.000000   -0.789105
      3          1           0        0.000000    0.000000    1.881217
      4          1           0        0.000000    0.000000   -1.881212
 ---------------------------------------------------------------------

 SCF Done:  E(UM062X) =  -76.7902157674     A.U. after   10 cycles

 Unable to determine electronic state:  an orbital has unidentified symmetry.
 Alpha  occ. eigenvalues --  -10.98941 -10.98893  -1.12574  -0.98825  -0.85929
 Alpha  occ. eigenvalues --   -0.65395  -0.63187
 Alpha virt. eigenvalues --   -0.34576  -0.32570  -0.23666  -0.14263  -0.10839
 Alpha virt. eigenvalues --   -0.10655  -0.09333  -0.09091  -0.05252  -0.04916
 Alpha virt. eigenvalues --    0.01753   0.04052   0.09029   0.21701   0.31390

  Beta  occ. eigenvalues --  -10.98698 -10.98664  -1.08476  -0.97107  -0.85197
  Beta  occ. eigenvalues --   -0.61090
  Beta virt. eigenvalues --   -0.41885  -0.30863  -0.26760  -0.21566  -0.15358
  Beta virt. eigenvalues --   -0.11206  -0.10900  -0.09691  -0.09497  -0.05105
  Beta virt. eigenvalues --   -0.04753   0.00995   0.04171   0.09465   0.22551

 Mulliken charges and spin densities:
               1          2
     1  C    0.147909   0.521075
     2  C    0.147908   0.521076
     3  H    0.352092  -0.021076
     4  H    0.352090  -0.021076
 Sum of Mulliken charges =   1.00000   1.00000

 Dipole moment (field-independent basis, Debye):
    X=              0.0000    Y=             -0.0000    Z=              0.0000  Tot=              0.0000
 Quadrupole moment (field-independent basis, Debye-Ang):
   XX=            -10.4478   YY=            -12.4771   ZZ=              2.1342
   XY=              0.0000   XZ=             -0.0000   YZ=             -0.0000

 Normal termination of Gaussian 16 at Tue Nov 19 13:35:36 2024.
