 Gaussian 16, Revision A.03,
 Gaussian 16:  ES64L-G16RevA.03 25-Dec-2016

 --------------------------------------------
 #p opt UM062X/6-311+G** nosymm int=superfine
 --------------------------------------------

 -------------------
 Title Card Required
 -------------------
 Symbolic Z-matrix:
 Charge =  0 Multiplicity = 1

 SCF Done:  E(UM062X) =  -382.212552584     A.U. after   19 cycles
 SCF Done:  E(UM062X) =  -382.223248438     A.U. after   13 cycles
 SCF Done:  E(UM062X) =  -382.230188801     A.U. after   14 cycles
 SCF Done:  E(UM062X) =  -382.230304085     A.U. after   12 cycles
 SCF Done:  E(UM062X) =  -382.230347721     A.U. after   12 cycles
 SCF Done:  E(UM062X) =  -382.230433018     A.U. after   13 cycles
 SCF Done:  E(UM062X) =  -382.230489417     A.U. after   10 cycles
 SCF Done:  E(UM062X) =  -382.230504311     A.U. after   11 cycles
 SCF Done:  E(UM062X) =  -382.230505139     A.U. after   11 cycles
 SCF Done:  E(UM062X) =  -382.230505369     A.U. after   10 cycles
 SCF Done:  E(UM062X) =  -382.230505833     A.U. after   10 cycles
 SCF Done:  E(UM062X) =  -382.230506392     A.U. after   10 cycles
 SCF Done:  E(UM062X) =  -382.230506879     A.U. after   10 cycles
 SCF Done:  E(UM062X) =  -382.230507143     A.U. after   10 cycles
 Optimization completed.
    -- Stationary point found.

                          Input orientation:
 ---------------------------------------------------------------------
 Center     Atomic      Atomic             Coordinates (Angstroms)
 Number     Number       Type             X           Y           Z
 ---------------------------------------------------------------------
      1          6           0       -2.431264    0.000000    0.000000
      2         15           0        2.431264    0.000000    0.000000
      3          1           0        2.340447   -1.416670    0.017795
      4          1           0       -2.434609    1.054945    0.232326
      5          1           0        2.338410    0.068181    1.414978
      6          1           0       -2.434990   -0.325791   -1.029926
      7          1           0       -2.484869   -0.728023    0.796368
 ---------------------------------------------------------------------

 Alpha  occ. eigenvalues --  -78.02837 -10.59791  -6.85287  -4.96805  -4.96736
 Alpha  occ. eigenvalues --   -4.96555  -0.79323  -0.69343  -0.51540  -0.51518
 Alpha  occ. eigenvalues --   -0.43513  -0.34611  -0.22057
 Alpha virt. eigenvalues --   -0.14692   0.02029   0.03688   0.03987   0.04475
 Alpha virt. eigenvalues --    0.06003   0.06429   0.07193   0.07273   0.10668
 Alpha virt. eigenvalues --    0.15785   0.17869   0.17909   0.22282   0.30646

  Beta  occ. eigenvalues --  -78.02837 -10.59791  -6.85287  -4.96805  -4.96736
  Beta  occ. eigenvalues --   -4.96555  -0.79323  -0.69343  -0.51540  -0.51518
  Beta  occ. eigenvalues --   -0.43513  -0.34611  -0.22057
  Beta virt. eigenvalues --   -0.14692   0.02029   0.03688   0.03987   0.04475
  Beta virt. eigenvalues --    0.06003   0.06429   0.07193   0.07273   0.10668
  Beta virt. eigenvalues --    0.15785   0.17869   0.17909   0.22282   0.30646

 Mulliken charges and spin densities:
               1          2
     1  C   -0.473732  -0.000000
     2  P   -0.041297   0.000000
     3  H   -0.014336  -0.000000
     4  H    0.181985   0.000000
     5  H   -0.014338  -0.000000
     6  H    0.181943   0.000000
     7  H    0.179775   0.000000
 Sum of Mulliken charges =  -0.00000  -0.00000

 Dipole moment (field-independent basis, Debye):
    X=             -1.9942    Y=             -0.5858    Z=              0.6227  Tot=              2.1698
 Quadrupole moment (field-independent basis, Debye-Ang):
   XX=            -23.0811   YY=            -22.4295   ZZ=            -22.5157
   XY=             -1.4658   XZ=              1.5545   YZ=              0.7072

 Normal termination of Gaussian 16 at Mon Apr 21 19:10:12 2025.
