 Gaussian 16, Revision A.03,
 Gaussian 16:  ES64L-G16RevA.03 25-Dec-2016

 --------------------------------------------
 #p opt UM062X/6-311+G** nosymm int=superfine
 --------------------------------------------

 -------------------
 Title Card Required
 -------------------
 Symbolic Z-matrix:
 Charge =  0 Multiplicity = 1

 SCF Done:  E(UM062X) =  -797.378464192     A.U. after   15 cycles
 SCF Done:  E(UM062X) =  -797.378458134     A.U. after   15 cycles
 SCF Done:  E(UM062X) =  -797.378459097     A.U. after   13 cycles
 SCF Done:  E(UM062X) =  -797.378465993     A.U. after   14 cycles
 SCF Done:  E(UM062X) =  -797.378095420     A.U. after   16 cycles
 SCF Done:  E(UM062X) =  -797.378454204     A.U. after   13 cycles
 SCF Done:  E(UM062X) =  -797.378125204     A.U. after   20 cycles
 SCF Done:  E(UM062X) =  -797.378458345     A.U. after   15 cycles
 SCF Done:  E(UM062X) =  -797.378470945     A.U. after   12 cycles
 SCF Done:  E(UM062X) =  -797.378261196     A.U. after   19 cycles
 SCF Done:  E(UM062X) =  -797.378470368     A.U. after   13 cycles
 SCF Done:  E(UM062X) =  -797.378471033     A.U. after   11 cycles
 SCF Done:  E(UM062X) =  -797.378471305     A.U. after   13 cycles
 SCF Done:  E(UM062X) =  -797.378471311     A.U. after   13 cycles
 Optimization completed.
    -- Stationary point found.

                          Input orientation:
 ---------------------------------------------------------------------
 Center     Atomic      Atomic             Coordinates (Angstroms)
 Number     Number       Type             X           Y           Z
 ---------------------------------------------------------------------
      1         16           0       -2.443191    0.000000    0.000000
      2         16           0        2.443191    0.000000    0.000000
      3          1           0       -2.300232   -1.272265   -0.416139
      4          1           0        2.294647    0.440337    1.263457
 ---------------------------------------------------------------------

 Alpha  occ. eigenvalues --  -89.94275 -89.94274  -8.30544  -8.30542  -6.22684
 Alpha  occ. eigenvalues --   -6.22682  -6.22443  -6.22442  -6.21873  -6.21872
 Alpha  occ. eigenvalues --   -0.81322  -0.81151  -0.47326  -0.47314  -0.33357
 Alpha  occ. eigenvalues --   -0.33287  -0.29756
 Alpha virt. eigenvalues --   -0.22765   0.01816   0.02941   0.04390   0.04832
 Alpha virt. eigenvalues --    0.06443   0.06537   0.07163   0.07388   0.08210
 Alpha virt. eigenvalues --    0.12795   0.31746   0.31805   0.32543   0.35111

  Beta  occ. eigenvalues --  -89.94275 -89.94274  -8.30544  -8.30542  -6.22684
  Beta  occ. eigenvalues --   -6.22682  -6.22443  -6.22442  -6.21873  -6.21872
  Beta  occ. eigenvalues --   -0.81322  -0.81151  -0.47326  -0.47314  -0.33357
  Beta  occ. eigenvalues --   -0.33287  -0.29756
  Beta virt. eigenvalues --   -0.22765   0.01816   0.02941   0.04390   0.04832
  Beta virt. eigenvalues --    0.06443   0.06537   0.07163   0.07388   0.08210
  Beta virt. eigenvalues --    0.12795   0.31746   0.31805   0.32543   0.35111

 Mulliken charges and spin densities:
               1          2
     1  S   -0.080526   0.000000
     2  S   -0.080312   0.000000
     3  H    0.080409   0.000000
     4  H    0.080429   0.000000
 Sum of Mulliken charges =  -0.00000   0.00000

 Dipole moment (field-independent basis, Debye):
    X=             -0.0029    Y=             -0.6890    Z=              0.7024  Tot=              0.9839
 Quadrupole moment (field-independent basis, Debye-Ang):
   XX=            -26.1069   YY=            -28.0533   ZZ=            -28.1476
   XY=              3.3406   XZ=              3.2714   YZ=              2.4395

 Normal termination of Gaussian 16 at Mon Apr 21 23:05:40 2025.
