 Gaussian 16, Revision A.03,
 Gaussian 16:  ES64L-G16RevA.03 25-Dec-2016

 --------------------------------------------
 #p opt UM062X/6-311+G** nosymm int=superfine
 --------------------------------------------

 -------------------
 Title Card Required
 -------------------
 Symbolic Z-matrix:
 Charge =  1 Multiplicity = 2

 SCF Done:  E(UM062X) =  -76.7836546459     A.U. after   10 cycles
 SCF Done:  E(UM062X) =  -76.8136149242     A.U. after   19 cycles
 SCF Done:  E(UM062X) =  -76.8256611106     A.U. after   10 cycles
 SCF Done:  E(UM062X) =  -76.8256917477     A.U. after    8 cycles
 Optimization completed.
    -- Stationary point found.

                          Input orientation:
 ---------------------------------------------------------------------
 Center     Atomic      Atomic             Coordinates (Angstroms)
 Number     Number       Type             X           Y           Z
 ---------------------------------------------------------------------
      1          6           0       -0.751824    0.000000    0.000000
      2          6           0        0.751824    0.000000    0.000000
      3          1           0       -1.841190   -0.000014   -0.000032
      4          1           0        1.841187   -0.000009   -0.000031
 ---------------------------------------------------------------------

 Alpha  occ. eigenvalues --  -10.98107 -10.98046  -1.14448  -0.98528  -0.86925
 Alpha  occ. eigenvalues --   -0.66771  -0.64485
 Alpha virt. eigenvalues --   -0.33267  -0.31253  -0.21070  -0.14314  -0.11007
 Alpha virt. eigenvalues --   -0.10047  -0.09523  -0.09279  -0.05192  -0.04839
 Alpha virt. eigenvalues --    0.01940   0.04222   0.10287   0.21035   0.31185

  Beta  occ. eigenvalues --  -10.97867 -10.97822  -1.10189  -0.96844  -0.86280
  Beta  occ. eigenvalues --   -0.62293
  Beta virt. eigenvalues --   -0.42697  -0.29555  -0.25707  -0.19111  -0.15437
  Beta virt. eigenvalues --   -0.11318  -0.10174  -0.09862  -0.09650  -0.04968
  Beta virt. eigenvalues --   -0.04570   0.01289   0.04359   0.10800   0.21931

 Mulliken charges and spin densities:
               1          2
     1  C    0.155624   0.520562
     2  C    0.155624   0.520562
     3  H    0.344377  -0.020562
     4  H    0.344375  -0.020561
 Sum of Mulliken charges =   1.00000   1.00000

 Dipole moment (field-independent basis, Debye):
    X=             -0.0000    Y=             -0.0000    Z=             -0.0001  Tot=              0.0001
 Quadrupole moment (field-independent basis, Debye-Ang):
   XX=              1.4964   YY=            -11.6944   ZZ=            -10.8558
   XY=              0.0000   XZ=              0.0000   YZ=              0.9014

 Normal termination of Gaussian 16 at Tue Nov 19 13:08:42 2024.
