 Gaussian 16, Revision A.03,
 Gaussian 16:  ES64L-G16RevA.03 25-Dec-2016

 --------------------------------------------
 #p opt UM062X/6-311+G** nosymm int=superfine
 --------------------------------------------

 -------------------
 Title Card Required
 -------------------
 Symbolic Z-matrix:
 Charge =  1 Multiplicity = 2

 SCF Done:  E(UM062X) =  -76.5737693049     A.U. after   11 cycles
 SCF Done:  E(UM062X) =  -76.5744289716     A.U. after   10 cycles
 SCF Done:  E(UM062X) =  -76.5744313186     A.U. after   28 cycles
 Optimization completed.
    -- Stationary point found.

                          Input orientation:
 ---------------------------------------------------------------------
 Center     Atomic      Atomic             Coordinates (Angstroms)
 Number     Number       Type             X           Y           Z
 ---------------------------------------------------------------------
      1          6           0       -1.232160    0.000000    0.000000
      2          6           0        1.232160    0.000000    0.000000
      3          1           0       -2.357602    0.000000    0.000000
      4          1           0        2.357601   -0.000000    0.000000
 ---------------------------------------------------------------------

 Alpha  occ. eigenvalues --  -10.95500 -10.95498  -1.00094  -0.98418  -0.70763
 Alpha  occ. eigenvalues --   -0.58694  -0.52631
 Alpha virt. eigenvalues --   -0.38988  -0.36408  -0.33218  -0.13385  -0.11708
 Alpha virt. eigenvalues --   -0.08439  -0.07906  -0.07066  -0.05343  -0.04968
 Alpha virt. eigenvalues --   -0.00846   0.02046   0.05872   0.25705   0.31863

  Beta  occ. eigenvalues --  -10.95128 -10.95127  -0.97586  -0.96329  -0.69489
  Beta  occ. eigenvalues --   -0.57155
  Beta virt. eigenvalues --   -0.34856  -0.33261  -0.31383  -0.29721  -0.14089
  Beta virt. eigenvalues --   -0.11695  -0.07973  -0.07746  -0.07187  -0.04687
  Beta virt. eigenvalues --   -0.03812  -0.01616   0.03606   0.06921   0.25030

 Mulliken charges and spin densities:
               1          2
     1  C    0.249393   0.515370
     2  C    0.249393   0.515370
     3  H    0.250607  -0.015370
     4  H    0.250607  -0.015370
 Sum of Mulliken charges =   1.00000   1.00000

 Dipole moment (field-independent basis, Debye):
    X=             -0.0000    Y=             -0.0000    Z=              0.0000  Tot=              0.0000
 Quadrupole moment (field-independent basis, Debye-Ang):
   XX=              6.1257   YY=            -11.4178   ZZ=             -9.6215
   XY=             -0.0000   XZ=              0.0000   YZ=             -0.5371

 Normal termination of Gaussian 16 at Tue Dec  3 11:25:01 2024.
