 Gaussian 16, Revision A.03,
 Gaussian 16:  ES64L-G16RevA.03 25-Dec-2016

 ---------------------------------------
 #p UM062X/6-311+G** force int=superfine
 ---------------------------------------

 -------------------
 Title Card Required
 -------------------
 Symbolic Z-matrix:
 Charge =  1 Multiplicity = 2

                         Standard orientation:
 ---------------------------------------------------------------------
 Center     Atomic      Atomic             Coordinates (Angstroms)
 Number     Number       Type             X           Y           Z
 ---------------------------------------------------------------------
      1          6           0       -0.667027   -0.068506   -0.000208
      2          6           0        0.667028    0.068505    0.000172
      3          1           0        1.106068    1.062339   -0.000926
      4          1           0       -1.191310    0.608156    0.757852
      5          1           0        1.191361   -0.608311   -0.757685
      6          1           0        1.192502   -0.607519    0.757261
      7          1           0       -1.106068   -1.062339    0.000806
      8          1           0       -1.192557    0.607680   -0.757088
 ---------------------------------------------------------------------

 SCF Done:  E(UM062X) =  -79.3607594481     A.U. after   11 cycles

 The electronic state is 2-A.
 Alpha  occ. eigenvalues --  -10.82049 -10.81951  -1.18761  -1.00028  -0.82689
 Alpha  occ. eigenvalues --   -0.78139  -0.78074  -0.69674  -0.63976
 Alpha virt. eigenvalues --   -0.16184  -0.13628  -0.12312  -0.11910  -0.08509
 Alpha virt. eigenvalues --   -0.07260  -0.06729  -0.06705  -0.05320  -0.02091
 Alpha virt. eigenvalues --   -0.01099  -0.00643   0.05996   0.06454   0.10454

  Beta  occ. eigenvalues --  -10.81964 -10.81856  -1.16971  -0.96303  -0.81669
  Beta  occ. eigenvalues --   -0.76303  -0.72280  -0.68248
  Beta virt. eigenvalues --   -0.43992  -0.16206  -0.13670  -0.12050  -0.11926
  Beta virt. eigenvalues --   -0.08527  -0.06961  -0.06740  -0.05113  -0.04890
  Beta virt. eigenvalues --   -0.01770  -0.00920  -0.00483   0.06120   0.06907

 Mulliken charges and spin densities:
               1          2
     1  C   -0.405869   0.167014
     2  C   -0.405875   0.167008
     3  H    0.256408  -0.010228
     4  H    0.324833   0.172198
     5  H    0.324825   0.172142
     6  H    0.324639   0.171073
     7  H    0.256409  -0.010228
     8  H    0.324630   0.171021
 Sum of Mulliken charges =   1.00000   1.00000

 Dipole moment (field-independent basis, Debye):
    X=             -0.0000    Y=              0.0000    Z=              0.0004  Tot=              0.0004
 Quadrupole moment (field-independent basis, Debye-Ang):
   XX=             -6.2749   YY=            -10.0223   ZZ=            -11.2161
   XY=             -1.7547   XZ=             -0.0042   YZ=              0.0027

 Normal termination of Gaussian 16 at Tue Nov 19 08:41:44 2024.
