 Gaussian 16, Revision A.03,
 Gaussian 16:  ES64L-G16RevA.03 25-Dec-2016

 --------------------------------------------
 #p opt UM062X/6-311+G** nosymm int=superfine
 --------------------------------------------

 -------------------
 Title Card Required
 -------------------
 Symbolic Z-matrix:
 Charge =  0 Multiplicity = 1

 SCF Done:  E(UM062X) =  -474.352963783     A.U. after   25 cycles
 SCF Done:  E(UM062X) =  -474.353315702     A.U. after   22 cycles
 SCF Done:  E(UM062X) =  -474.354126661     A.U. after   42 cycles
 SCF Done:  E(UM062X) =  -474.354724033     A.U. after   30 cycles
 SCF Done:  E(UM062X) =  -474.354923225     A.U. after   18 cycles
 SCF Done:  E(UM062X) =  -474.355026251     A.U. after   23 cycles
 SCF Done:  E(UM062X) =  -474.355044447     A.U. after   19 cycles
 SCF Done:  E(UM062X) =  -474.355047856     A.U. after   34 cycles
 SCF Done:  E(UM062X) =  -474.355051102     A.U. after   21 cycles
 SCF Done:  E(UM062X) =  -474.355052867     A.U. after   23 cycles
 SCF Done:  E(UM062X) =  -474.355052902     A.U. after   17 cycles
 Optimization completed.
    -- Stationary point found.

                          Input orientation:
 ---------------------------------------------------------------------
 Center     Atomic      Atomic             Coordinates (Angstroms)
 Number     Number       Type             X           Y           Z
 ---------------------------------------------------------------------
      1          8           0       -1.989392    0.000000    0.000000
      2         16           0        1.989392    0.000000    0.000000
      3          1           0       -1.949288   -0.782682   -0.571814
      4          1           0        1.720002    0.699947    1.119386
 ---------------------------------------------------------------------

 Alpha  occ. eigenvalues --  -89.97756 -19.67075  -8.33956  -6.26158  -6.25806
 Alpha  occ. eigenvalues --   -6.25235  -1.08367  -0.83974  -0.52443  -0.49838
 Alpha  occ. eigenvalues --   -0.39675  -0.35890  -0.32817
 Alpha virt. eigenvalues --   -0.23824   0.01499   0.03909   0.04612   0.05288
 Alpha virt. eigenvalues --    0.06567   0.12644   0.19152   0.19694   0.21181
 Alpha virt. eigenvalues --    0.24068   0.30787   0.33936   0.34952   0.38865

  Beta  occ. eigenvalues --  -89.97756 -19.67075  -8.33956  -6.26158  -6.25806
  Beta  occ. eigenvalues --   -6.25235  -1.08367  -0.83974  -0.52443  -0.49838
  Beta  occ. eigenvalues --   -0.39675  -0.35890  -0.32817
  Beta virt. eigenvalues --   -0.23824   0.01499   0.03909   0.04612   0.05288
  Beta virt. eigenvalues --    0.06567   0.12644   0.19152   0.19694   0.21181
  Beta virt. eigenvalues --    0.24068   0.30787   0.33936   0.34952   0.38865

 Mulliken charges and spin densities:
               1          2
     1  O   -0.383055   0.000000
     2  S    0.032304  -0.000000
     3  H    0.246039  -0.000000
     4  H    0.104713   0.000000
 Sum of Mulliken charges =   0.00000   0.00000

 Dipole moment (field-independent basis, Debye):
    X=              2.4773    Y=             -0.8025    Z=             -0.0349  Tot=              2.6042
 Quadrupole moment (field-independent basis, Debye-Ang):
   XX=            -18.8330   YY=            -19.9824   ZZ=            -18.9400
   XY=              4.0600   XZ=              4.0157   YZ=              3.0256

 Normal termination of Gaussian 16 at Thu May 15 13:43:40 2025.
