 Gaussian 16, Revision A.03,
 Gaussian 16:  ES64L-G16RevA.03 25-Dec-2016

 --------------------------------------------
 #p opt UM062X/6-311+G** nosymm int=superfine
 --------------------------------------------

 -------------------
 Title Card Required
 -------------------
 Symbolic Z-matrix:
 Charge =  0 Multiplicity = 1

 SCF Done:  E(UM062X) =  -437.170013041     A.U. after   16 cycles
 SCF Done:  E(UM062X) =  -437.171571620     A.U. after   14 cycles
 SCF Done:  E(UM062X) =  -437.172117599     A.U. after   14 cycles
 SCF Done:  E(UM062X) =  -437.172117960     A.U. after   14 cycles
 SCF Done:  E(UM062X) =  -437.172117799     A.U. after   13 cycles
 SCF Done:  E(UM062X) =  -437.172117995     A.U. after   19 cycles
 Optimization completed.
    -- Stationary point found.

                          Input orientation:
 ---------------------------------------------------------------------
 Center     Atomic      Atomic             Coordinates (Angstroms)
 Number     Number       Type             X           Y           Z
 ---------------------------------------------------------------------
      1          6           0       -1.752140    0.000000    0.000000
      2         16           0        1.752140    0.000000    0.000000
      3          1           0       -2.415781   -0.880743    0.000065
      4          1           0       -2.416619    0.880111   -0.000066
 ---------------------------------------------------------------------

 Alpha  occ. eigenvalues --  -89.92822 -10.65011  -8.28833  -6.21583  -6.20066
 Alpha  occ. eigenvalues --   -6.20062  -0.78839  -0.73008  -0.51604  -0.34700
 Alpha  occ. eigenvalues --   -0.30439  -0.30421
 Alpha virt. eigenvalues --   -0.15158  -0.11189   0.00976   0.05176   0.05342
 Alpha virt. eigenvalues --    0.06639   0.08265   0.08861   0.09310   0.14095
 Alpha virt. eigenvalues --    0.16873   0.17657   0.36521   0.36577   0.37096

  Beta  occ. eigenvalues --  -89.92822 -10.65011  -8.28833  -6.21583  -6.20066
  Beta  occ. eigenvalues --   -6.20062  -0.78839  -0.73008  -0.51604  -0.34700
  Beta  occ. eigenvalues --   -0.30439  -0.30421
  Beta virt. eigenvalues --   -0.15158  -0.11189   0.00976   0.05176   0.05342
  Beta virt. eigenvalues --    0.06639   0.08265   0.08861   0.09310   0.14095
  Beta virt. eigenvalues --    0.16873   0.17657   0.36521   0.36577   0.37096

 Mulliken charges and spin densities:
               1          2
     1  C   -0.269789   0.000000
     2  S   -0.047881  -0.000000
     3  H    0.158830  -0.000000
     4  H    0.158840  -0.000000
 Sum of Mulliken charges =  -0.00000   0.00000

 Dipole moment (field-independent basis, Debye):
    X=             -3.5094    Y=             -0.0009    Z=             -0.0000  Tot=              3.5094
 Quadrupole moment (field-independent basis, Debye-Ang):
   XX=            -11.4200   YY=            -22.3121   ZZ=            -21.9070
   XY=              0.0001   XZ=             -0.0000   YZ=              0.0000

 Normal termination of Gaussian 16 at Mon Apr 21 19:45:38 2025.
