 Gaussian 16, Revision A.03,
 Gaussian 16:  ES64L-G16RevA.03 25-Dec-2016

 ---------------------------------------------------
 #p UM062X/6-311+G** force int=superfine pop=saveNBO
 ---------------------------------------------------

 -------------------
 Title Card Required
 -------------------
 Symbolic Z-matrix:
 Charge =  0 Multiplicity = 1

                         Standard orientation:
 ---------------------------------------------------------------------
 Center     Atomic      Atomic             Coordinates (Angstroms)
 Number     Number       Type             X           Y           Z
 ---------------------------------------------------------------------
      1          8           0        0.000000    0.000000   -1.760091
      2         16           0        0.000000    0.000000    0.880045
 ---------------------------------------------------------------------

 SCF Done:  E(UM062X) =  -473.027430452     A.U. after   16 cycles

 Unable to determine electronic state:  an orbital has unidentified symmetry.
 Alpha  occ. eigenvalues --  -90.03767 -19.75578  -8.39303  -6.31380  -6.31297
 Alpha  occ. eigenvalues --   -6.30421  -1.04297  -0.81279  -0.42742  -0.40281
 Alpha  occ. eigenvalues --   -0.37512  -0.36689
 Alpha virt. eigenvalues --   -0.24173  -0.19475   0.02612   0.04691   0.05183
 Alpha virt. eigenvalues --    0.05633   0.17918   0.19943   0.20180   0.26099
 Alpha virt. eigenvalues --    0.32452   0.33411   0.34441   0.58196   0.74247

  Beta  occ. eigenvalues --  -90.03767 -19.75578  -8.39303  -6.31380  -6.31297
  Beta  occ. eigenvalues --   -6.30421  -1.04297  -0.81279  -0.42742  -0.40281
  Beta  occ. eigenvalues --   -0.37512  -0.36689
  Beta virt. eigenvalues --   -0.24173  -0.19475   0.02612   0.04691   0.05183
  Beta virt. eigenvalues --    0.05633   0.17918   0.19943   0.20180   0.26099
  Beta virt. eigenvalues --    0.32452   0.33411   0.34441   0.58196   0.74247

 Mulliken charges and spin densities:
               1          2
     1  O   -0.218629   0.000000
     2  S    0.218629  -0.000000
 Sum of Mulliken charges =  -0.00000   0.00000

 Dipole moment (field-independent basis, Debye):
    X=              0.0000    Y=              0.0000    Z=              2.7707  Tot=              2.7707
 Quadrupole moment (field-independent basis, Debye-Ang):
   XX=            -17.2174   YY=            -20.7431   ZZ=            -18.5113
   XY=              0.0000   XZ=              0.0000   YZ=              0.0000

 Summary of Natural Population Analysis:

                                       Natural Population
                Natural  -----------------------------------------------
    Atom  No    Charge         Core      Valence    Rydberg      Total
 -----------------------------------------------------------------------
      O    1   -0.14009      1.00000     3.13909    0.00100     4.14009
      S    2    0.14009      4.99999     2.85889    0.00103     7.85991
 =======================================================================
   * Total *   -0.00000      5.99999     5.99798    0.00203    12.00000

 Normal termination of Gaussian 16 at Mon Apr 21 19:55:17 2025.
