 Gaussian 16, Revision A.03,
 Gaussian 16:  ES64L-G16RevA.03 25-Dec-2016

 --------------------------------
 #p UM062X/6-311+G** Pop=NBO Read
 --------------------------------

 ------------
 NBO Analysis
 ------------
 Symbolic Z-matrix:
 Charge =  0 Multiplicity = 1

                         Standard orientation:
 ---------------------------------------------------------------------
 Center     Atomic      Atomic             Coordinates (Angstroms)
 Number     Number       Type             X           Y           Z
 ---------------------------------------------------------------------
      1         16           0       -0.000000   -1.043191   -0.054820
      2         16           0        0.000000    1.043191   -0.054820
      3          1           0        0.952033   -1.226833    0.877125
      4          1           0       -0.952033    1.226833    0.877125
 ---------------------------------------------------------------------

 SCF Done:  E(UM062X) =  -797.495054819     A.U. after   10 cycles

 The electronic state is 1-A.
 Alpha  occ. eigenvalues --  -89.95476 -89.95476  -8.30095  -8.30087  -6.22185
 Alpha  occ. eigenvalues --   -6.22171  -6.21889  -6.21886  -6.21411  -6.21411
 Alpha  occ. eigenvalues --   -0.90262  -0.76053  -0.51924  -0.47448  -0.41638
 Alpha  occ. eigenvalues --   -0.32420  -0.32394
 Alpha virt. eigenvalues --   -0.02160   0.01186   0.04713   0.06095   0.06527
 Alpha virt. eigenvalues --    0.06603   0.09045   0.09203   0.09389   0.14710
 Alpha virt. eigenvalues --    0.14854   0.44413   0.48182   0.49052   0.50528

  Beta  occ. eigenvalues --  -89.95476 -89.95476  -8.30095  -8.30087  -6.22185
  Beta  occ. eigenvalues --   -6.22171  -6.21889  -6.21886  -6.21411  -6.21411
  Beta  occ. eigenvalues --   -0.90262  -0.76053  -0.51924  -0.47448  -0.41638
  Beta  occ. eigenvalues --   -0.32420  -0.32394
  Beta virt. eigenvalues --   -0.02160   0.01186   0.04713   0.06095   0.06527
  Beta virt. eigenvalues --    0.06603   0.09045   0.09203   0.09389   0.14710
  Beta virt. eigenvalues --    0.14854   0.44413   0.48182   0.49052   0.50528

 Mulliken charges and spin densities:
               1          2
     1  S   -0.065648   0.000000
     2  S   -0.065648   0.000000
     3  H    0.065648   0.000000
     4  H    0.065648   0.000000
 Sum of Mulliken charges =  -0.00000   0.00000

 Dipole moment (field-independent basis, Debye):
    X=             -0.0000    Y=              0.0000    Z=              1.5073  Tot=              1.5073
 Quadrupole moment (field-independent basis, Debye-Ang):
   XX=            -27.0787   YY=            -26.9248   ZZ=            -27.4201
   XY=             -2.5078   XZ=             -0.0000   YZ=              0.0000

 Summary of Natural Population Analysis:

                                       Natural Population
                Natural  -----------------------------------------------
    Atom  No    Charge         Core      Valence    Rydberg      Total
 -----------------------------------------------------------------------
      S    1   -0.07943      4.99976     3.05730    0.02237     8.07943
      S    2   -0.07943      4.99976     3.05730    0.02237     8.07943
      H    3    0.07943      0.00000     0.41828    0.00228     0.42057
      H    4    0.07943      0.00000     0.41828    0.00228     0.42057
 =======================================================================
   * Total *   -0.00000      9.99951     6.95117    0.04932    17.00000

 Normal termination of Gaussian 16 at Wed Apr 16 06:22:32 2025.
