 Gaussian 16, Revision A.03,
 Gaussian 16:  ES64L-G16RevA.03 25-Dec-2016

 --------------------------------------------
 #p opt UM062X/6-311+G** nosymm int=superfine
 --------------------------------------------

 -------------------
 Title Card Required
 -------------------
 Symbolic Z-matrix:
 Charge =  1 Multiplicity = 2

 SCF Done:  E(UM062X) =  -379.301892849     A.U. after   71 cycles
 SCF Done:  E(UM062X) =  -379.302614802     A.U. after   26 cycles
 SCF Done:  E(UM062X) =  -379.302615943     A.U. after   13 cycles
 Optimization completed.
    -- Stationary point found.

                          Input orientation:
 ---------------------------------------------------------------------
 Center     Atomic      Atomic             Coordinates (Angstroms)
 Number     Number       Type             X           Y           Z
 ---------------------------------------------------------------------
      1          6           0       -1.819427    0.000000    0.000000
      2         15           0        1.819427    0.000000    0.000000
      3          1           0       -2.939268   -0.000001   -0.000000
 ---------------------------------------------------------------------

 Alpha  occ. eigenvalues --  -78.33307 -10.97338  -7.14808  -5.26943  -5.26584
 Alpha  occ. eigenvalues --   -5.25564  -0.99391  -0.86453  -0.65662  -0.52033
 Alpha  occ. eigenvalues --   -0.46583
 Alpha virt. eigenvalues --   -0.38267  -0.34964  -0.34602  -0.13328  -0.09822
 Alpha virt. eigenvalues --   -0.08601  -0.08272  -0.06610  -0.05609  -0.05216
 Alpha virt. eigenvalues --   -0.02347   0.00366   0.16263   0.16468   0.16485

  Beta  occ. eigenvalues --  -78.32556 -10.97294  -7.14582  -5.26370  -5.25433
  Beta  occ. eigenvalues --   -5.24648  -0.99158  -0.81306  -0.65473  -0.45584
  Beta virt. eigenvalues --   -0.37156  -0.34828  -0.33299  -0.29617  -0.13795
  Beta virt. eigenvalues --   -0.10810  -0.08513  -0.08283  -0.06609  -0.05258
  Beta virt. eigenvalues --   -0.04915  -0.02697   0.00223   0.13871   0.15520

 Mulliken charges and spin densities:
               1          2
     1  C    0.219282   0.055177
     2  P    0.528892   0.947177
     3  H    0.251826  -0.002354
 Sum of Mulliken charges =   1.00000   1.00000

 Dipole moment (field-independent basis, Debye):
    X=             -1.7049    Y=             -0.0000    Z=             -0.0000  Tot=              1.7049
 Quadrupole moment (field-independent basis, Debye-Ang):
   XX=             10.8128   YY=            -17.7888   ZZ=            -18.8049
   XY=              0.0000   XZ=              0.0000   YZ=              1.4945

 Normal termination of Gaussian 16 at Mon Apr 21 19:25:21 2025.
