 Gaussian 16, Revision A.03,
 Gaussian 16:  ES64L-G16RevA.03 25-Dec-2016

 ---------------------------------------------------
 #p UM062X/6-311+G** force int=superfine pop=saveNBO
 ---------------------------------------------------

 -------------------
 Title Card Required
 -------------------
 Symbolic Z-matrix:
 Charge =  0 Multiplicity = 1

                         Standard orientation:
 ---------------------------------------------------------------------
 Center     Atomic      Atomic             Coordinates (Angstroms)
 Number     Number       Type             X           Y           Z
 ---------------------------------------------------------------------
      1         15           0        0.000000    0.000000    1.488495
      2         15           0        0.000000    0.000000   -1.488495
 ---------------------------------------------------------------------

 SCF Done:  E(UM062X) =  -682.426467451     A.U. after    9 cycles

 The electronic state is 1-SGG.
 Alpha  occ. eigenvalues --  -78.11766 -78.11766  -6.93297  -6.93295  -5.04618
 Alpha  occ. eigenvalues --   -5.04618  -5.04618  -5.04618  -5.04558  -5.04557
 Alpha  occ. eigenvalues --   -0.66215  -0.61269  -0.30861  -0.27188  -0.27188
 Alpha virt. eigenvalues --   -0.15050  -0.15050  -0.09446   0.02450   0.03449
 Alpha virt. eigenvalues --    0.04595   0.04595   0.06112   0.06593   0.06593
 Alpha virt. eigenvalues --    0.11591   0.28821   0.30088   0.30088   0.33154

  Beta  occ. eigenvalues --  -78.11766 -78.11766  -6.93297  -6.93295  -5.04618
  Beta  occ. eigenvalues --   -5.04618  -5.04618  -5.04618  -5.04558  -5.04557
  Beta  occ. eigenvalues --   -0.66215  -0.61269  -0.30861  -0.27188  -0.27188
  Beta virt. eigenvalues --   -0.15050  -0.15050  -0.09446   0.02450   0.03449
  Beta virt. eigenvalues --    0.04595   0.04595   0.06112   0.06593   0.06593
  Beta virt. eigenvalues --    0.11591   0.28821   0.30088   0.30088   0.33154

 Mulliken charges and spin densities:
               1          2
     1  P    0.000000  -0.000000
     2  P    0.000000  -0.000000
 Sum of Mulliken charges =   0.00000  -0.00000

 Dipole moment (field-independent basis, Debye):
    X=              0.0000    Y=             -0.0000    Z=             -0.0000  Tot=              0.0000
 Quadrupole moment (field-independent basis, Debye-Ang):
   XX=            -29.1198   YY=            -29.1198   ZZ=            -24.8493
   XY=              0.0000   XZ=             -0.0000   YZ=              0.0000

 Summary of Natural Population Analysis:

                                       Natural Population
                Natural  -----------------------------------------------
    Atom  No    Charge         Core      Valence    Rydberg      Total
 -----------------------------------------------------------------------
      P    1    0.00000      4.99998     2.49865    0.00137     7.50000
      P    2    0.00000      4.99998     2.49865    0.00137     7.50000
 =======================================================================
   * Total *    0.00000      9.99996     4.99730    0.00274    15.00000

 Normal termination of Gaussian 16 at Mon Apr 21 21:20:58 2025.
