 Gaussian 16, Revision A.03,
 Gaussian 16:  ES64L-G16RevA.03 25-Dec-2016

 --------------------------------------------
 #p opt UM062X/6-311+G** nosymm int=superfine
 --------------------------------------------

 -------------------
 Title Card Required
 -------------------
 Symbolic Z-matrix:
 Charge =  0 Multiplicity = 1

 SCF Done:  E(UM062X) =  -95.7539066246     A.U. after   11 cycles
 SCF Done:  E(UM062X) =  -95.7654885884     A.U. after   11 cycles
 SCF Done:  E(UM062X) =  -95.7668878116     A.U. after   10 cycles
 SCF Done:  E(UM062X) =  -95.7669045331     A.U. after    9 cycles
 SCF Done:  E(UM062X) =  -95.7669055834     A.U. after    8 cycles
 Optimization completed.
    -- Stationary point found.

                          Input orientation:
 ---------------------------------------------------------------------
 Center     Atomic      Atomic             Coordinates (Angstroms)
 Number     Number       Type             X           Y           Z
 ---------------------------------------------------------------------
      1          6           0       -1.005542    0.000000    0.000000
      2          7           0        1.005542    0.000000    0.000000
      3          1           0        1.153117   -1.004104    0.111779
      4          1           0       -1.220989    1.060574   -0.005835
      5          1           0        1.153048    0.384108    0.934450
      6          1           0       -1.220985   -0.504242   -0.933058
      7          1           0       -1.314954   -0.529460    0.893512
 ---------------------------------------------------------------------

 Alpha  occ. eigenvalues --  -14.74467 -10.58331  -0.91781  -0.77432  -0.52686
 Alpha  occ. eigenvalues --   -0.49693  -0.47746  -0.38322  -0.32520
 Alpha virt. eigenvalues --    0.00457   0.01456   0.05149   0.05883   0.08708
 Alpha virt. eigenvalues --    0.11306   0.13745   0.16030   0.16782   0.18587
 Alpha virt. eigenvalues --    0.21384   0.22460   0.22528   0.31413   0.42065

  Beta  occ. eigenvalues --  -14.74467 -10.58331  -0.91781  -0.77432  -0.52686
  Beta  occ. eigenvalues --   -0.49693  -0.47746  -0.38322  -0.32520
  Beta virt. eigenvalues --    0.00457   0.01456   0.05149   0.05883   0.08708
  Beta virt. eigenvalues --    0.11306   0.13745   0.16030   0.16782   0.18587
  Beta virt. eigenvalues --    0.21384   0.22460   0.22528   0.31413   0.42065

 Mulliken charges and spin densities:
               1          2
     1  C   -0.425632   0.000000
     2  N   -0.570874  -0.000000
     3  H    0.236688   0.000000
     4  H    0.179033   0.000000
     5  H    0.236685   0.000000
     6  H    0.179032  -0.000000
     7  H    0.165069  -0.000000
 Sum of Mulliken charges =  -0.00000  -0.00000

 Dipole moment (field-independent basis, Debye):
    X=             -1.5666    Y=             -0.8694    Z=              1.4671  Tot=              2.3158
 Quadrupole moment (field-independent basis, Debye-Ang):
   XX=            -15.1005   YY=            -13.2839   ZZ=            -14.1943
   XY=             -1.2867   XZ=              2.1710   YZ=              0.8315

 Normal termination of Gaussian 16 at Mon Apr 21 18:11:22 2025.
