 Gaussian 16, Revision A.03,
 Gaussian 16:  ES64L-G16RevA.03 25-Dec-2016

 --------------------------------------------
 #p opt UM062X/6-311+G** nosymm int=superfine
 --------------------------------------------

 -------------------
 Title Card Required
 -------------------
 Symbolic Z-matrix:
 Charge =  1 Multiplicity = 2

 SCF Done:  E(UM062X) =  -1615.53269504     A.U. after   22 cycles
 SCF Done:  E(UM062X) =  -1615.57491677     A.U. after   20 cycles
 SCF Done:  E(UM062X) =  -1615.58561531     A.U. after   20 cycles
 SCF Done:  E(UM062X) =  -1615.58552902     A.U. after   20 cycles
 SCF Done:  E(UM062X) =  -1615.58548100     A.U. after   20 cycles
 SCF Done:  E(UM062X) =  -1615.58435502     A.U. after   19 cycles
 SCF Done:  E(UM062X) =  -1615.58573241     A.U. after   14 cycles
 SCF Done:  E(UM062X) =  -1615.57648976     A.U. after   21 cycles
 SCF Done:  E(UM062X) =  -1615.58524795     A.U. after   19 cycles
 SCF Done:  E(UM062X) =  -1615.58641213     A.U. after   15 cycles
 SCF Done:  E(UM062X) =  -1615.58623491     A.U. after   20 cycles
 SCF Done:  E(UM062X) =  -1615.58660629     A.U. after   20 cycles
 SCF Done:  E(UM062X) =  -1615.58660952     A.U. after   15 cycles
 SCF Done:  E(UM062X) =  -1615.58661244     A.U. after   14 cycles
 SCF Done:  E(UM062X) =  -1615.58661263     A.U. after   13 cycles
 SCF Done:  E(UM062X) =  -1615.58661265     A.U. after   12 cycles
 Optimization completed.
    -- Stationary point found.

                          Input orientation:
 ---------------------------------------------------------------------
 Center     Atomic      Atomic             Coordinates (Angstroms)
 Number     Number       Type             X           Y           Z
 ---------------------------------------------------------------------
      1          6           0       -1.341058    0.000000    0.000000
      2          6           0        1.341058    0.000000    0.000000
      3          6           0       -0.000011   -2.129446    0.000161
      4          6           0       -0.000000   -3.512423    0.000272
      5          6           0       -1.133021   -4.316763    0.250144
      6          6           0       -1.245341   -1.480188    0.228162
      7          6           0        0.661160   -5.712132   -0.147278
      8          1           0        1.279402   -6.587066   -0.288885
      9          6           0       -1.523025    0.811482    1.183991
     10          6           0       -0.661198   -5.712115    0.147887
     11          1           0       -1.279453   -6.587034    0.289539
     12          6           0        1.133001   -4.316792   -0.249603
     13          6           0        1.245298   -1.480202   -0.228027
     14          6           0        1.703508    2.230148   -1.233260
     15          6           0       -1.532008    0.345172   -1.394866
     16          6           0       -1.886303    2.857240    2.480484
     17          1           0       -2.035633    3.930659    2.492750
     18          6           0       -2.319829   -3.678283    0.519308
     19          1           0       -3.232746   -4.224716    0.726815
     20          6           0       -1.577196    1.666287   -1.945766
     21          6           0        2.358195   -2.253403   -0.495653
     22          1           0        3.310631   -1.758493   -0.655352
     23          6           0        1.532177    0.345387    1.394821
     24          6           0        1.577473    1.666596    1.945490
     25          6           0        2.319759   -3.678336   -0.519050
     26          1           0        3.232643   -4.224785   -0.726657
     27          6           0       -1.703592    2.230311    1.232938
     28          6           0       -1.479500    0.138106    2.437466
     29          1           0       -1.302204   -0.926212    2.455895
     30          6           0        1.645791   -0.726941    2.332082
     31          1           0        1.651005   -1.746768    1.979574
     32          6           0       -1.880854    2.159559    3.669463
     33          1           0       -2.032848    2.677455    4.608643
     34          6           0       -2.358273   -2.253352    0.495728
     35          1           0       -3.310733   -1.758426    0.655224
     36          6           0       -1.673327    1.830270   -3.343376
     37          1           0       -1.686290    2.840720   -3.735102
     38          6           0        1.523105    0.811305   -1.184082
     39          6           0       -1.661060    3.135893    0.114545
     40          1           0       -1.706676    4.183011    0.397753
     41          6           0       -1.779546    0.766692   -4.209349
     42          1           0       -1.873688    0.934782   -5.275290
     43          6           0       -1.576732    2.900860   -1.208688
     44          1           0       -1.556277    3.786361   -1.836844
     45          6           0        1.674011    1.830828    3.343044
     46          1           0        1.687092    2.841349    3.734582
     47          6           0       -1.658432    0.781225    3.641626
     48          1           0       -1.618719    0.211822    4.562244
     49          6           0       -1.645447   -0.727327   -2.331951
     50          1           0       -1.650780   -1.747085   -1.979233
     51          6           0        1.780456    0.767407    4.209178
     52          1           0        1.874919    0.935684    5.275061
     53          6           0        1.886332    2.856868   -2.480891
     54          1           0        2.035530    3.930303   -2.493332
     55          6           0        1.783174   -0.529046    3.685916
     56          1           0        1.889415   -1.385218    4.340776
     57          6           0        1.881167    2.158962   -3.669741
     58          1           0        2.033259    2.676700   -4.608992
     59          6           0        1.660670    3.135920   -0.115033
     60          1           0        1.705917    4.183004   -0.398427
     61          6           0       -1.782495   -0.529670   -3.685851
     62          1           0       -1.888629   -1.385953   -4.340584
     63          6           0        1.576551    2.901066    1.208240
     64          1           0        1.555883    3.786650    1.836272
     65          6           0        1.479820    0.137696   -2.437436
     66          1           0        1.302625   -0.926644   -2.455679
     67          6           0        1.658880    0.780611   -3.641686
     68          1           0        1.619355    0.211037   -4.562207
 ---------------------------------------------------------------------

 Alpha  occ. eigenvalues --  -10.71113 -10.71111 -10.68572 -10.68571 -10.68560
 Alpha  occ. eigenvalues --  -10.68560 -10.68234 -10.68233 -10.68132 -10.68132
 Alpha  occ. eigenvalues --  -10.67035 -10.67034 -10.66589 -10.66588 -10.66484
 Alpha  occ. eigenvalues --  -10.66483 -10.66034 -10.66001 -10.66001 -10.65782
 Alpha  occ. eigenvalues --  -10.65781 -10.65769 -10.65769 -10.65768 -10.65767
 Alpha  occ. eigenvalues --  -10.65707 -10.65707 -10.65651 -10.65651 -10.65585
 Alpha  occ. eigenvalues --  -10.65584 -10.65569 -10.65569 -10.65495 -10.65495
 Alpha  occ. eigenvalues --  -10.65289 -10.65289 -10.65000 -10.64999 -10.64008
 Alpha  occ. eigenvalues --  -10.63910 -10.63334  -1.12426  -1.10239  -1.10161
 Alpha  occ. eigenvalues --   -1.08425  -1.07785  -1.05732  -1.04840  -1.02579
 Alpha  occ. eigenvalues --   -1.02105  -1.00864  -1.00496  -0.97948  -0.97630
 Alpha  occ. eigenvalues --   -0.96869  -0.96268  -0.95023  -0.93501  -0.93479
 Alpha  occ. eigenvalues --   -0.92823  -0.91882  -0.87438  -0.87389  -0.84981
 Alpha  occ. eigenvalues --   -0.84747  -0.83099  -0.81439  -0.81245  -0.79839
 Alpha  occ. eigenvalues --   -0.79730  -0.79530  -0.77543  -0.76406  -0.76193
 Alpha  occ. eigenvalues --   -0.75779  -0.75444  -0.73589  -0.70246  -0.69710
 Alpha  occ. eigenvalues --   -0.69079  -0.68529  -0.67747  -0.67632  -0.66952
 Alpha  occ. eigenvalues --   -0.66846  -0.65690  -0.65369  -0.65169  -0.64817
 Alpha  occ. eigenvalues --   -0.63314  -0.62940  -0.62364  -0.62170  -0.61159
 Alpha  occ. eigenvalues --   -0.61074  -0.60689  -0.60479  -0.60095  -0.60082
 Alpha  occ. eigenvalues --   -0.59588  -0.58932  -0.58796  -0.58144  -0.57825
 Alpha  occ. eigenvalues --   -0.57614  -0.56766  -0.55907  -0.55670  -0.55640
 Alpha  occ. eigenvalues --   -0.54986  -0.54015  -0.53135  -0.52840  -0.52663
 Alpha  occ. eigenvalues --   -0.52451  -0.52314  -0.52300  -0.51099  -0.50994
 Alpha  occ. eigenvalues --   -0.50975  -0.50908  -0.50281  -0.49502  -0.49326
 Alpha  occ. eigenvalues --   -0.48890  -0.48550  -0.47857  -0.44810  -0.44617
 Alpha  occ. eigenvalues --   -0.44127  -0.42846  -0.40488  -0.40426  -0.39286
 Alpha  occ. eigenvalues --   -0.38159  -0.37593  -0.37169  -0.31907
 Alpha virt. eigenvalues --   -0.19953  -0.15832  -0.15568  -0.14371  -0.10577
 Alpha virt. eigenvalues --   -0.09944  -0.08883  -0.08545  -0.08360  -0.07572
 Alpha virt. eigenvalues --   -0.07513  -0.07467  -0.06649  -0.06376  -0.06136

  Beta  occ. eigenvalues --  -10.70977 -10.70976 -10.68608 -10.68607 -10.68587
  Beta  occ. eigenvalues --  -10.68587 -10.68193 -10.68193 -10.68090 -10.68090
  Beta  occ. eigenvalues --  -10.67052 -10.67051 -10.66581 -10.66580 -10.66472
  Beta  occ. eigenvalues --  -10.66472 -10.66008 -10.65964 -10.65964 -10.65782
  Beta  occ. eigenvalues --  -10.65781 -10.65740 -10.65740 -10.65740 -10.65739
  Beta  occ. eigenvalues --  -10.65683 -10.65683 -10.65669 -10.65669 -10.65601
  Beta  occ. eigenvalues --  -10.65600 -10.65555 -10.65555 -10.65503 -10.65503
  Beta  occ. eigenvalues --  -10.65303 -10.65303 -10.64996 -10.64996 -10.64008
  Beta  occ. eigenvalues --  -10.63909 -10.63332  -1.12262  -1.10147  -1.10004
  Beta  occ. eigenvalues --   -1.08310  -1.07684  -1.05568  -1.04717  -1.02454
  Beta  occ. eigenvalues --   -1.01995  -1.00704  -1.00322  -0.97847  -0.97537
  Beta  occ. eigenvalues --   -0.96748  -0.96164  -0.94973  -0.93438  -0.93381
  Beta  occ. eigenvalues --   -0.92738  -0.91793  -0.87107  -0.87078  -0.84911
  Beta  occ. eigenvalues --   -0.84684  -0.83020  -0.81347  -0.81129  -0.79755
  Beta  occ. eigenvalues --   -0.79660  -0.79459  -0.77427  -0.76249  -0.76044
  Beta  occ. eigenvalues --   -0.75615  -0.75409  -0.73464  -0.70131  -0.69563
  Beta  occ. eigenvalues --   -0.68940  -0.68422  -0.67689  -0.67581  -0.66829
  Beta  occ. eigenvalues --   -0.66745  -0.65612  -0.65228  -0.65032  -0.64714
  Beta  occ. eigenvalues --   -0.63067  -0.62897  -0.62283  -0.62087  -0.60934
  Beta  occ. eigenvalues --   -0.60810  -0.60543  -0.60349  -0.60034  -0.60029
  Beta  occ. eigenvalues --   -0.59465  -0.58793  -0.58713  -0.58068  -0.57588
  Beta  occ. eigenvalues --   -0.57373  -0.56590  -0.55616  -0.55584  -0.55553
  Beta  occ. eigenvalues --   -0.54968  -0.53679  -0.53014  -0.52754  -0.52583
  Beta  occ. eigenvalues --   -0.52396  -0.52215  -0.52206  -0.50957  -0.50925
  Beta  occ. eigenvalues --   -0.50819  -0.50482  -0.49597  -0.49218  -0.48929
  Beta  occ. eigenvalues --   -0.48699  -0.48493  -0.47523  -0.44303  -0.44084
  Beta  occ. eigenvalues --   -0.43394  -0.42506  -0.40359  -0.40077  -0.38675
  Beta  occ. eigenvalues --   -0.37965  -0.37357  -0.37024
  Beta virt. eigenvalues --   -0.22013  -0.17623  -0.15584  -0.15512  -0.14406
  Beta virt. eigenvalues --   -0.10327  -0.09550  -0.08511  -0.08410  -0.08233
  Beta virt. eigenvalues --   -0.07572  -0.07569  -0.07216  -0.06629  -0.06320

 Mulliken charges and spin densities:
               1          2
     1  C    0.013510   0.322042
     2  C    0.013587   0.322081
     3  C    0.234824   0.006684
     4  C    0.109003   0.000801
     5  C    0.113358   0.005119
     6  C   -0.000689  -0.030692
     7  C   -0.308130   0.001197
     8  H    0.176320  -0.000050
     9  C    0.231575  -0.043219
    10  C   -0.308173   0.001198
    11  H    0.176320  -0.000050
    12  C    0.113516   0.005115
    13  C   -0.000577  -0.030690
    14  C    0.303840   0.049089
    15  C    0.322046  -0.052899
    16  C   -0.257501  -0.033741
    17  H    0.163879   0.001043
    18  C   -0.451693  -0.000612
    19  H    0.175853   0.000322
    20  C    0.217209   0.099912
    21  C   -0.134108   0.016205
    22  H    0.174424  -0.000229
    23  C    0.322264  -0.052895
    24  C    0.217184   0.099938
    25  C   -0.451572  -0.000612
    26  H    0.175852   0.000322
    27  C    0.303774   0.049127
    28  C   -0.066878   0.061822
    29  H    0.205616  -0.003462
    30  C   -0.292300   0.032810
    31  H    0.226425  -0.002013
    32  C   -0.381972   0.056750
    33  H    0.181902  -0.003039
    34  C   -0.134167   0.016198
    35  H    0.174412  -0.000229
    36  C   -0.044381  -0.051758
    37  H    0.161993   0.001454
    38  C    0.231486  -0.043197
    39  C   -0.287467   0.060356
    40  H    0.166675  -0.003715
    41  C   -0.228820   0.058625
    42  H    0.180425  -0.002887
    43  C   -0.286068   0.017089
    44  H    0.159663  -0.000937
    45  C   -0.044608  -0.051771
    46  H    0.162005   0.001454
    47  C   -0.119641  -0.027120
    48  H    0.168981  -0.000393
    49  C   -0.292392   0.032790
    50  H    0.226433  -0.002013
    51  C   -0.228978   0.058597
    52  H    0.180426  -0.002885
    53  C   -0.257836  -0.033741
    54  H    0.163886   0.001043
    55  C   -0.331163  -0.031783
    56  H    0.175220   0.000979
    57  C   -0.382122   0.056729
    58  H    0.181902  -0.003038
    59  C   -0.286992   0.060355
    60  H    0.166656  -0.003717
    61  C   -0.331148  -0.031796
    62  H    0.175220   0.000979
    63  C   -0.285808   0.017058
    64  H    0.159644  -0.000936
    65  C   -0.066902   0.061851
    66  H    0.205622  -0.003463
    67  C   -0.119830  -0.027158
    68  H    0.168983  -0.000393
 Sum of Mulliken charges =   1.00000   1.00000

 Dipole moment (field-independent basis, Debye):
    X=              0.0005    Y=              2.4091    Z=             -0.0004  Tot=              2.4091
 Quadrupole moment (field-independent basis, Debye-Ang):
   XX=           -222.5439   YY=           -175.0843   ZZ=           -176.2274
   XY=             -0.0013   XZ=             -1.7143   YZ=              0.0021

 Normal termination of Gaussian 16 at Fri Nov  8 23:24:19 2024.
