 Gaussian 16, Revision A.03,
 Gaussian 16:  ES64L-G16RevA.03 25-Dec-2016

 --------------------------------------------
 #p opt UM062X/6-311+G** nosymm int=superfine
 --------------------------------------------

 -------------------
 Title Card Required
 -------------------
 Symbolic Z-matrix:
 Charge =  0 Multiplicity = 1

 SCF Done:  E(UM062X) =  -582.357136814     A.U. after   10 cycles
 SCF Done:  E(UM062X) =  -582.359450646     A.U. after    9 cycles
 SCF Done:  E(UM062X) =  -582.360174959     A.U. after    9 cycles
 SCF Done:  E(UM062X) =  -582.360175471     A.U. after    7 cycles
 Optimization completed.
    -- Stationary point found.

                          Input orientation:
 ---------------------------------------------------------------------
 Center     Atomic      Atomic             Coordinates (Angstroms)
 Number     Number       Type             X           Y           Z
 ---------------------------------------------------------------------
      1         14           0       -2.594819    0.000000    0.000000
      2         14           0        2.594819    0.000000    0.000000
      3          1           0        2.992570   -1.421607   -0.000054
      4          1           0       -2.992335   -0.710782    1.231241
      5          1           0        2.992478    0.710958   -1.231093
      6          1           0        2.992344    0.710835    1.231207
      7          1           0       -2.992574    1.421606   -0.000110
      8          1           0       -2.992484   -0.711013   -1.231059
 ---------------------------------------------------------------------

 Alpha  occ. eigenvalues --  -67.01892 -67.01892  -5.56826  -5.56826  -3.88062
 Alpha  occ. eigenvalues --   -3.88062  -3.87812  -3.87812  -3.87812  -3.87812
 Alpha  occ. eigenvalues --   -0.61198  -0.61030  -0.42214  -0.42213  -0.42191
 Alpha  occ. eigenvalues --   -0.42190  -0.20781
 Alpha virt. eigenvalues --   -0.12175   0.01924   0.02987   0.02987   0.03174
 Alpha virt. eigenvalues --    0.04885   0.04886   0.06388   0.06641   0.07637
 Alpha virt. eigenvalues --    0.07638   0.08299   0.08300   0.10824   0.15177

  Beta  occ. eigenvalues --  -67.01892 -67.01892  -5.56826  -5.56826  -3.88062
  Beta  occ. eigenvalues --   -3.88062  -3.87812  -3.87812  -3.87812  -3.87812
  Beta  occ. eigenvalues --   -0.61198  -0.61030  -0.42214  -0.42213  -0.42191
  Beta  occ. eigenvalues --   -0.42190  -0.20781
  Beta virt. eigenvalues --   -0.12175   0.01924   0.02987   0.02987   0.03174
  Beta virt. eigenvalues --    0.04885   0.04886   0.06388   0.06641   0.07637
  Beta virt. eigenvalues --    0.07638   0.08299   0.08300   0.10824   0.15177

 Mulliken charges and spin densities:
               1          2
     1  Si   0.262531  -0.000012
     2  Si   0.262532   0.000012
     3  H   -0.087508   0.000000
     4  H   -0.087511  -0.000000
     5  H   -0.087512   0.000000
     6  H   -0.087511   0.000000
     7  H   -0.087508  -0.000000
     8  H   -0.087512  -0.000000
 Sum of Mulliken charges =  -0.00000   0.00000

 Dipole moment (field-independent basis, Debye):
    X=              0.0000    Y=             -0.0000    Z=              0.0000  Tot=              0.0000
 Quadrupole moment (field-independent basis, Debye-Ang):
   XX=            -27.8376   YY=            -32.2385   ZZ=            -32.2387
   XY=             -0.0008   XZ=              0.0000   YZ=              0.0000

 Normal termination of Gaussian 16 at Mon Apr 21 20:21:21 2025.
