 Gaussian 16, Revision A.03,
 Gaussian 16:  ES64L-G16RevA.03 25-Dec-2016

 --------------------------------------------
 #p opt UM062X/6-311+G** nosymm int=superfine
 --------------------------------------------

 -------------------
 Title Card Required
 -------------------
 Symbolic Z-matrix:
 Charge = -1 Multiplicity = 2

 SCF Done:  E(UM062X) =  -52.0363177270     A.U. after   10 cycles
 SCF Done:  E(UM062X) =  -52.0364423652     A.U. after    8 cycles
 SCF Done:  E(UM062X) =  -52.0364751333     A.U. after    9 cycles
 SCF Done:  E(UM062X) =  -52.0364660151     A.U. after   10 cycles
 SCF Done:  E(UM062X) =  -52.0364416176     A.U. after   10 cycles
 SCF Done:  E(UM062X) =  -52.0364731007     A.U. after   10 cycles
 SCF Done:  E(UM062X) =  -52.0364748846     A.U. after    9 cycles
 SCF Done:  E(UM062X) =  -52.0364752494     A.U. after    8 cycles
 Optimization completed.
    -- Stationary point found.

                          Input orientation:
 ---------------------------------------------------------------------
 Center     Atomic      Atomic             Coordinates (Angstroms)
 Number     Number       Type             X           Y           Z
 ---------------------------------------------------------------------
      1          5           0       -0.897274    0.000000    0.000000
      2          5           0        0.897274    0.000000    0.000000
      3          1           0       -1.548122   -1.023370    0.000371
      4          1           0        1.548122    1.023370   -0.000112
      5          1           0       -1.548122    1.023370   -0.000452
      6          1           0        1.548122   -1.023370    0.000031
 ---------------------------------------------------------------------

 Alpha  occ. eigenvalues --   -6.80184  -6.80148  -0.37561  -0.30590  -0.19864
 Alpha  occ. eigenvalues --   -0.15087  -0.10958  -0.00774
 Alpha virt. eigenvalues --    0.15714   0.17027   0.18849   0.19186   0.19361
 Alpha virt. eigenvalues --    0.22409   0.22622   0.26897   0.26918   0.34308
 Alpha virt. eigenvalues --    0.36128   0.38525   0.42038   0.44876   0.52613

  Beta  occ. eigenvalues --   -6.80156  -6.80127  -0.35352  -0.29453  -0.19425
  Beta  occ. eigenvalues --   -0.15027  -0.10175
  Beta virt. eigenvalues --    0.11738   0.14862   0.15467   0.17541   0.17664
  Beta virt. eigenvalues --    0.18775   0.19019   0.22872   0.23692   0.30399
  Beta virt. eigenvalues --    0.33521   0.36101   0.37795   0.42171   0.44957

 Mulliken charges and spin densities:
               1          2
     1  B   -0.348609   0.545063
     2  B   -0.348609   0.545063
     3  H   -0.075695  -0.022532
     4  H   -0.075695  -0.022532
     5  H   -0.075695  -0.022532
     6  H   -0.075695  -0.022532
 Sum of Mulliken charges =  -1.00000   1.00000

 Dipole moment (field-independent basis, Debye):
    X=              0.0000    Y=              0.0000    Z=              0.0000  Tot=              0.0000
 Quadrupole moment (field-independent basis, Debye-Ang):
   XX=            -28.7561   YY=            -23.1668   ZZ=            -21.9177
   XY=             -0.0000   XZ=              0.0000   YZ=              0.0003

 Normal termination of Gaussian 16 at Mon Apr 21 17:16:22 2025.
