 Gaussian 16, Revision A.03,
 Gaussian 16:  ES64L-G16RevA.03 25-Dec-2016

 ---------------------------------------------------
 #p UM062X/6-311+G** force int=superfine pop=saveNBO
 ---------------------------------------------------

 -------------------
 Title Card Required
 -------------------
 Symbolic Z-matrix:
 Charge =  0 Multiplicity = 1

                         Standard orientation:
 ---------------------------------------------------------------------
 Center     Atomic      Atomic             Coordinates (Angstroms)
 Number     Number       Type             X           Y           Z
 ---------------------------------------------------------------------
      1          8           0        0.000000    0.000000    0.693562
      2          8           0        0.000000    0.000000   -0.693562
 ---------------------------------------------------------------------

 SCF Done:  E(UM062X) =  -150.205467999     A.U. after    9 cycles

 Unable to determine electronic state:  partially filled degenerate orbitals.
 Alpha  occ. eigenvalues --  -19.81363 -19.81332  -1.30937  -0.97592  -0.59514
 Alpha  occ. eigenvalues --   -0.57613  -0.54047  -0.40076
 Alpha virt. eigenvalues --   -0.18137   0.05260   0.10623   0.14700   0.15377
 Alpha virt. eigenvalues --    0.17189   0.20779   0.21446   0.21798   0.34758
 Alpha virt. eigenvalues --    0.98319   0.99192   0.99208   1.04594   1.06373

  Beta  occ. eigenvalues --  -19.81363 -19.81332  -1.30937  -0.97592  -0.59514
  Beta  occ. eigenvalues --   -0.57613  -0.54047  -0.40076
  Beta virt. eigenvalues --   -0.18137   0.05260   0.10623   0.14700   0.15377
  Beta virt. eigenvalues --    0.17189   0.20779   0.21446   0.21798   0.34758
  Beta virt. eigenvalues --    0.98319   0.99192   0.99208   1.04594   1.06373

 Mulliken charges and spin densities:
               1          2
     1  O    0.000000   0.000000
     2  O    0.000000   0.000000
 Sum of Mulliken charges =   0.00000   0.00000

 Dipole moment (field-independent basis, Debye):
    X=              0.0000    Y=              0.0000    Z=              0.0000  Tot=              0.0000
 Quadrupole moment (field-independent basis, Debye-Ang):
   XX=             -9.5699   YY=            -11.3463   ZZ=            -10.5374
   XY=              0.0000   XZ=              0.0000   YZ=              0.0000

 Summary of Natural Population Analysis:

                                       Natural Population
                Natural  -----------------------------------------------
    Atom  No    Charge         Core      Valence    Rydberg      Total
 -----------------------------------------------------------------------
      O    1   -0.00000      0.99998     2.99134    0.00868     4.00000
      O    2    0.00000      0.99998     2.99134    0.00868     4.00000
 =======================================================================
   * Total *   -0.00000      1.99996     5.98269    0.01735     8.00000

 Normal termination of Gaussian 16 at Mon Apr 21 19:53:01 2025.
