 Gaussian 16, Revision A.03,
 Gaussian 16:  ES64L-G16RevA.03 25-Dec-2016

 --------------------------------------------
 #p opt UM062X/6-311+G** nosymm int=superfine
 --------------------------------------------

 -------------------
 Title Card Required
 -------------------
 Symbolic Z-matrix:
 Charge =  0 Multiplicity = 1

 SCF Done:  E(UM062X) =  -94.2706994616     A.U. after   15 cycles
 SCF Done:  E(UM062X) =  -94.2757141798     A.U. after   15 cycles
 SCF Done:  E(UM062X) =  -94.2797031103     A.U. after   15 cycles
 SCF Done:  E(UM062X) =  -94.2798866898     A.U. after   15 cycles
 SCF Done:  E(UM062X) =  -94.2799133882     A.U. after   17 cycles
 SCF Done:  E(UM062X) =  -94.2796984863     A.U. after   16 cycles
 SCF Done:  E(UM062X) =  -94.2799575989     A.U. after   16 cycles
 SCF Done:  E(UM062X) =  -94.2799602371     A.U. after   12 cycles
 SCF Done:  E(UM062X) =  -94.2799710104     A.U. after   16 cycles
 SCF Done:  E(UM062X) =  -94.2799745515     A.U. after   13 cycles
 SCF Done:  E(UM062X) =  -94.2799746733     A.U. after   11 cycles
 SCF Done:  E(UM062X) =  -94.2799746827     A.U. after   14 cycles
 Optimization completed.
    -- Stationary point found.

                          Input orientation:
 ---------------------------------------------------------------------
 Center     Atomic      Atomic             Coordinates (Angstroms)
 Number     Number       Type             X           Y           Z
 ---------------------------------------------------------------------
      1          6           0       -1.356637    0.000000    0.000000
      2          7           0        1.356637    0.000000    0.000000
      3          1           0       -2.166198   -0.747393    0.002086
      4          1           0        1.198716   -1.022727    0.002091
      5          1           0       -1.830974    0.992405   -0.002441
 ---------------------------------------------------------------------

 Alpha  occ. eigenvalues --  -14.79057 -10.65213  -0.85535  -0.78703  -0.51849
 Alpha  occ. eigenvalues --   -0.42290  -0.34862  -0.29614
 Alpha virt. eigenvalues --   -0.11012  -0.07516   0.01331   0.05289   0.06676
 Alpha virt. eigenvalues --    0.07589   0.12771   0.14595   0.17056   0.17273
 Alpha virt. eigenvalues --    0.19267   0.20374   0.26663   0.42438   0.45531

  Beta  occ. eigenvalues --  -14.79057 -10.65213  -0.85535  -0.78703  -0.51849
  Beta  occ. eigenvalues --   -0.42290  -0.34862  -0.29614
  Beta virt. eigenvalues --   -0.11012  -0.07516   0.01331   0.05289   0.06676
  Beta virt. eigenvalues --    0.07589   0.12771   0.14595   0.17056   0.17273
  Beta virt. eigenvalues --    0.19267   0.20374   0.26663   0.42438   0.45531

 Mulliken charges and spin densities:
               1          2
     1  C   -0.285623   0.000000
     2  N   -0.239508  -0.000000
     3  H    0.165608   0.000000
     4  H    0.192005   0.000000
     5  H    0.167519   0.000000
 Sum of Mulliken charges =  -0.00000   0.00000

 Dipole moment (field-independent basis, Debye):
    X=             -3.5857    Y=             -1.2136    Z=              0.0027  Tot=              3.7855
 Quadrupole moment (field-independent basis, Debye-Ang):
   XX=             -9.4472   YY=            -12.6231   ZZ=            -15.0906
   XY=             -2.5543   XZ=              0.0054   YZ=             -0.0050

 Normal termination of Gaussian 16 at Mon Apr 21 18:21:57 2025.
