 Gaussian 16, Revision A.03,
 Gaussian 16:  ES64L-G16RevA.03 25-Dec-2016

 --------------------------------------------
 #p opt UM062X/6-311+G** nosymm int=superfine
 --------------------------------------------

 -------------------
 Title Card Required
 -------------------
 Symbolic Z-matrix:
 Charge =  0 Multiplicity = 1

 SCF Done:  E(UM062X) =  -78.2875515848     A.U. after    8 cycles
 SCF Done:  E(UM062X) =  -78.3320485616     A.U. after    8 cycles
 SCF Done:  E(UM062X) =  -78.3756005513     A.U. after   10 cycles
 SCF Done:  E(UM062X) =  -78.3851999869     A.U. after    8 cycles
 SCF Done:  E(UM062X) =  -78.3862861810     A.U. after    9 cycles
 SCF Done:  E(UM062X) =  -78.3863044996     A.U. after    8 cycles
 Optimization completed.
    -- Stationary point found.

                          Input orientation:
 ---------------------------------------------------------------------
 Center     Atomic      Atomic             Coordinates (Angstroms)
 Number     Number       Type             X           Y           Z
 ---------------------------------------------------------------------
      1          6           0       -0.987679    0.000000    0.000000
      2          6           0        0.987679    0.000000    0.000000
      3          1           0       -1.457415   -0.970960    0.000000
      4          1           0       -1.457391    0.970955    0.000000
      5          1           0        1.457415    0.970960    0.000000
      6          1           0        1.457391   -0.970955    0.000000
 ---------------------------------------------------------------------

 Alpha  occ. eigenvalues --  -10.60845 -10.60830  -0.77693  -0.71247  -0.52960
 Alpha  occ. eigenvalues --   -0.49530  -0.38434  -0.26369
 Alpha virt. eigenvalues --   -0.06197   0.02111   0.03363   0.05392   0.07364
 Alpha virt. eigenvalues --    0.09051   0.09858   0.10264   0.11430   0.15398
 Alpha virt. eigenvalues --    0.16470   0.20852   0.21228   0.28241   0.39820

  Beta  occ. eigenvalues --  -10.60845 -10.60830  -0.77693  -0.71247  -0.52960
  Beta  occ. eigenvalues --   -0.49530  -0.38434  -0.26369
  Beta virt. eigenvalues --   -0.06197   0.02111   0.03363   0.05392   0.07364
  Beta virt. eigenvalues --    0.09051   0.09858   0.10264   0.11430   0.15398
  Beta virt. eigenvalues --    0.16470   0.20852   0.21228   0.28241   0.39820

 Mulliken charges and spin densities:
               1          2
     1  C   -0.358096  -0.000000
     2  C   -0.358096   0.000000
     3  H    0.179048   0.000000
     4  H    0.179048   0.000000
     5  H    0.179048  -0.000000
     6  H    0.179048  -0.000000
 Sum of Mulliken charges =  -0.00000   0.00000

 Dipole moment (field-independent basis, Debye):
    X=              0.0000    Y=              0.0000    Z=              0.0000  Tot=              0.0000
 Quadrupole moment (field-independent basis, Debye-Ang):
   XX=            -11.3094   YY=            -12.1031   ZZ=            -18.0834
   XY=              0.0001   XZ=             -0.0000   YZ=              0.0000

 Normal termination of Gaussian 16 at Tue Nov 19 11:02:07 2024.
