 Gaussian 16, Revision A.03,
 Gaussian 16:  ES64L-G16RevA.03 25-Dec-2016

 --------------------------------------------
 #p opt UM062X/6-311+G** nosymm int=superfine
 --------------------------------------------

 -------------------
 Title Card Required
 -------------------
 Symbolic Z-matrix:
 Charge =  0 Multiplicity = 3

 SCF Done:  E(UM062X) =  -50.4898616824     A.U. after   13 cycles
 SCF Done:  E(UM062X) =  -50.4907660253     A.U. after   10 cycles
 SCF Done:  E(UM062X) =  -50.4907727361     A.U. after    8 cycles
 Optimization completed.
    -- Stationary point found.

                          Input orientation:
 ---------------------------------------------------------------------
 Center     Atomic      Atomic             Coordinates (Angstroms)
 Number     Number       Type             X           Y           Z
 ---------------------------------------------------------------------
      1          5           0       -1.778410    0.000000    0.000000
      2          5           0        1.778410    0.000000    0.000000
      3          1           0       -2.983630   -0.000082   -0.000000
      4          1           0        2.983630    0.000082    0.000000
 ---------------------------------------------------------------------

 Alpha  occ. eigenvalues --   -7.14262  -7.14261  -0.56828  -0.56533  -0.34030
 Alpha  occ. eigenvalues --   -0.29649  -0.18159
 Alpha virt. eigenvalues --   -0.09444  -0.06525  -0.05095   0.02658   0.02818
 Alpha virt. eigenvalues --    0.05883   0.07149   0.07153   0.08138   0.08206
 Alpha virt. eigenvalues --    0.11750   0.17651   0.22405   0.34047   0.39199

  Beta  occ. eigenvalues --   -7.13345  -7.13344  -0.53503  -0.53299  -0.24811
  Beta virt. eigenvalues --   -0.09956  -0.04670  -0.04167  -0.02761  -0.02272
  Beta virt. eigenvalues --    0.01789   0.02498   0.07007   0.07295   0.07575
  Beta virt. eigenvalues --    0.08170   0.09102   0.09594   0.18513   0.23728

 Mulliken charges and spin densities:
               1          2
     1  B   -0.065777   0.922434
     2  B   -0.065783   0.922485
     3  H    0.065779   0.077539
     4  H    0.065781   0.077542
 Sum of Mulliken charges =  -0.00000   2.00000

 Dipole moment (field-independent basis, Debye):
    X=             -0.0001    Y=             -0.0000    Z=             -0.0000  Tot=              0.0001
 Quadrupole moment (field-independent basis, Debye-Ang):
   XX=             -8.6826   YY=            -13.6425   ZZ=            -17.6778
   XY=              0.0000   XZ=              0.0000   YZ=              0.0002

 1\1\GINC-NODE06\FOpt\UM062X\6-311+G(d,p)\B2H2(3)\SZHAO\21-Apr-2025\0\\
 #p opt UM062X/6-311+G** nosymm int=superfine\\Title Card Required\\0,3
 \B,-1.77841047,0.,0.\B,1.77841047,0.,0.\H,-2.9836301276,-0.0000822136,
 -0.0000000035\H,2.9836301146,0.0000822149,0.0000000035\\Version=ES64L-
 G16RevA.03\HF=-50.4907727\S2=2.017594\S2-1=0.\S2A=2.000015\RMSD=9.660e
 -09\RMSF=4.557e-07\Dipole=-0.0000325,0.,0.\Quadrupole=3.4584356,-0.229
 152,-3.2292835,0.0000085,0.,0.0001294\PG=C*V [C*(H1B1B1H1)]\\@

 Normal termination of Gaussian 16 at Mon Apr 21 17:29:13 2025.
