 Gaussian 16, Revision A.03,
 Gaussian 16:  ES64L-G16RevA.03 25-Dec-2016

 --------------------------------------------
 #p opt UM062X/6-311+G** nosymm int=superfine
 --------------------------------------------

 -------------------
 Title Card Required
 -------------------
 Symbolic Z-matrix:
 Charge =  0 Multiplicity = 3

 SCF Done:  E(UM062X) =  -50.4639007299     A.U. after   11 cycles
 SCF Done:  E(UM062X) =  -50.4648574793     A.U. after   12 cycles
 SCF Done:  E(UM062X) =  -50.4648657158     A.U. after    9 cycles
 Optimization completed.
    -- Stationary point found.

                          Input orientation:
 ---------------------------------------------------------------------
 Center     Atomic      Atomic             Coordinates (Angstroms)
 Number     Number       Type             X           Y           Z
 ---------------------------------------------------------------------
      1          5           0       -2.253410    0.000000    0.000000
      2          5           0        2.253410    0.000000    0.000000
      3          1           0       -3.459725   -0.000082    0.000000
      4          1           0        3.459725    0.000082   -0.000000
 ---------------------------------------------------------------------

 Alpha  occ. eigenvalues --   -7.14515  -7.14515  -0.56958  -0.56870  -0.33028
 Alpha  occ. eigenvalues --   -0.31850  -0.17359
 Alpha virt. eigenvalues --   -0.10917  -0.06347  -0.05820   0.02755   0.02941
 Alpha virt. eigenvalues --    0.05412   0.06691   0.07050   0.07418   0.08023
 Alpha virt. eigenvalues --    0.11099   0.15918   0.21419   0.33411   0.38249

  Beta  occ. eigenvalues --   -7.13625  -7.13625  -0.53669  -0.53582  -0.22726
  Beta virt. eigenvalues --   -0.13186  -0.04406  -0.03879  -0.03583  -0.03001
  Beta virt. eigenvalues --    0.01976   0.02376   0.07035   0.07382   0.07991
  Beta virt. eigenvalues --    0.08228   0.08778   0.09654   0.15438   0.22767

 Mulliken charges and spin densities:
               1          2
     1  B   -0.055394   0.932431
     2  B   -0.055395   0.932437
     3  H    0.055394   0.067566
     4  H    0.055394   0.067566
 Sum of Mulliken charges =  -0.00000   2.00000

 Dipole moment (field-independent basis, Debye):
    X=             -0.0000    Y=             -0.0000    Z=              0.0000  Tot=              0.0000
 Quadrupole moment (field-independent basis, Debye-Ang):
   XX=             -6.3403   YY=            -13.6754   ZZ=            -17.6332
   XY=              0.0001   XZ=             -0.0000   YZ=             -0.0140

 1\1\GINC-NODE06\FOpt\UM062X\6-311+G(d,p)\B2H2(3)\SZHAO\21-Apr-2025\0\\
 #p opt UM062X/6-311+G** nosymm int=superfine\\Title Card Required\\0,3
 \B,-2.25341047,0.,0.\B,2.25341047,0.,0.\H,-3.459724924,-0.0000823192,0
 .000000281\H,3.4597249257,0.0000823191,-0.0000002798\\Version=ES64L-G1
 6RevA.03\HF=-50.4648657\S2=2.026187\S2-1=0.\S2A=2.000021\RMSD=6.433e-0
 9\RMSF=4.794e-07\Dipole=-0.0000038,0.,0.\Quadrupole=4.616502,-0.837004
 2,-3.7794978,0.0000378,-0.0000001,-0.0104437\PG=C*V [C*(H1B1B1H1)]\\@

 Normal termination of Gaussian 16 at Mon Apr 21 17:30:17 2025.
