 Gaussian 16, Revision A.03,
 Gaussian 16:  ES64L-G16RevA.03 25-Dec-2016

 --------------------------------------------
 #p opt UM062X/6-311+G** nosymm int=superfine
 --------------------------------------------

 -------------------
 Title Card Required
 -------------------
 Symbolic Z-matrix:
 Charge =  0 Multiplicity = 1

 SCF Done:  E(UM062X) =  -437.406409701     A.U. after   11 cycles
 SCF Done:  E(UM062X) =  -437.407017017     A.U. after    9 cycles
 SCF Done:  E(UM062X) =  -437.407093322     A.U. after   10 cycles
 SCF Done:  E(UM062X) =  -437.404093758     A.U. after   12 cycles
 SCF Done:  E(UM062X) =  -437.407138243     A.U. after    9 cycles
 SCF Done:  E(UM062X) =  -437.407138550     A.U. after    8 cycles
 Optimization completed.
    -- Stationary point found.

                          Input orientation:
 ---------------------------------------------------------------------
 Center     Atomic      Atomic             Coordinates (Angstroms)
 Number     Number       Type             X           Y           Z
 ---------------------------------------------------------------------
      1          6           0       -0.927140    0.000000    0.000000
      2         16           0        0.927140    0.000000    0.000000
      3          1           0       -1.453333   -0.947057    0.001628
      4          1           0       -1.453830    0.946777   -0.001610
 ---------------------------------------------------------------------

 Alpha  occ. eigenvalues --  -89.91458 -10.64669  -8.27504  -6.19538  -6.19530
 Alpha  occ. eigenvalues --   -6.18899  -0.84898  -0.70449  -0.54677  -0.43627
 Alpha  occ. eigenvalues --   -0.34554  -0.29936
 Alpha virt. eigenvalues --   -0.09386   0.01089   0.04251   0.05018   0.05942
 Alpha virt. eigenvalues --    0.08194   0.08662   0.09962   0.10297   0.15107
 Alpha virt. eigenvalues --    0.17208   0.20833   0.35374   0.36428   0.36658

  Beta  occ. eigenvalues --  -89.91458 -10.64669  -8.27504  -6.19538  -6.19530
  Beta  occ. eigenvalues --   -6.18899  -0.84898  -0.70449  -0.54677  -0.43627
  Beta  occ. eigenvalues --   -0.34554  -0.29936
  Beta virt. eigenvalues --   -0.09386   0.01089   0.04251   0.05018   0.05942
  Beta virt. eigenvalues --    0.08194   0.08662   0.09962   0.10297   0.15107
  Beta virt. eigenvalues --    0.17208   0.20833   0.35374   0.36428   0.36658

 Mulliken charges and spin densities:
               1          2
     1  C   -0.362665  -0.000000
     2  S   -0.043705   0.000000
     3  H    0.203187   0.000000
     4  H    0.203184   0.000000
 Sum of Mulliken charges =  -0.00000  -0.00000

 Dipole moment (field-independent basis, Debye):
    X=             -2.2323    Y=             -0.0002    Z=              0.0000  Tot=              2.2323
 Quadrupole moment (field-independent basis, Debye-Ang):
   XX=            -17.6393   YY=            -20.7970   ZZ=            -20.7657
   XY=             -0.0006   XZ=             -0.0000   YZ=              0.0001

 Normal termination of Gaussian 16 at Mon Apr 21 19:36:09 2025.
