 Gaussian 16, Revision A.03,
 Gaussian 16:  ES64L-G16RevA.03 25-Dec-2016

 --------------------------------------------
 #p opt UM062X/6-311+G** nosymm int=superfine
 --------------------------------------------

 -------------------
 Title Card Required
 -------------------
 Symbolic Z-matrix:
 Charge =  0 Multiplicity = 1

 SCF Done:  E(UM062X) =  -579.985753751     A.U. after    8 cycles

 Alpha  occ. eigenvalues --  -67.02890 -67.02889  -5.57701  -5.57673  -3.88855
 Alpha  occ. eigenvalues --   -3.88855  -3.88834  -3.88834  -3.88768  -3.88604
 Alpha  occ. eigenvalues --   -0.62199  -0.55178  -0.43641  -0.25059  -0.25059
 Alpha virt. eigenvalues --   -0.06392  -0.04247  -0.04247   0.01555   0.02379
 Alpha virt. eigenvalues --    0.03829   0.04965   0.04965   0.07241   0.07241
 Alpha virt. eigenvalues --    0.12198   0.15429   0.23738   0.28264   0.29363

  Beta  occ. eigenvalues --  -67.02890 -67.02889  -5.57701  -5.57673  -3.88855
  Beta  occ. eigenvalues --   -3.88855  -3.88834  -3.88834  -3.88768  -3.88604
  Beta  occ. eigenvalues --   -0.62199  -0.55178  -0.43641  -0.25059  -0.25059
  Beta virt. eigenvalues --   -0.06392  -0.04247  -0.04247   0.01555   0.02379
  Beta virt. eigenvalues --    0.03829   0.04965   0.04965   0.07241   0.07241
  Beta virt. eigenvalues --    0.12198   0.15429   0.23738   0.28264   0.29363

 Mulliken charges and spin densities:
               1          2
     1  Si  -0.028597   0.000000
     2  Si  -0.028597  -0.000000
     3  H    0.028597   0.000000
     4  H    0.028597   0.000000
 Sum of Mulliken charges =  -0.00000  -0.00000

 Dipole moment (field-independent basis, Debye):
    X=             -0.0000    Y=              0.0000    Z=              0.0000  Tot=              0.0000
 Quadrupole moment (field-independent basis, Debye-Ang):
   XX=            -20.0204   YY=            -31.0448   ZZ=            -31.0448
   XY=              0.0001   XZ=             -0.0000   YZ=             -0.0000

 Optimization completed.
    -- Stationary point found.

                          Input orientation:
 ---------------------------------------------------------------------
 Center     Atomic      Atomic             Coordinates (Angstroms)
 Number     Number       Type             X           Y           Z
 ---------------------------------------------------------------------
      1         14           0       -1.053705    0.000000    0.000000
      2         14           0        1.053705    0.000000    0.000000
      3          1           0       -2.512080   -0.000027    0.000000
      4          1           0        2.512080    0.000038    0.000000
 ---------------------------------------------------------------------

 Normal termination of Gaussian 16 at Mon Apr 21 21:23:10 2025.
