 Gaussian 16, Revision A.03,
 Gaussian 16:  ES64L-G16RevA.03 25-Dec-2016

 --------------------------------------------
 #p opt UM062X/6-311+G** nosymm int=superfine
 --------------------------------------------

 -------------------
 Title Card Required
 -------------------
 Symbolic Z-matrix:
 Charge =  0 Multiplicity = 1

 SCF Done:  E(UM062X) =  -111.617828111     A.U. after   16 cycles
 SCF Done:  E(UM062X) =  -111.623209763     A.U. after   15 cycles
 SCF Done:  E(UM062X) =  -111.626990665     A.U. after   14 cycles
 SCF Done:  E(UM062X) =  -111.629323820     A.U. after   15 cycles
 SCF Done:  E(UM062X) =  -111.631346847     A.U. after   16 cycles
 SCF Done:  E(UM062X) =  -111.632022762     A.U. after   16 cycles
 SCF Done:  E(UM062X) =  -111.632393767     A.U. after   15 cycles
 SCF Done:  E(UM062X) =  -111.632808243     A.U. after   17 cycles
 SCF Done:  E(UM062X) =  -111.632995581     A.U. after   15 cycles
 SCF Done:  E(UM062X) =  -111.633070971     A.U. after   15 cycles
 SCF Done:  E(UM062X) =  -111.633093053     A.U. after   12 cycles
 SCF Done:  E(UM062X) =  -111.633153462     A.U. after   14 cycles
 SCF Done:  E(UM062X) =  -111.633174703     A.U. after   14 cycles
 SCF Done:  E(UM062X) =  -111.633184985     A.U. after   12 cycles
 SCF Done:  E(UM062X) =  -111.633185084     A.U. after   11 cycles
 Optimization completed.
    -- Stationary point found.

                          Input orientation:
 ---------------------------------------------------------------------
 Center     Atomic      Atomic             Coordinates (Angstroms)
 Number     Number       Type             X           Y           Z
 ---------------------------------------------------------------------
      1          7           0       -1.836540    0.000000    0.000000
      2          7           0        1.836540    0.000000    0.000000
      3          1           0       -1.720994   -0.812508   -0.618646
      4          1           0        1.721018    0.404467   -0.937706
      5          1           0       -1.721815   -0.403229    0.938352
      6          1           0        1.722190    0.811826    0.619761
 ---------------------------------------------------------------------

 Alpha  occ. eigenvalues --  -14.80543 -14.80542  -0.95216  -0.94897  -0.55331
 Alpha  occ. eigenvalues --   -0.55150  -0.40818  -0.40549  -0.28588
 Alpha virt. eigenvalues --   -0.18402   0.04273   0.06090   0.08735   0.11516
 Alpha virt. eigenvalues --    0.12418   0.13515   0.15595   0.16287   0.18108
 Alpha virt. eigenvalues --    0.18943   0.24324   0.28135   0.51282   0.51508

  Beta  occ. eigenvalues --  -14.80543 -14.80542  -0.95216  -0.94897  -0.55331
  Beta  occ. eigenvalues --   -0.55150  -0.40818  -0.40549  -0.28588
  Beta virt. eigenvalues --   -0.18402   0.04273   0.06090   0.08735   0.11516
  Beta virt. eigenvalues --    0.12418   0.13515   0.15595   0.16287   0.18108
  Beta virt. eigenvalues --    0.18943   0.24324   0.28135   0.51282   0.51508

 Mulliken charges and spin densities:
               1          2
     1  N   -0.484325  -0.000000
     2  N   -0.484393   0.000000
     3  H    0.242189   0.000000
     4  H    0.242191  -0.000000
     5  H    0.242169   0.000000
     6  H    0.242168  -0.000000
 Sum of Mulliken charges =  -0.00000   0.00000

 Dipole moment (field-independent basis, Debye):
    X=              0.0004    Y=              0.0008    Z=              0.0027  Tot=              0.0028
 Quadrupole moment (field-independent basis, Debye-Ang):
   XX=            -16.7366   YY=            -14.3618   ZZ=            -11.5269
   XY=              7.6012   XZ=             -1.9925   YZ=              0.7982

 Normal termination of Gaussian 16 at Thu May 15 15:04:32 2025.
