 Gaussian 16, Revision A.03,
 Gaussian 16:  ES64L-G16RevA.03 25-Dec-2016

 ---------------------------------------
 #p UM062X/6-311+G** force int=superfine
 ---------------------------------------

 -------------------
 Title Card Required
 -------------------
 Symbolic Z-matrix:
 Charge =  0 Multiplicity = 1

                         Standard orientation:
 ---------------------------------------------------------------------
 Center     Atomic      Atomic             Coordinates (Angstroms)
 Number     Number       Type             X           Y           Z
 ---------------------------------------------------------------------
      1          6           0        0.587961    0.000007   -0.000000
      2          6           0       -0.587961   -0.000007   -0.000001
      3          1           0       -1.068160   -0.993245   -0.024465
      4          1           0        1.068175   -0.517810    0.847934
      5          1           0       -1.068176    0.517811   -0.847932
      6          1           0       -1.068184    0.475437    0.872393
      7          1           0        1.068160    0.993245    0.024467
      8          1           0        1.068185   -0.475439   -0.872392
 ---------------------------------------------------------------------

 SCF Done:  E(UM062X) =  -79.6786941407     A.U. after    9 cycles

 The electronic state is 1-A.
 Alpha  occ. eigenvalues --  -10.50055 -10.49742  -0.93759  -0.67951  -0.54307
 Alpha  occ. eigenvalues --   -0.54306  -0.50708  -0.35540  -0.35539
 Alpha virt. eigenvalues --    0.02069   0.04194   0.04836   0.04836   0.08645
 Alpha virt. eigenvalues --    0.08963   0.08963   0.14246   0.19134   0.19134
 Alpha virt. eigenvalues --    0.19814   0.19815   0.24024   0.27905   0.38537

  Beta  occ. eigenvalues --  -10.50055 -10.49742  -0.93759  -0.67951  -0.54307
  Beta  occ. eigenvalues --   -0.54306  -0.50708  -0.35540  -0.35539
  Beta virt. eigenvalues --    0.02069   0.04194   0.04836   0.04836   0.08645
  Beta virt. eigenvalues --    0.08963   0.08963   0.14246   0.19134   0.19134
  Beta virt. eigenvalues --    0.19814   0.19815   0.24024   0.27905   0.38537

 Mulliken charges and spin densities:
               1          2
     1  C   -0.430346   0.000000
     2  C   -0.430346  -0.000000
     3  H    0.143448   0.000000
     4  H    0.143448  -0.000000
     5  H    0.143448   0.000000
     6  H    0.143450   0.000000
     7  H    0.143448  -0.000000
     8  H    0.143450  -0.000000
 Sum of Mulliken charges =  -0.00000  -0.00000

 Dipole moment (field-independent basis, Debye):
    X=             -0.0000    Y=              0.0000    Z=              0.0000  Tot=              0.0000
 Quadrupole moment (field-independent basis, Debye-Ang):
   XX=            -15.6451   YY=            -14.9477   ZZ=            -14.9479
   XY=             -0.0000   XZ=             -0.0000   YZ=              0.0000

 Normal termination of Gaussian 16 at Tue Nov 19 12:38:17 2024.
