 Gaussian 16, Revision A.03,
 Gaussian 16:  ES64L-G16RevA.03 25-Dec-2016

 --------------------------------------------
 #p opt UM062X/6-311+G** nosymm int=superfine
 --------------------------------------------

 -------------------
 Title Card Required
 -------------------
 Symbolic Z-matrix:
 Charge =  0 Multiplicity = 1

 SCF Done:  E(UM062X) =  -78.1828370942     A.U. after    8 cycles
 SCF Done:  E(UM062X) =  -78.1839114519     A.U. after    9 cycles
 SCF Done:  E(UM062X) =  -78.1845133231     A.U. after    9 cycles
 SCF Done:  E(UM062X) =  -78.1845140928     A.U. after    8 cycles
 Optimization completed.
    -- Stationary point found.

                          Input orientation:
 ---------------------------------------------------------------------
 Center     Atomic      Atomic             Coordinates (Angstroms)
 Number     Number       Type             X           Y           Z
 ---------------------------------------------------------------------
      1          6           0       -1.435595    0.000000    0.000000
      2          6           0        1.435595    0.000000    0.000000
      3          1           0       -1.819779   -1.006669    0.000000
      4          1           0       -1.819772    1.006672    0.000000
      5          1           0        1.819779    1.006669   -0.000000
      6          1           0        1.819772   -1.006672   -0.000000
 ---------------------------------------------------------------------

 Alpha  occ. eigenvalues --  -10.63201 -10.63196  -0.75757  -0.74309  -0.53922
 Alpha  occ. eigenvalues --   -0.53379  -0.29621  -0.23015
 Alpha virt. eigenvalues --   -0.11707  -0.09197   0.03392   0.05148   0.05250
 Alpha virt. eigenvalues --    0.06894   0.09350   0.10426   0.11067   0.13754
 Alpha virt. eigenvalues --    0.16211   0.18371   0.21485   0.26899   0.40441

  Beta  occ. eigenvalues --  -10.63201 -10.63196  -0.75757  -0.74309  -0.53922
  Beta  occ. eigenvalues --   -0.53379  -0.29621  -0.23015
  Beta virt. eigenvalues --   -0.11707  -0.09197   0.03392   0.05148   0.05250
  Beta virt. eigenvalues --    0.06894   0.09350   0.10426   0.11067   0.13754
  Beta virt. eigenvalues --    0.16211   0.18371   0.21485   0.26899   0.40441

 Mulliken charges and spin densities:
               1          2
     1  C   -0.388082  -0.000001
     2  C   -0.388082   0.000001
     3  H    0.194041   0.000000
     4  H    0.194041   0.000000
     5  H    0.194041  -0.000000
     6  H    0.194041  -0.000000
 Sum of Mulliken charges =  -0.00000  -0.00000

 Dipole moment (field-independent basis, Debye):
    X=              0.0000    Y=              0.0000    Z=             -0.0000  Tot=              0.0000
 Quadrupole moment (field-independent basis, Debye-Ang):
   XX=             -9.5625   YY=            -11.7982   ZZ=            -19.1378
   XY=              0.0000   XZ=             -0.0000   YZ=              0.0000

 Normal termination of Gaussian 16 at Tue Dec  3 11:08:42 2024.
