 Gaussian 16, Revision A.03,
 Gaussian 16:  ES64L-G16RevA.03 25-Dec-2016

 --------------------------------------------
 #p opt UM062X/6-311+G** nosymm int=superfine
 --------------------------------------------

 -------------------
 Title Card Required
 -------------------
 Symbolic Z-matrix:
 Charge =  1 Multiplicity = 2

 SCF Done:  E(UM062X) =  -379.566317577     A.U. after   84 cycles
 SCF Done:  E(UM062X) =  -379.566330218     A.U. after   49 cycles
 Optimization completed.
    -- Stationary point found.

                          Input orientation:
 ---------------------------------------------------------------------
 Center     Atomic      Atomic             Coordinates (Angstroms)
 Number     Number       Type             X           Y           Z
 ---------------------------------------------------------------------
      1          6           0       -0.869427    0.000000    0.000000
      2         15           0        0.869427    0.000000    0.000000
      3          1           0       -1.958708   -0.000000    0.000000
 ---------------------------------------------------------------------

 Alpha  occ. eigenvalues --  -78.39108 -10.92652  -7.20695  -5.32702  -5.31837
 Alpha  occ. eigenvalues --   -5.31742  -1.09376  -0.91244  -0.71751  -0.63297
 Alpha  occ. eigenvalues --   -0.61162
 Alpha virt. eigenvalues --   -0.33965  -0.32062  -0.18197  -0.14487  -0.10337
 Alpha virt. eigenvalues --   -0.10330  -0.09936  -0.08598  -0.05186  -0.04910
 Alpha virt. eigenvalues --   -0.00295   0.04885   0.13015   0.13051   0.14587

  Beta  occ. eigenvalues --  -78.38868 -10.92315  -7.20660  -5.31909  -5.31839
  Beta  occ. eigenvalues --   -5.31784  -1.05182  -0.89701  -0.70678  -0.59123
  Beta virt. eigenvalues --   -0.42219  -0.30593  -0.27514  -0.17109  -0.15206
  Beta virt. eigenvalues --   -0.10421  -0.10063  -0.09995  -0.08477  -0.04950
  Beta virt. eigenvalues --   -0.04857  -0.00964   0.05343   0.10776   0.12828

 Mulliken charges and spin densities:
               1          2
     1  C    0.035518   0.676708
     2  P    0.657562   0.348249
     3  H    0.306920  -0.024957
 Sum of Mulliken charges =   1.00000   1.00000

 Dipole moment (field-independent basis, Debye):
    X=              0.2614    Y=             -0.0000    Z=             -0.0000  Tot=              0.2614
 Quadrupole moment (field-independent basis, Debye-Ang):
   XX=             -7.1982   YY=            -17.4111   ZZ=            -14.8082
   XY=              0.0000   XZ=             -0.0000   YZ=             -0.0000

 Normal termination of Gaussian 16 at Mon Apr 21 19:23:33 2025.
