 Gaussian 16, Revision A.03,
 Gaussian 16:  ES64L-G16RevA.03 25-Dec-2016

 --------------------------------------------
 #p opt UM062X/6-311+G** nosymm int=superfine
 --------------------------------------------

 -------------------
 Title Card Required
 -------------------
 Symbolic Z-matrix:
 Charge =  0 Multiplicity = 1

 SCF Done:  E(UM062X) =  -77.2714088683     A.U. after    9 cycles
 SCF Done:  E(UM062X) =  -77.2869986837     A.U. after    9 cycles
 SCF Done:  E(UM062X) =  -77.2870236205     A.U. after    7 cycles
 Optimization completed.
    -- Stationary point found.

                          Input orientation:
 ---------------------------------------------------------------------
 Center     Atomic      Atomic             Coordinates (Angstroms)
 Number     Number       Type             X           Y           Z
 ---------------------------------------------------------------------
      1          6           0       -0.544649    0.000000    0.000000
      2          6           0        0.544649    0.000000    0.000000
      3          1           0       -1.606966    0.000000    0.000000
      4          1           0        1.606966   -0.000000   -0.000000
 ---------------------------------------------------------------------

 Alpha  occ. eigenvalues --  -10.51692 -10.51045  -0.87650  -0.63175  -0.56801
 Alpha  occ. eigenvalues --   -0.37850  -0.37850
 Alpha virt. eigenvalues --    0.02723   0.03119   0.06187   0.06187   0.07404
 Alpha virt. eigenvalues --    0.07404   0.09351   0.16442   0.17258   0.17258
 Alpha virt. eigenvalues --    0.20952   0.24745   0.43095   0.44292   0.55511

  Beta  occ. eigenvalues --  -10.51692 -10.51045  -0.87650  -0.63175  -0.56801
  Beta  occ. eigenvalues --   -0.37850  -0.37850
  Beta virt. eigenvalues --    0.02723   0.03119   0.06187   0.06187   0.07404
  Beta virt. eigenvalues --    0.07404   0.09351   0.16442   0.17258   0.17258
  Beta virt. eigenvalues --    0.20952   0.24745   0.43095   0.44292   0.55511

 Mulliken charges and spin densities:
               1          2
     1  C   -0.152683  -0.000000
     2  C   -0.152682   0.000000
     3  H    0.152682   0.000000
     4  H    0.152682  -0.000000
 Sum of Mulliken charges =  -0.00000   0.00000

 Dipole moment (field-independent basis, Debye):
    X=             -0.0000    Y=              0.0000    Z=             -0.0000  Tot=              0.0000
 Quadrupole moment (field-independent basis, Debye-Ang):
   XX=             -7.2262   YY=            -13.2472   ZZ=            -13.2472
   XY=             -0.0000   XZ=             -0.0000   YZ=             -0.0000

 Normal termination of Gaussian 16 at Tue Dec  3 20:01:16 2024.
