 Gaussian 16, Revision A.03,
 Gaussian 16:  ES64L-G16RevA.03 25-Dec-2016

 --------------------------------------------
 #p opt UM062X/6-311+G** nosymm int=superfine
 --------------------------------------------

 -------------------
 Title Card Required
 -------------------
 Symbolic Z-matrix:
 Charge =  0 Multiplicity = 3

 SCF Done:  E(UM062X) =  -290.559009517     A.U. after   11 cycles
 SCF Done:  E(UM062X) =  -290.559150134     A.U. after    9 cycles
 SCF Done:  E(UM062X) =  -290.559159146     A.U. after    8 cycles
 Optimization completed.
    -- Stationary point found.

                          Input orientation:
 ---------------------------------------------------------------------
 Center     Atomic      Atomic             Coordinates (Angstroms)
 Number     Number       Type             X           Y           Z
 ---------------------------------------------------------------------
      1         14           0        1.097047   -0.000002    0.000001
      2          1           0        1.854391    1.269319    0.001195
      3          1           0        1.854411   -1.269312   -0.001291
 ---------------------------------------------------------------------

 Alpha  occ. eigenvalues --  -67.01658  -5.56281  -3.87964  -3.87803  -3.87125
 Alpha  occ. eigenvalues --   -0.60430  -0.43142  -0.30906  -0.23568
 Alpha virt. eigenvalues --    0.04129   0.04160   0.04599   0.05659   0.07568
 Alpha virt. eigenvalues --    0.08191   0.29027   0.30492   0.31139   0.36853
 Alpha virt. eigenvalues --    0.41992   0.44614   0.55892   0.55896   0.56723

  Beta  occ. eigenvalues --  -67.00562  -5.55629  -3.86750  -3.86379  -3.86175
  Beta  occ. eigenvalues --   -0.54373  -0.41356
  Beta virt. eigenvalues --   -0.12509  -0.07363   0.01419   0.04244   0.06401
  Beta virt. eigenvalues --    0.07980   0.10056   0.10830   0.26504   0.27443
  Beta virt. eigenvalues --    0.27624   0.37213   0.41073   0.42464   0.61805

 Mulliken charges and spin densities:
               1          2
     1  Si   0.132534   1.916673
     2  H   -0.066267   0.041664
     3  H   -0.066267   0.041664
 Sum of Mulliken charges =  -0.00000   2.00000

 Dipole moment (field-independent basis, Debye):
    X=             -0.1460    Y=             -0.0000    Z=              0.0000  Tot=              0.1460
 Quadrupole moment (field-independent basis, Debye-Ang):
   XX=            -15.1991   YY=            -15.0642   ZZ=            -16.4921
   XY=              0.0000   XZ=             -0.0001   YZ=              0.0014

 Normal termination of Gaussian 16 at Wed Apr 16 08:54:29 2025.
