 Gaussian 16, Revision A.03,
 Gaussian 16:  ES64L-G16RevA.03 25-Dec-2016

 --------------------------------------------
 #p opt UM062X/6-311+G** nosymm int=superfine
 --------------------------------------------

 -------------------
 Title Card Required
 -------------------
 Symbolic Z-matrix:
 Charge =  0 Multiplicity = 1

 SCF Done:  E(UM062X) =  -582.397553537     A.U. after   10 cycles
 SCF Done:  E(UM062X) =  -582.399627669     A.U. after    8 cycles
 SCF Done:  E(UM062X) =  -582.400120872     A.U. after    9 cycles
 Optimization completed.
    -- Stationary point found.

                          Input orientation:
 ---------------------------------------------------------------------
 Center     Atomic      Atomic             Coordinates (Angstroms)
 Number     Number       Type             X           Y           Z
 ---------------------------------------------------------------------
      1         14           0       -2.069819    0.000000    0.000000
      2         14           0        2.069819    0.000000    0.000000
      3          1           0        2.483094   -1.416481   -0.000056
      4          1           0       -2.483071   -0.708137    1.226786
      5          1           0        2.483192    0.708309   -1.226646
      6          1           0        2.483079    0.708190    1.226753
      7          1           0       -2.483098    1.416480   -0.000113
      8          1           0       -2.483198   -0.708363   -1.226612
 ---------------------------------------------------------------------

 Alpha  occ. eigenvalues --  -67.01770 -67.01770  -5.56635  -5.56634  -3.87864
 Alpha  occ. eigenvalues --   -3.87863  -3.87641  -3.87641  -3.87641  -3.87641
 Alpha  occ. eigenvalues --   -0.61099  -0.60624  -0.41957  -0.41956  -0.41825
 Alpha  occ. eigenvalues --   -0.41824  -0.23026
 Alpha virt. eigenvalues --   -0.09316   0.02130   0.02918   0.02918   0.03377
 Alpha virt. eigenvalues --    0.05193   0.05193   0.05710   0.06926   0.07359
 Alpha virt. eigenvalues --    0.07359   0.08844   0.08844   0.12797   0.16262

  Beta  occ. eigenvalues --  -67.01770 -67.01770  -5.56635  -5.56634  -3.87864
  Beta  occ. eigenvalues --   -3.87863  -3.87641  -3.87641  -3.87641  -3.87641
  Beta  occ. eigenvalues --   -0.61099  -0.60624  -0.41957  -0.41956  -0.41825
  Beta  occ. eigenvalues --   -0.41824  -0.23026
  Beta virt. eigenvalues --   -0.09316   0.02130   0.02918   0.02918   0.03377
  Beta virt. eigenvalues --    0.05193   0.05193   0.05710   0.06926   0.07359
  Beta virt. eigenvalues --    0.07359   0.08844   0.08844   0.12797   0.16262

 Mulliken charges and spin densities:
               1          2
     1  Si   0.272511  -0.000000
     2  Si   0.272511   0.000000
     3  H   -0.090836  -0.000000
     4  H   -0.090837   0.000000
     5  H   -0.090838   0.000000
     6  H   -0.090837  -0.000000
     7  H   -0.090836   0.000000
     8  H   -0.090838   0.000000
 Sum of Mulliken charges =  -0.00000   0.00000

 Dipole moment (field-independent basis, Debye):
    X=              0.0000    Y=             -0.0000    Z=              0.0000  Tot=              0.0000
 Quadrupole moment (field-independent basis, Debye-Ang):
   XX=            -28.5805   YY=            -32.0787   ZZ=            -32.0788
   XY=             -0.0002   XZ=              0.0000   YZ=              0.0000

 Normal termination of Gaussian 16 at Mon Apr 21 20:15:24 2025.
