 Gaussian 16, Revision A.03,
 Gaussian 16:  ES64L-G16RevA.03 25-Dec-2016

 --------------------------------------------
 #p opt UM062X/6-311+G** nosymm int=superfine
 --------------------------------------------

 -------------------
 Title Card Required
 -------------------
 Symbolic Z-matrix:
 Charge =  1 Multiplicity = 2

 SCF Done:  E(UM062X) =  -579.742952011     A.U. after   17 cycles
 SCF Done:  E(UM062X) =  -579.742992508     A.U. after   14 cycles
 SCF Done:  E(UM062X) =  -579.742998266     A.U. after   13 cycles
 SCF Done:  E(UM062X) =  -579.743000070     A.U. after   12 cycles
 SCF Done:  E(UM062X) =  -579.743000415     A.U. after   11 cycles
 Optimization completed.
    -- Stationary point found.

                          Input orientation:
 ---------------------------------------------------------------------
 Center     Atomic      Atomic             Coordinates (Angstroms)
 Number     Number       Type             X           Y           Z
 ---------------------------------------------------------------------
      1         14           0       -1.202975    0.000000    0.000000
      2         14           0        1.202975    0.000000    0.000000
      3          1           0       -0.001976   -1.143218   -0.446543
      4          1           0        2.302642   -0.360862   -0.931601
 ---------------------------------------------------------------------

 Alpha  occ. eigenvalues --  -67.30495 -67.27405  -5.84488  -5.81854  -4.15508
 Alpha  occ. eigenvalues --   -4.15142  -4.15134  -4.13259  -4.12905  -4.12449
 Alpha  occ. eigenvalues --   -0.88121  -0.73442  -0.59841  -0.55063  -0.48129
 Alpha virt. eigenvalues --   -0.30364  -0.27517  -0.20535  -0.15503  -0.12131
 Alpha virt. eigenvalues --   -0.09127  -0.08904  -0.08613  -0.08180  -0.06130
 Alpha virt. eigenvalues --   -0.05787  -0.04989  -0.01477   0.07223   0.12078

  Beta  occ. eigenvalues --  -67.30256 -67.27075  -5.84433  -5.81744  -4.15181
  Beta  occ. eigenvalues --   -4.15080  -4.14720  -4.12809  -4.12445  -4.12309
  Beta  occ. eigenvalues --   -0.85841  -0.72120  -0.59013  -0.53662
  Beta virt. eigenvalues --   -0.32742  -0.28502  -0.24866  -0.18992  -0.15520
  Beta virt. eigenvalues --   -0.14322  -0.09349  -0.08792  -0.08352  -0.08192
  Beta virt. eigenvalues --   -0.05881  -0.05227  -0.04548  -0.02068   0.07169

 Mulliken charges and spin densities:
               1          2
     1  Si   0.680576   0.440773
     2  Si   0.415582   0.600711
     3  H   -0.140721  -0.019086
     4  H    0.044563  -0.022397
 Sum of Mulliken charges =   1.00000   1.00000

 Dipole moment (field-independent basis, Debye):
    X=              0.3642    Y=             -0.2580    Z=             -0.4574  Tot=              0.6391
 Quadrupole moment (field-independent basis, Debye-Ang):
   XX=            -11.8806   YY=            -23.2637   ZZ=            -22.9927
   XY=             -0.1280   XZ=             -0.1041   YZ=             -0.3068

 Normal termination of Gaussian 16 at Mon Apr 21 22:50:54 2025.
