 Gaussian 16, Revision A.03,
 Gaussian 16:  ES64L-G16RevA.03 25-Dec-2016

 ----------------------------------------------------------------------
 #p opt UM062X/6-311+G** nosymm int=superfine SCF=(MaxCycle=200,NoVarAc
 c,noincfock) guess=read
 ----------------------------------------------------------------------

 -------------------
 Title Card Required
 -------------------
 Symbolic Z-matrix:
 Charge =  1 Multiplicity = 2

 SCF Done:  E(UM062X) =  -379.327156329     A.U. after   77 cycles
 SCF Done:  E(UM062X) =  -379.327546887     A.U. after   15 cycles
 Optimization completed.
    -- Stationary point found.

                          Input orientation:
 ---------------------------------------------------------------------
 Center     Atomic      Atomic             Coordinates (Angstroms)
 Number     Number       Type             X           Y           Z
 ---------------------------------------------------------------------
      1          6           0       -1.444427    0.000000    0.000000
      2         15           0        1.444427    0.000000    0.000000
      3          1           0       -2.554047    0.000000   -0.000001
 ---------------------------------------------------------------------

 Alpha  occ. eigenvalues --  -78.38872 -10.94555  -7.20262  -5.32131  -5.31863
 Alpha  occ. eigenvalues --   -5.30489  -0.99340  -0.88734  -0.66138  -0.51777
 Alpha  occ. eigenvalues --   -0.49670
 Alpha virt. eigenvalues --   -0.40146  -0.37753  -0.35865  -0.12752  -0.10427
 Alpha virt. eigenvalues --   -0.08716  -0.08350  -0.07331  -0.05216  -0.05070
 Alpha virt. eigenvalues --   -0.00735   0.02688   0.14112   0.14446   0.14667

  Beta  occ. eigenvalues --  -78.38807 -10.94004  -7.20301  -5.31907  -5.31304
  Beta  occ. eigenvalues --   -5.31166  -0.95244  -0.87694  -0.63805  -0.52169
  Beta virt. eigenvalues --   -0.35849  -0.35280  -0.30864  -0.29847  -0.14148
  Beta virt. eigenvalues --   -0.10801  -0.08622  -0.08570  -0.07839  -0.04973
  Beta virt. eigenvalues --   -0.04689  -0.02763   0.04818   0.12170   0.13459

 Mulliken charges and spin densities:
               1          2
     1  C    0.017765   0.857654
     2  P    0.702397   0.167718
     3  H    0.279838  -0.025372
 Sum of Mulliken charges =   1.00000   1.00000

 Dipole moment (field-independent basis, Debye):
    X=              0.3183    Y=             -0.0000    Z=             -0.0000  Tot=              0.3183
 Quadrupole moment (field-independent basis, Debye-Ang):
   XX=              3.4192   YY=            -19.6642   ZZ=            -16.2068
   XY=             -0.0000   XZ=              0.0000   YZ=              0.0001

 Normal termination of Gaussian 16 at Mon Apr 21 23:50:46 2025.
