 Gaussian 16, Revision A.03,
 Gaussian 16:  ES64L-G16RevA.03 25-Dec-2016

 ---------------------------------------------------
 #p UM062X/6-311+G** force int=superfine pop=saveNBO
 ---------------------------------------------------

 -------------------
 Title Card Required
 -------------------
 Symbolic Z-matrix:
 Charge =  0 Multiplicity = 1

                         Standard orientation:
 ---------------------------------------------------------------------
 Center     Atomic      Atomic             Coordinates (Angstroms)
 Number     Number       Type             X           Y           Z
 ---------------------------------------------------------------------
      1          5           0       -0.000000    0.870607   -0.000001
      2          5           0       -0.000000   -0.870607   -0.000001
      3          1           0        1.013133    1.498584    0.002609
      4          1           0       -1.013133   -1.498584    0.002609
      5          1           0       -1.013129    1.498587   -0.002605
      6          1           0        1.013129   -1.498587   -0.002605
 ---------------------------------------------------------------------

 SCF Done:  E(UM062X) =  -51.9900930227     A.U. after    8 cycles

 The electronic state is 1-A.
 Alpha  occ. eigenvalues --   -7.05066  -7.05026  -0.61184  -0.53015  -0.43285
 Alpha  occ. eigenvalues --   -0.37755  -0.35695
 Alpha virt. eigenvalues --   -0.09041   0.02199   0.02442   0.03210   0.04089
 Alpha virt. eigenvalues --    0.05176   0.06500   0.06628   0.10091   0.11457
 Alpha virt. eigenvalues --    0.16027   0.17486   0.20942   0.23756   0.28472

  Beta  occ. eigenvalues --   -7.05066  -7.05026  -0.61184  -0.53015  -0.43285
  Beta  occ. eigenvalues --   -0.37755  -0.35695
  Beta virt. eigenvalues --   -0.09041   0.02199   0.02442   0.03210   0.04089
  Beta virt. eigenvalues --    0.05176   0.06500   0.06628   0.10091   0.11457
  Beta virt. eigenvalues --    0.16027   0.17486   0.20942   0.23756   0.28472

 Mulliken charges and spin densities:
               1          2
     1  B   -0.036181   0.000000
     2  B   -0.036181   0.000000
     3  H    0.018090   0.000000
     4  H    0.018090   0.000000
     5  H    0.018091  -0.000000
     6  H    0.018091  -0.000000
 Sum of Mulliken charges =   0.00000   0.00000

 Dipole moment (field-independent basis, Debye):
    X=             -0.0000    Y=              0.0000    Z=             -0.0000  Tot=              0.0000
 Quadrupole moment (field-independent basis, Debye-Ang):
   XX=            -16.8761   YY=            -17.7131   ZZ=            -12.5091
   XY=             -0.0000   XZ=              0.0000   YZ=             -0.0000

 Summary of Natural Population Analysis:

                                       Natural Population
                Natural  -----------------------------------------------
    Atom  No    Charge         Core      Valence    Rydberg      Total
 -----------------------------------------------------------------------
      B    1    0.10688      0.99978     1.39156    0.00178     2.39312
      B    2    0.10688      0.99978     1.39156    0.00178     2.39312
      H    3   -0.05344      0.00000     0.55275    0.00069     0.55344
      H    4   -0.05344      0.00000     0.55275    0.00069     0.55344
      H    5   -0.05344      0.00000     0.55275    0.00069     0.55344
      H    6   -0.05344      0.00000     0.55275    0.00069     0.55344
 =======================================================================
   * Total *   -0.00000      1.99957     4.99411    0.00632     7.00000

 Normal termination of Gaussian 16 at Tue Apr 15 23:55:37 2025.
