 Gaussian 16, Revision A.03,
 Gaussian 16:  ES64L-G16RevA.03 25-Dec-2016

 --------------------------------------------
 #p opt UM062X/6-311+G** nosymm int=superfine
 --------------------------------------------

 -------------------
 Title Card Required
 -------------------
 Symbolic Z-matrix:
 Charge = -1 Multiplicity = 2

 SCF Done:  E(UM062X) =  -51.8477257588     A.U. after   12 cycles
 SCF Done:  E(UM062X) =  -51.8477402618     A.U. after   13 cycles
 Optimization completed.
    -- Stationary point found.

                          Input orientation:
 ---------------------------------------------------------------------
 Center     Atomic      Atomic             Coordinates (Angstroms)
 Number     Number       Type             X           Y           Z
 ---------------------------------------------------------------------
      1          5           0       -1.997274    0.000000    0.000000
      2          5           0        1.997274    0.000000    0.000000
      3          1           0       -2.667740   -1.012731   -0.000021
      4          1           0        2.667740    1.012731   -0.000496
      5          1           0       -2.667743    1.012730   -0.000017
      6          1           0        2.667743   -1.012730    0.000458
 ---------------------------------------------------------------------

 Alpha  occ. eigenvalues --   -6.87634  -6.87634  -0.37794  -0.37678  -0.21890
 Alpha  occ. eigenvalues --   -0.21818  -0.05557  -0.01811
 Alpha virt. eigenvalues --    0.11856   0.13251   0.15144   0.15807   0.15810
 Alpha virt. eigenvalues --    0.17595   0.20003   0.20958   0.20985   0.23179
 Alpha virt. eigenvalues --    0.32214   0.33554   0.34175   0.37444   0.50496

  Beta  occ. eigenvalues --   -6.87031  -6.87030  -0.36471  -0.36282  -0.21209
  Beta  occ. eigenvalues --   -0.21120   0.01585
  Beta virt. eigenvalues --    0.12934   0.13150   0.14280   0.14508   0.16730
  Beta virt. eigenvalues --    0.17982   0.18187   0.22310   0.22576   0.24001
  Beta virt. eigenvalues --    0.25282   0.32262   0.33699   0.34291   0.38266

 Mulliken charges and spin densities:
               1          2
     1  B   -0.340909   0.491873
     2  B   -0.340909   0.491873
     3  H   -0.079546   0.004063
     4  H   -0.079546   0.004063
     5  H   -0.079546   0.004063
     6  H   -0.079546   0.004063
 Sum of Mulliken charges =  -1.00000   1.00000

 Dipole moment (field-independent basis, Debye):
    X=              0.0000    Y=             -0.0000    Z=             -0.0001  Tot=              0.0001
 Quadrupole moment (field-independent basis, Debye-Ang):
   XX=            -41.8696   YY=            -24.5719   ZZ=            -19.0250
   XY=              0.0000   XZ=             -0.0000   YZ=              0.0013

 Normal termination of Gaussian 16 at Mon Apr 21 17:21:27 2025.
