 Gaussian 16, Revision A.03,
 Gaussian 16:  ES64L-G16RevA.03 25-Dec-2016

 --------------------------------------------
 #p opt UM062X/6-311+G** nosymm int=superfine
 --------------------------------------------

 -------------------
 Title Card Required
 -------------------
 Symbolic Z-matrix:
 Charge =  1 Multiplicity = 2

 SCF Done:  E(UM062X) =  -77.9970533650     A.U. after   11 cycles
 SCF Done:  E(UM062X) =  -78.0346877570     A.U. after   10 cycles
 SCF Done:  E(UM062X) =  -78.0623532341     A.U. after   11 cycles
 SCF Done:  E(UM062X) =  -78.0628699529     A.U. after    8 cycles
 SCF Done:  E(UM062X) =  -78.0630528636     A.U. after   10 cycles
 Optimization completed.
    -- Stationary point found.

                          Input orientation:
 ---------------------------------------------------------------------
 Center     Atomic      Atomic             Coordinates (Angstroms)
 Number     Number       Type             X           Y           Z
 ---------------------------------------------------------------------
      1          6           0       -0.558445    0.000000    0.000000
      2          6           0        0.558445    0.000000    0.000000
      3          1           0       -1.312493   -0.845273    0.000000
      4          1           0       -1.298776    0.860812   -0.000000
      5          1           0        1.312493    0.845273    0.000000
      6          1           0        1.298776   -0.860812   -0.000000
 ---------------------------------------------------------------------

 Alpha  occ. eigenvalues --  -10.82997 -10.82491  -1.21638  -0.97614  -0.85931
 Alpha  occ. eigenvalues --   -0.85196  -0.68008  -0.67784
 Alpha virt. eigenvalues --   -0.19307  -0.15695  -0.15099  -0.13812  -0.10165
 Alpha virt. eigenvalues --   -0.08658  -0.07408  -0.06927  -0.03272  -0.03017
 Alpha virt. eigenvalues --   -0.00323   0.02127   0.11895   0.16151   0.20832

  Beta  occ. eigenvalues --  -10.82985 -10.82466  -1.20323  -0.92836  -0.82974
  Beta  occ. eigenvalues --   -0.79512  -0.67389
  Beta virt. eigenvalues --   -0.47247  -0.18930  -0.15019  -0.14806  -0.13617
  Beta virt. eigenvalues --   -0.10022  -0.08560  -0.05443  -0.05388  -0.02753
  Beta virt. eigenvalues --   -0.02683   0.00045   0.02838   0.12318   0.16175

 Mulliken charges and spin densities:
               1          2
     1  C   -0.160526   0.123893
     2  C   -0.160526   0.123893
     3  H    0.330063   0.184773
     4  H    0.330463   0.191334
     5  H    0.330063   0.184773
     6  H    0.330463   0.191334
 Sum of Mulliken charges =   1.00000   1.00000

 Dipole moment (field-independent basis, Debye):
    X=             -0.0000    Y=             -0.0000    Z=              0.0000  Tot=              0.0000
 Quadrupole moment (field-independent basis, Debye-Ang):
   XX=             -2.1892   YY=             -7.4308   ZZ=            -12.9574
   XY=             -0.0393   XZ=              0.0000   YZ=             -0.0000

 Normal termination of Gaussian 16 at Tue Nov 19 10:51:49 2024.
