 Gaussian 16, Revision A.03,
 Gaussian 16:  ES64L-G16RevA.03 25-Dec-2016

 --------------------------------------------
 #p opt UM062X/6-311+G** nosymm int=superfine
 --------------------------------------------

 -------------------
 Title Card Required
 -------------------
 Symbolic Z-matrix:
 Charge =  0 Multiplicity = 1

 SCF Done:  E(UM062X) =  -79.1939918330     A.U. after   10 cycles
 SCF Done:  E(UM062X) =  -79.2538352091     A.U. after    8 cycles
 SCF Done:  E(UM062X) =  -79.3021221602     A.U. after    9 cycles
 SCF Done:  E(UM062X) =  -79.3037952271     A.U. after    8 cycles
 SCF Done:  E(UM062X) =  -79.3038096861     A.U. after    7 cycles
 Optimization completed.
    -- Stationary point found.

                          Input orientation:
 ---------------------------------------------------------------------
 Center     Atomic      Atomic             Coordinates (Angstroms)
 Number     Number       Type             X           Y           Z
 ---------------------------------------------------------------------
      1          6           0       -0.481035    0.000000    0.000000
      2          6           0        0.481084    0.000000    0.000000
      3          1           0        1.029120   -0.845106    0.489020
      4          1           0       -1.029052   -0.846109   -0.487352
      5          1           0        1.029102    0.846110    0.487347
      6          1           0        1.029109   -0.000911   -0.976423
      7          1           0       -1.029070    0.845104   -0.489025
      8          1           0       -1.029060    0.000909    0.976421
 ---------------------------------------------------------------------

 Alpha  occ. eigenvalues --  -10.50772 -10.48947  -0.99690  -0.66673  -0.58978
 Alpha  occ. eigenvalues --   -0.58977  -0.54997  -0.31663  -0.31662
 Alpha virt. eigenvalues --    0.01871   0.03917   0.03917   0.04091   0.08530
 Alpha virt. eigenvalues --    0.09066   0.09066   0.14265   0.16755   0.16755
 Alpha virt. eigenvalues --    0.20975   0.20976   0.23661   0.27387   0.41472

  Beta  occ. eigenvalues --  -10.50772 -10.48947  -0.99690  -0.66673  -0.58978
  Beta  occ. eigenvalues --   -0.58977  -0.54997  -0.31663  -0.31662
  Beta virt. eigenvalues --    0.01871   0.03917   0.03917   0.04091   0.08530
  Beta virt. eigenvalues --    0.09066   0.09066   0.14265   0.16755   0.16755
  Beta virt. eigenvalues --    0.20975   0.20976   0.23661   0.27387   0.41472

 Mulliken charges and spin densities:
               1          2
     1  C   -0.403539   0.000000
     2  C   -0.403539  -0.000000
     3  H    0.134516   0.000000
     4  H    0.134510  -0.000000
     5  H    0.134510   0.000000
     6  H    0.134512   0.000000
     7  H    0.134516  -0.000000
     8  H    0.134512  -0.000000
 Sum of Mulliken charges =  -0.00000  -0.00000

 Dipole moment (field-independent basis, Debye):
    X=              0.0000    Y=             -0.0000    Z=             -0.0000  Tot=              0.0000
 Quadrupole moment (field-independent basis, Debye-Ang):
   XX=            -15.7333   YY=            -14.9612   ZZ=            -14.9614
   XY=             -0.0001   XZ=              0.0000   YZ=             -0.0002

 Normal termination of Gaussian 16 at Tue Nov 19 11:34:54 2024.
