 Gaussian 16, Revision A.03,
 Gaussian 16:  ES64L-G16RevA.03 25-Dec-2016

 --------------------------------------------
 #p opt UM062X/6-311+G** nosymm int=superfine
 --------------------------------------------

 -------------------
 Title Card Required
 -------------------
 Symbolic Z-matrix:
 Charge =  1 Multiplicity = 2

 SCF Done:  E(UM062X) =  -79.0184901503     A.U. after   19 cycles
 SCF Done:  E(UM062X) =  -79.1163730169     A.U. after   16 cycles
 SCF Done:  E(UM062X) =  -79.2062071023     A.U. after   16 cycles
 SCF Done:  E(UM062X) =  -79.2582180441     A.U. after   12 cycles
 SCF Done:  E(UM062X) =  -79.2614298467     A.U. after    9 cycles
 SCF Done:  E(UM062X) =  -79.2616357557     A.U. after    9 cycles
 SCF Done:  E(UM062X) =  -79.2616802480     A.U. after    9 cycles
 SCF Done:  E(UM062X) =  -79.2616898768     A.U. after    8 cycles
 Optimization completed.
    -- Stationary point found.

                          Input orientation:
 ---------------------------------------------------------------------
 Center     Atomic      Atomic             Coordinates (Angstroms)
 Number     Number       Type             X           Y           Z
 ---------------------------------------------------------------------
      1          6           0       -0.570669    0.000000    0.000000
      2          6           0        0.570669    0.000000    0.000000
      3          1           0        1.153823   -0.795896    0.465786
      4          1           0       -1.077958   -0.997041   -0.266573
      5          1           0        1.077985    0.997071    0.266307
      6          1           0        1.078103    0.256691   -0.999455
      7          1           0       -1.153825    0.795943   -0.465703
      8          1           0       -1.078134   -0.256958    0.999347
 ---------------------------------------------------------------------

 Alpha  occ. eigenvalues --  -10.80598 -10.80189  -1.24474  -0.99561  -0.85573
 Alpha  occ. eigenvalues --   -0.82831  -0.81019  -0.67065  -0.60766
 Alpha virt. eigenvalues --   -0.16194  -0.14668  -0.14086  -0.12269  -0.08831
 Alpha virt. eigenvalues --   -0.07129  -0.07075  -0.06560  -0.04191  -0.03101
 Alpha virt. eigenvalues --   -0.00880  -0.00759   0.06384   0.06624   0.15138

  Beta  occ. eigenvalues --  -10.80551 -10.80130  -1.23145  -0.95724  -0.84833
  Beta  occ. eigenvalues --   -0.80882  -0.76174  -0.65523
  Beta virt. eigenvalues --   -0.40797  -0.16310  -0.14693  -0.13519  -0.12362
  Beta virt. eigenvalues --   -0.08883  -0.06829  -0.06523  -0.04989  -0.04160
  Beta virt. eigenvalues --   -0.02525  -0.00758  -0.00544   0.06710   0.07022

 Mulliken charges and spin densities:
               1          2
     1  C   -0.390405   0.137015
     2  C   -0.390422   0.137005
     3  H    0.249240  -0.009033
     4  H    0.320613   0.186152
     5  H    0.320606   0.186085
     6  H    0.320569   0.185938
     7  H    0.249240  -0.009034
     8  H    0.320560   0.185872
 Sum of Mulliken charges =   1.00000   1.00000

 Dipole moment (field-independent basis, Debye):
    X=             -0.0000    Y=             -0.0003    Z=             -0.0004  Tot=              0.0005
 Quadrupole moment (field-independent basis, Debye-Ang):
   XX=             -7.0976   YY=             -9.9417   ZZ=            -10.7225
   XY=              1.8410   XZ=             -1.0750   YZ=             -0.6931

 Normal termination of Gaussian 16 at Fri Nov 15 15:02:13 2024.
