 Gaussian 16, Revision A.03,
 Gaussian 16:  ES64L-G16RevA.03 25-Dec-2016

 --------------------------------------------
 #p opt UM062X/6-311+G** nosymm int=superfine
 --------------------------------------------

 -------------------
 Title Card Required
 -------------------
 Symbolic Z-matrix:
 Charge =  0 Multiplicity = 1

 SCF Done:  E(UM062X) =  -111.606061398     A.U. after   17 cycles
 SCF Done:  E(UM062X) =  -111.609036319     A.U. after   16 cycles
 SCF Done:  E(UM062X) =  -111.610359563     A.U. after   34 cycles
 SCF Done:  E(UM062X) =  -111.611436888     A.U. after   18 cycles
 SCF Done:  E(UM062X) =  -111.612581559     A.U. after   16 cycles
 SCF Done:  E(UM062X) =  -111.613673996     A.U. after   17 cycles
 SCF Done:  E(UM062X) =  -111.614566289     A.U. after   16 cycles
 SCF Done:  E(UM062X) =  -111.614965278     A.U. after   15 cycles
 SCF Done:  E(UM062X) =  -111.615146502     A.U. after   15 cycles
 SCF Done:  E(UM062X) =  -111.615380195     A.U. after   18 cycles
 SCF Done:  E(UM062X) =  -111.615539987     A.U. after   15 cycles
 SCF Done:  E(UM062X) =  -111.615627773     A.U. after   15 cycles
 SCF Done:  E(UM062X) =  -111.615640317     A.U. after   14 cycles
 SCF Done:  E(UM062X) =  -111.615663512     A.U. after   15 cycles
 SCF Done:  E(UM062X) =  -111.615690606     A.U. after   13 cycles
 SCF Done:  E(UM062X) =  -111.615714442     A.U. after   15 cycles
 SCF Done:  E(UM062X) =  -111.615721053     A.U. after   13 cycles
 SCF Done:  E(UM062X) =  -111.615726225     A.U. after   14 cycles
 SCF Done:  E(UM062X) =  -111.615726577     A.U. after   12 cycles
 SCF Done:  E(UM062X) =  -111.615726844     A.U. after   11 cycles
 Optimization completed.
    -- Stationary point found.

                          Input orientation:
 ---------------------------------------------------------------------
 Center     Atomic      Atomic             Coordinates (Angstroms)
 Number     Number       Type             X           Y           Z
 ---------------------------------------------------------------------
      1          7           0       -2.136540    0.000000    0.000000
      2          7           0        2.136540    0.000000    0.000000
      3          1           0       -2.013805   -0.810516   -0.619744
      4          1           0        2.014207    0.401585   -0.938007
      5          1           0       -2.013220   -0.400430    0.938368
      6          1           0        2.013787    0.809875    0.620591
 ---------------------------------------------------------------------

 Alpha  occ. eigenvalues --  -14.80416 -14.80416  -0.95173  -0.95027  -0.55347
 Alpha  occ. eigenvalues --   -0.55293  -0.40705  -0.40613  -0.27551
 Alpha virt. eigenvalues --   -0.19594   0.03925   0.05830   0.08939   0.11645
 Alpha virt. eigenvalues --    0.11997   0.12901   0.15081   0.16610   0.17514
 Alpha virt. eigenvalues --    0.18358   0.21898   0.29797   0.50824   0.51936

  Beta  occ. eigenvalues --  -14.80416 -14.80416  -0.95173  -0.95027  -0.55347
  Beta  occ. eigenvalues --   -0.55293  -0.40705  -0.40613  -0.27551
  Beta virt. eigenvalues --   -0.19594   0.03925   0.05830   0.08939   0.11645
  Beta virt. eigenvalues --    0.11997   0.12901   0.15081   0.16610   0.17514
  Beta virt. eigenvalues --    0.18358   0.21898   0.29797   0.50824   0.51936

 Mulliken charges and spin densities:
               1          2
     1  N   -0.473858  -0.000000
     2  N   -0.473943   0.000000
     3  H    0.236955   0.000000
     4  H    0.236957  -0.000000
     5  H    0.236944   0.000000
     6  H    0.236945  -0.000000
 Sum of Mulliken charges =  -0.00000   0.00000

 Dipole moment (field-independent basis, Debye):
    X=              0.0012    Y=              0.0007    Z=              0.0021  Tot=              0.0026
 Quadrupole moment (field-independent basis, Debye-Ang):
   XX=            -17.4739   YY=            -14.3820   ZZ=            -11.5385
   XY=              8.7806   XZ=             -2.3053   YZ=              0.8019

 Normal termination of Gaussian 16 at Thu May 15 15:26:08 2025.
