 Gaussian 16, Revision A.03,
 Gaussian 16:  ES64L-G16RevA.03 25-Dec-2016

 --------------------------------------------
 #p opt UM062X/6-311+G** nosymm int=superfine
 --------------------------------------------

 -------------------
 Title Card Required
 -------------------
 Symbolic Z-matrix:
 Charge =  0 Multiplicity = 1

 SCF Done:  E(UM062X) =  -581.142046523     A.U. after    9 cycles
 SCF Done:  E(UM062X) =  -581.161819927     A.U. after    8 cycles
 SCF Done:  E(UM062X) =  -581.173960549     A.U. after    8 cycles
 SCF Done:  E(UM062X) =  -581.173980521     A.U. after    7 cycles
 Optimization completed.
    -- Stationary point found.

                          Input orientation:
 ---------------------------------------------------------------------
 Center     Atomic      Atomic             Coordinates (Angstroms)
 Number     Number       Type             X           Y           Z
 ---------------------------------------------------------------------
      1         14           0       -2.262518    0.000000    0.000000
      2         14           0        2.262518    0.000000    0.000000
      3          1           0       -3.326619   -1.083731    0.000070
      4          1           0        3.326619    1.083731   -0.000515
      5          1           0       -3.326624    1.083727    0.000294
      6          1           0        3.326624   -1.083726    0.000879
 ---------------------------------------------------------------------

 Alpha  occ. eigenvalues --  -67.01231 -67.01231  -5.55955  -5.55955  -3.87200
 Alpha  occ. eigenvalues --   -3.87200  -3.86659  -3.86659  -3.86519  -3.86519
 Alpha  occ. eigenvalues --   -0.57229  -0.57132  -0.37787  -0.37751  -0.29246
 Alpha  occ. eigenvalues --   -0.26986
 Alpha virt. eigenvalues --   -0.08214  -0.07469   0.02087   0.02382   0.03056
 Alpha virt. eigenvalues --    0.04568   0.05715   0.06090   0.06348   0.07065
 Alpha virt. eigenvalues --    0.08360   0.09155   0.11392   0.14084   0.29058

  Beta  occ. eigenvalues --  -67.01231 -67.01231  -5.55955  -5.55955  -3.87200
  Beta  occ. eigenvalues --   -3.87200  -3.86659  -3.86659  -3.86519  -3.86519
  Beta  occ. eigenvalues --   -0.57229  -0.57132  -0.37787  -0.37751  -0.29246
  Beta  occ. eigenvalues --   -0.26986
  Beta virt. eigenvalues --   -0.08214  -0.07469   0.02087   0.02382   0.03056
  Beta virt. eigenvalues --    0.04568   0.05715   0.06090   0.06348   0.07065
  Beta virt. eigenvalues --    0.08360   0.09155   0.11392   0.14084   0.29058

 Mulliken charges and spin densities:
               1          2
     1  Si   0.321896   0.000000
     2  Si   0.321896   0.000000
     3  H   -0.160948  -0.000000
     4  H   -0.160948  -0.000000
     5  H   -0.160948  -0.000000
     6  H   -0.160948  -0.000000
 Sum of Mulliken charges =  -0.00000  -0.00000

 Dipole moment (field-independent basis, Debye):
    X=              0.0000    Y=              0.0000    Z=              0.0001  Tot=              0.0001
 Quadrupole moment (field-independent basis, Debye-Ang):
   XX=            -35.7253   YY=            -32.7520   ZZ=            -24.3916
   XY=             -0.0000   XZ=              0.0000   YZ=              0.0023

 Normal termination of Gaussian 16 at Mon Apr 21 20:30:08 2025.
