 Gaussian 16, Revision A.03,
 Gaussian 16:  ES64L-G16RevA.03 25-Dec-2016

 --------------------------------------------
 #p opt UM062X/6-311+G** nosymm int=superfine
 --------------------------------------------

 -------------------
 Title Card Required
 -------------------
 Symbolic Z-matrix:
 Charge =  0 Multiplicity = 1

 SCF Done:  E(UM062X) =  -474.454963993     A.U. after   17 cycles
 SCF Done:  E(UM062X) =  -474.458458038     A.U. after   15 cycles
 SCF Done:  E(UM062X) =  -474.459951534     A.U. after   16 cycles
 SCF Done:  E(UM062X) =  -474.459996583     A.U. after   12 cycles
 SCF Done:  E(UM062X) =  -474.459998173     A.U. after   13 cycles
 SCF Done:  E(UM062X) =  -474.459998249     A.U. after   10 cycles
 Optimization completed.
    -- Stationary point found.

                          Input orientation:
 ---------------------------------------------------------------------
 Center     Atomic      Atomic             Coordinates (Angstroms)
 Number     Number       Type             X           Y           Z
 ---------------------------------------------------------------------
      1          8           0       -1.264392    0.000000    0.000000
      2         16           0        1.264392    0.000000    0.000000
      3          1           0       -1.304111   -0.947709   -0.198240
      4          1           0        1.162679    0.365910    1.290291
 ---------------------------------------------------------------------

 Alpha  occ. eigenvalues --  -89.97434 -19.67438  -8.33468  -6.25687  -6.25317
 Alpha  occ. eigenvalues --   -6.24767  -1.08918  -0.83175  -0.52863  -0.49192
 Alpha  occ. eigenvalues --   -0.39990  -0.39197  -0.34904
 Alpha virt. eigenvalues --   -0.16042   0.01578   0.04080   0.04763   0.05672
 Alpha virt. eigenvalues --    0.07468   0.15006   0.19512   0.20005   0.21506
 Alpha virt. eigenvalues --    0.26776   0.31354   0.34031   0.35386   0.40241

  Beta  occ. eigenvalues --  -89.97434 -19.67438  -8.33468  -6.25687  -6.25317
  Beta  occ. eigenvalues --   -6.24767  -1.08918  -0.83175  -0.52863  -0.49192
  Beta  occ. eigenvalues --   -0.39990  -0.39197  -0.34904
  Beta virt. eigenvalues --   -0.16042   0.01578   0.04080   0.04763   0.05672
  Beta virt. eigenvalues --    0.07468   0.15006   0.19512   0.20005   0.21506
  Beta virt. eigenvalues --    0.26776   0.31354   0.34031   0.35386   0.40241

 Mulliken charges and spin densities:
               1          2
     1  O   -0.432356   0.000004
     2  S    0.072077  -0.000004
     3  H    0.249918  -0.000000
     4  H    0.110361   0.000000
 Sum of Mulliken charges =  -0.00000   0.00000

 Dipole moment (field-independent basis, Debye):
    X=              1.8359    Y=             -1.3257    Z=              0.7565  Tot=              2.3876
 Quadrupole moment (field-independent basis, Debye-Ang):
   XX=            -18.3171   YY=            -19.8397   ZZ=            -18.6381
   XY=              2.9204   XZ=              2.0449   YZ=              1.5945

 Normal termination of Gaussian 16 at Thu May 15 12:58:18 2025.
