 Gaussian 16, Revision A.03,
 Gaussian 16:  ES64L-G16RevA.03 25-Dec-2016

 --------------------------------------------
 #p opt UM062X/6-311+G** nosymm int=superfine
 --------------------------------------------

 -------------------
 Title Card Required
 -------------------
 Symbolic Z-matrix:
 Charge =  0 Multiplicity = 1

 SCF Done:  E(UM062X) =  -382.221869516     A.U. after   18 cycles
 SCF Done:  E(UM062X) =  -382.232558129     A.U. after   13 cycles
 SCF Done:  E(UM062X) =  -382.239341527     A.U. after   13 cycles
 SCF Done:  E(UM062X) =  -382.239465449     A.U. after   12 cycles
 SCF Done:  E(UM062X) =  -382.239523355     A.U. after   12 cycles
 SCF Done:  E(UM062X) =  -382.239601225     A.U. after   11 cycles
 SCF Done:  E(UM062X) =  -382.239637768     A.U. after   11 cycles
 SCF Done:  E(UM062X) =  -382.239643374     A.U. after    9 cycles
 SCF Done:  E(UM062X) =  -382.239644059     A.U. after   10 cycles
 SCF Done:  E(UM062X) =  -382.239644853     A.U. after    9 cycles
 SCF Done:  E(UM062X) =  -382.239645848     A.U. after   10 cycles
 SCF Done:  E(UM062X) =  -382.239646341     A.U. after    8 cycles
 SCF Done:  E(UM062X) =  -382.239646483     A.U. after    7 cycles
 Optimization completed.
    -- Stationary point found.

                          Input orientation:
 ---------------------------------------------------------------------
 Center     Atomic      Atomic             Coordinates (Angstroms)
 Number     Number       Type             X           Y           Z
 ---------------------------------------------------------------------
      1          6           0       -2.231264    0.000000    0.000000
      2         15           0        2.231264    0.000000    0.000000
      3          1           0        2.146465   -1.416938    0.021394
      4          1           0       -2.245753    1.054551    0.233560
      5          1           0        2.145614    0.071644    1.415206
      6          1           0       -2.245952   -0.323606   -1.030488
      7          1           0       -2.286922   -0.729249    0.795074
 ---------------------------------------------------------------------

 Alpha  occ. eigenvalues --  -78.02957 -10.59819  -6.85388  -4.96909  -4.96836
 Alpha  occ. eigenvalues --   -4.96655  -0.79241  -0.69361  -0.51449  -0.51412
 Alpha  occ. eigenvalues --   -0.43527  -0.34625  -0.22632
 Alpha virt. eigenvalues --   -0.14024   0.02096   0.03747   0.03976   0.04488
 Alpha virt. eigenvalues --    0.06105   0.06564   0.07216   0.07343   0.10931
 Alpha virt. eigenvalues --    0.16307   0.17960   0.18004   0.22515   0.30575

  Beta  occ. eigenvalues --  -78.02957 -10.59819  -6.85388  -4.96909  -4.96836
  Beta  occ. eigenvalues --   -4.96655  -0.79241  -0.69361  -0.51449  -0.51412
  Beta  occ. eigenvalues --   -0.43527  -0.34625  -0.22632
  Beta virt. eigenvalues --   -0.14024   0.02096   0.03747   0.03976   0.04488
  Beta virt. eigenvalues --    0.06105   0.06564   0.07216   0.07343   0.10931
  Beta virt. eigenvalues --    0.16307   0.17960   0.18004   0.22515   0.30575

 Mulliken charges and spin densities:
               1          2
     1  C   -0.482723   0.000024
     2  P   -0.047430  -0.000024
     3  H   -0.009863   0.000000
     4  H    0.184071  -0.000000
     5  H   -0.009863   0.000000
     6  H    0.184035  -0.000000
     7  H    0.181774  -0.000000
 Sum of Mulliken charges =  -0.00000  -0.00000

 Dipole moment (field-independent basis, Debye):
    X=             -1.8389    Y=             -0.5820    Z=              0.6217  Tot=              2.0266
 Quadrupole moment (field-independent basis, Debye-Ang):
   XX=            -22.6697   YY=            -22.4397   ZZ=            -22.5325
   XY=             -1.3751   XZ=              1.4671   YZ=              0.7049

 Normal termination of Gaussian 16 at Mon Apr 21 19:07:05 2025.
