 Gaussian 16, Revision A.03,
 Gaussian 16:  ES64L-G16RevA.03 25-Dec-2016

 ---------------------------------------------------------
 #p opt UM062X/6-311+G** nosymm int=superfine SCF=NoVarAcc
 ---------------------------------------------------------

 -------------------
 Title Card Required
 -------------------
 Symbolic Z-matrix:
 Charge =  1 Multiplicity = 2

 SCF Done:  E(UM062X) =  -77.9297212164     A.U. after    9 cycles
 SCF Done:  E(UM062X) =  -77.9301578193     A.U. after    9 cycles
 SCF Done:  E(UM062X) =  -77.9303641678     A.U. after    9 cycles
 Optimization completed.
    -- Stationary point found.

                          Input orientation:
 ---------------------------------------------------------------------
 Center     Atomic      Atomic             Coordinates (Angstroms)
 Number     Number       Type             X           Y           Z
 ---------------------------------------------------------------------
      1          6           0       -1.356027    0.000000    0.000000
      2          6           0        1.356027    0.000000    0.000000
      3          1           0       -1.750128   -1.011874    0.000000
      4          1           0       -1.750116    1.011885    0.000000
      5          1           0        1.750128    1.011874   -0.000000
      6          1           0        1.750116   -1.011885   -0.000000
 ---------------------------------------------------------------------

 Alpha  occ. eigenvalues --  -10.92111 -10.92105  -1.02911  -1.00900  -0.79493
 Alpha  occ. eigenvalues --   -0.78749  -0.57850  -0.51428
 Alpha virt. eigenvalues --   -0.39229  -0.34823  -0.13363  -0.10700  -0.10492
 Alpha virt. eigenvalues --   -0.07740  -0.07527  -0.06543  -0.04586  -0.04451
 Alpha virt. eigenvalues --   -0.03206   0.01357   0.01639   0.09245   0.19408

  Beta  occ. eigenvalues --  -10.91851 -10.91847  -1.00100  -0.98430  -0.79112
  Beta  occ. eigenvalues --   -0.78397  -0.55962
  Beta virt. eigenvalues --   -0.32635  -0.32212  -0.29356  -0.14438  -0.10975
  Beta virt. eigenvalues --   -0.10787  -0.07423  -0.07359  -0.06637  -0.03973
  Beta virt. eigenvalues --   -0.03809  -0.03668   0.00175   0.01678   0.10203

 Mulliken charges and spin densities:
               1          2
     1  C   -0.065257   0.541431
     2  C   -0.065257   0.541430
     3  H    0.282628  -0.020715
     4  H    0.282629  -0.020715
     5  H    0.282628  -0.020715
     6  H    0.282629  -0.020715
 Sum of Mulliken charges =   1.00000   1.00000

 Dipole moment (field-independent basis, Debye):
    X=              0.0000    Y=             -0.0000    Z=              0.0000  Tot=              0.0000
 Quadrupole moment (field-independent basis, Debye-Ang):
   XX=              3.3156   YY=             -7.8215   ZZ=            -12.9545
   XY=             -0.0000   XZ=             -0.0000   YZ=              0.0000

 Normal termination of Gaussian 16 at Tue Dec  3 13:23:54 2024.
