 Gaussian 16, Revision A.03,
 Gaussian 16:  ES64L-G16RevA.03 25-Dec-2016

 --------------------------------------------
 #p opt UM062X/6-311+G** nosymm int=superfine
 --------------------------------------------

 -------------------
 Title Card Required
 -------------------
 Symbolic Z-matrix:
 Charge =  0 Multiplicity = 1

 SCF Done:  E(UM062X) =  -683.573354505     A.U. after   11 cycles
 SCF Done:  E(UM062X) =  -683.573515954     A.U. after   10 cycles
 SCF Done:  E(UM062X) =  -683.573879963     A.U. after   10 cycles
 SCF Done:  E(UM062X) =  -683.574024221     A.U. after   15 cycles
 SCF Done:  E(UM062X) =  -683.574036352     A.U. after   16 cycles
 Optimization completed.
    -- Stationary point found.

                          Input orientation:
 ---------------------------------------------------------------------
 Center     Atomic      Atomic             Coordinates (Angstroms)
 Number     Number       Type             X           Y           Z
 ---------------------------------------------------------------------
      1         15           0       -2.359490    0.000000    0.000000
      2         15           0        2.359490    0.000000    0.000000
      3          1           0       -2.195150   -1.415113   -0.000000
      4          1           0        2.195150    1.415113   -0.000000
 ---------------------------------------------------------------------

 Alpha  occ. eigenvalues --  -78.08200 -78.08200  -6.90278  -6.90277  -5.01683
 Alpha  occ. eigenvalues --   -5.01683  -5.01667  -5.01667  -5.01494  -5.01494
 Alpha  occ. eigenvalues --   -0.68513  -0.68163  -0.40535  -0.40482  -0.24558
 Alpha  occ. eigenvalues --   -0.23639
 Alpha virt. eigenvalues --   -0.17473  -0.16426   0.01839   0.03022   0.03715
 Alpha virt. eigenvalues --    0.04407   0.05524   0.06035   0.06349   0.07345
 Alpha virt. eigenvalues --    0.08091   0.11249   0.28816   0.28886   0.30801

  Beta  occ. eigenvalues --  -78.08200 -78.08200  -6.90278  -6.90277  -5.01683
  Beta  occ. eigenvalues --   -5.01683  -5.01667  -5.01667  -5.01494  -5.01494
  Beta  occ. eigenvalues --   -0.68513  -0.68163  -0.40535  -0.40482  -0.24558
  Beta  occ. eigenvalues --   -0.23639
  Beta virt. eigenvalues --   -0.17473  -0.16426   0.01839   0.03022   0.03715
  Beta virt. eigenvalues --    0.04407   0.05524   0.06035   0.06349   0.07345
  Beta virt. eigenvalues --    0.08091   0.11249   0.28816   0.28886   0.30801

 Mulliken charges and spin densities:
               1          2
     1  P    0.013041   0.000000
     2  P    0.013041  -0.000000
     3  H   -0.013041  -0.000000
     4  H   -0.013041   0.000000
 Sum of Mulliken charges =  -0.00000   0.00000

 Dipole moment (field-independent basis, Debye):
    X=              0.0000    Y=              0.0000    Z=             -0.0000  Tot=              0.0000
 Quadrupole moment (field-independent basis, Debye-Ang):
   XX=            -27.4836   YY=            -28.5190   ZZ=            -30.7317
   XY=              3.5170   XZ=             -0.0000   YZ=             -0.0000

 Normal termination of Gaussian 16 at Mon Apr 21 21:13:49 2025.
