 Gaussian 16, Revision A.03,
 Gaussian 16:  ES64L-G16RevA.03 25-Dec-2016

 ---------------------------------------
 #p UM062X/6-311+G** force int=superfine
 ---------------------------------------

 -------------------
 Title Card Required
 -------------------
 Symbolic Z-matrix:
 Charge =  1 Multiplicity = 2

                         Standard orientation:
 ---------------------------------------------------------------------
 Center     Atomic      Atomic             Coordinates (Angstroms)
 Number     Number       Type             X           Y           Z
 ---------------------------------------------------------------------
      1          6           0        0.941604    0.000000    0.000062
      2          6           0       -0.941604   -0.000009   -0.000061
      3          1           0       -1.101092    0.043893    1.073869
      4          1           0        1.100290    0.952124    0.499067
      5          1           0       -1.100425   -0.952080   -0.499121
      6          1           0       -1.100321    0.908185   -0.575142
      7          1           0        1.101101   -0.043931   -1.073866
      8          1           0        1.100446   -0.908140    0.575189
 ---------------------------------------------------------------------

 SCF Done:  E(UM062X) =  -79.3683509441     A.U. after    9 cycles

 The electronic state is 2-A.
 Alpha  occ. eigenvalues --  -10.86144 -10.86129  -1.12709  -1.00904  -0.79816
 Alpha  occ. eigenvalues --   -0.79813  -0.73176  -0.73176  -0.65715
 Alpha virt. eigenvalues --   -0.19972  -0.16790  -0.11415  -0.11414  -0.09658
 Alpha virt. eigenvalues --   -0.07583  -0.06569  -0.06567  -0.05758  -0.05757
 Alpha virt. eigenvalues --   -0.01515   0.01413   0.01417   0.03913   0.07535

  Beta  occ. eigenvalues --  -10.85917 -10.85917  -1.09044  -0.97686  -0.78718
  Beta  occ. eigenvalues --   -0.78715  -0.72295  -0.72294
  Beta virt. eigenvalues --   -0.41697  -0.16268  -0.15492  -0.11249  -0.11249
  Beta virt. eigenvalues --   -0.07794  -0.06934  -0.06707  -0.06706  -0.05343
  Beta virt. eigenvalues --   -0.05340  -0.00392   0.02141   0.02145   0.04482

 Mulliken charges and spin densities:
               1          2
     1  C   -0.324883   0.535213
     2  C   -0.324883   0.535213
     3  H    0.274963  -0.011787
     4  H    0.274957  -0.011710
     5  H    0.274962  -0.011714
     6  H    0.274957  -0.011713
     7  H    0.274964  -0.011787
     8  H    0.274962  -0.011716
 Sum of Mulliken charges =   1.00000   1.00000

 Dipole moment (field-independent basis, Debye):
    X=              0.0000    Y=              0.0000    Z=             -0.0000  Tot=              0.0000
 Quadrupole moment (field-independent basis, Debye-Ang):
   XX=             -7.0055   YY=            -10.6990   ZZ=            -10.6996
   XY=             -0.0000   XZ=             -0.0001   YZ=             -0.0000

 Normal termination of Gaussian 16 at Wed Nov 13 13:43:02 2024.
