 Gaussian 16, Revision A.03,
 Gaussian 16:  ES64L-G16RevA.03 25-Dec-2016

 --------------------------------------------
 #p opt UM062X/6-311+G** nosymm int=superfine
 --------------------------------------------

 -------------------
 Title Card Required
 -------------------
 Symbolic Z-matrix:
 Charge =  0 Multiplicity = 1

 SCF Done:  E(UM062X) =  -111.612142729     A.U. after   15 cycles
 SCF Done:  E(UM062X) =  -111.616204855     A.U. after   16 cycles
 SCF Done:  E(UM062X) =  -111.618665461     A.U. after   16 cycles
 SCF Done:  E(UM062X) =  -111.620232574     A.U. after   16 cycles
 SCF Done:  E(UM062X) =  -111.621957119     A.U. after   15 cycles
 SCF Done:  E(UM062X) =  -111.623144681     A.U. after   16 cycles
 SCF Done:  E(UM062X) =  -111.623758537     A.U. after   16 cycles
 SCF Done:  E(UM062X) =  -111.624035993     A.U. after   15 cycles
 SCF Done:  E(UM062X) =  -111.624356284     A.U. after   18 cycles
 SCF Done:  E(UM062X) =  -111.624544285     A.U. after   15 cycles
 SCF Done:  E(UM062X) =  -111.624628993     A.U. after   14 cycles
 SCF Done:  E(UM062X) =  -111.624646883     A.U. after   12 cycles
 SCF Done:  E(UM062X) =  -111.624685406     A.U. after   12 cycles
 SCF Done:  E(UM062X) =  -111.624705016     A.U. after   57 cycles
 SCF Done:  E(UM062X) =  -111.624723183     A.U. after   13 cycles
 SCF Done:  E(UM062X) =  -111.624732562     A.U. after   14 cycles
 SCF Done:  E(UM062X) =  -111.624740643     A.U. after   12 cycles
 SCF Done:  E(UM062X) =  -111.624741915     A.U. after   11 cycles
 SCF Done:  E(UM062X) =  -111.624742175     A.U. after   11 cycles
 Optimization completed.
    -- Stationary point found.

                          Input orientation:
 ---------------------------------------------------------------------
 Center     Atomic      Atomic             Coordinates (Angstroms)
 Number     Number       Type             X           Y           Z
 ---------------------------------------------------------------------
      1          7           0       -1.961540    0.000000    0.000000
      2          7           0        1.961540    0.000000    0.000000
      3          1           0       -1.841598   -0.811332   -0.619338
      4          1           0        1.841867    0.402647   -0.937968
      5          1           0       -1.841943   -0.401986    0.938259
      6          1           0        1.842306    0.811011    0.619897
 ---------------------------------------------------------------------

 Alpha  occ. eigenvalues --  -14.80501 -14.80500  -0.95204  -0.94980  -0.55346
 Alpha  occ. eigenvalues --   -0.55236  -0.40773  -0.40600  -0.28099
 Alpha virt. eigenvalues --   -0.18986   0.04126   0.05959   0.08805   0.11551
 Alpha virt. eigenvalues --    0.12243   0.13279   0.15386   0.16428   0.17847
 Alpha virt. eigenvalues --    0.18661   0.23194   0.28947   0.51068   0.51699

  Beta  occ. eigenvalues --  -14.80501 -14.80500  -0.95204  -0.94980  -0.55346
  Beta  occ. eigenvalues --   -0.55236  -0.40773  -0.40600  -0.28099
  Beta virt. eigenvalues --   -0.18986   0.04126   0.05959   0.08805   0.11551
  Beta virt. eigenvalues --    0.12243   0.13279   0.15386   0.16428   0.17847
  Beta virt. eigenvalues --    0.18661   0.23194   0.28947   0.51068   0.51699

 Mulliken charges and spin densities:
               1          2
     1  N   -0.479681  -0.000000
     2  N   -0.479770   0.000000
     3  H    0.239864   0.000000
     4  H    0.239870  -0.000000
     5  H    0.239857   0.000000
     6  H    0.239861  -0.000000
 Sum of Mulliken charges =  -0.00000   0.00000

 Dipole moment (field-independent basis, Debye):
    X=              0.0007    Y=              0.0005    Z=              0.0014  Tot=              0.0016
 Quadrupole moment (field-independent basis, Debye-Ang):
   XX=            -17.0494   YY=            -14.3761   ZZ=            -11.5363
   XY=              8.0894   XZ=             -2.1231   YZ=              0.8005

 Normal termination of Gaussian 16 at Thu May 15 15:12:51 2025.
