 Gaussian 16, Revision A.03,
 Gaussian 16:  ES64L-G16RevA.03 25-Dec-2016

 --------------------------------------------
 #p opt UM062X/6-311+G** nosymm int=superfine
 --------------------------------------------

 -------------------
 Title Card Required
 -------------------
 Symbolic Z-matrix:
 Charge =  0 Multiplicity = 1

 SCF Done:  E(UM062X) =  -79.6779403530     A.U. after    8 cycles
 SCF Done:  E(UM062X) =  -79.7060260943     A.U. after    8 cycles
 SCF Done:  E(UM062X) =  -79.7277024462     A.U. after   10 cycles
 SCF Done:  E(UM062X) =  -79.7281685755     A.U. after    8 cycles
 SCF Done:  E(UM062X) =  -79.7281708458     A.U. after    6 cycles
 Optimization completed.
    -- Stationary point found.

                          Input orientation:
 ---------------------------------------------------------------------
 Center     Atomic      Atomic             Coordinates (Angstroms)
 Number     Number       Type             X           Y           Z
 ---------------------------------------------------------------------
      1          6           0       -1.053695    0.000000    0.000000
      2          6           0        1.053802    0.000000    0.000000
      3          1           0        1.326010   -0.908206    0.525549
      4          1           0       -1.325900   -0.909229   -0.523775
      5          1           0        1.326010    0.909230    0.523774
      6          1           0        1.326057   -0.001024   -1.049288
      7          1           0       -1.325901    0.908206   -0.525549
      8          1           0       -1.325951    0.001023    1.049288
 ---------------------------------------------------------------------

 Alpha  occ. eigenvalues --  -10.54840 -10.54832  -0.78591  -0.72941  -0.48328
 Alpha  occ. eigenvalues --   -0.48328  -0.44819  -0.44819  -0.32059
 Alpha virt. eigenvalues --    0.01967   0.02371   0.05622   0.05622   0.08440
 Alpha virt. eigenvalues --    0.08440   0.09624   0.09794   0.13500   0.18188
 Alpha virt. eigenvalues --    0.18189   0.22082   0.22082   0.24332   0.26826

  Beta  occ. eigenvalues --  -10.54840 -10.54832  -0.78591  -0.72941  -0.48328
  Beta  occ. eigenvalues --   -0.48328  -0.44819  -0.44819  -0.32059
  Beta virt. eigenvalues --    0.01967   0.02371   0.05622   0.05622   0.08440
  Beta virt. eigenvalues --    0.08440   0.09624   0.09794   0.13500   0.18188
  Beta virt. eigenvalues --    0.18189   0.22082   0.22082   0.24332   0.26826

 Mulliken charges and spin densities:
               1          2
     1  C   -0.500681   0.000000
     2  C   -0.500680  -0.000000
     3  H    0.166894   0.000000
     4  H    0.166894  -0.000000
     5  H    0.166894   0.000000
     6  H    0.166893   0.000000
     7  H    0.166894  -0.000000
     8  H    0.166893  -0.000000
 Sum of Mulliken charges =  -0.00000   0.00000

 Dipole moment (field-independent basis, Debye):
    X=              0.0000    Y=             -0.0000    Z=             -0.0000  Tot=              0.0000
 Quadrupole moment (field-independent basis, Debye-Ang):
   XX=            -15.5692   YY=            -14.8603   ZZ=            -14.8602
   XY=              0.0000   XZ=             -0.0001   YZ=             -0.0000

 Normal termination of Gaussian 16 at Tue Nov 19 12:09:12 2024.
