 Gaussian 16, Revision A.03,
 Gaussian 16:  ES64L-G16RevA.03 25-Dec-2016

 --------------------------------------------
 #p opt UM062X/6-311+G** nosymm int=superfine
 --------------------------------------------

 -------------------
 Title Card Required
 -------------------
 Symbolic Z-matrix:
 Charge =  0 Multiplicity = 1

 SCF Done:  E(UM062X) =  -582.444625414     A.U. after    9 cycles
 SCF Done:  E(UM062X) =  -582.445935705     A.U. after    8 cycles
 SCF Done:  E(UM062X) =  -582.446159313     A.U. after    8 cycles
 Optimization completed.
    -- Stationary point found.

                          Input orientation:
 ---------------------------------------------------------------------
 Center     Atomic      Atomic             Coordinates (Angstroms)
 Number     Number       Type             X           Y           Z
 ---------------------------------------------------------------------
      1         14           0       -1.719819    0.000000    0.000000
      2         14           0        1.719819    0.000000    0.000000
      3          1           0        2.159604   -1.409387   -0.000057
      4          1           0       -2.159641   -0.704554    1.220644
      5          1           0        2.159737    0.704726   -1.220510
      6          1           0        2.159647    0.704606    1.220612
      7          1           0       -2.159607    1.409386   -0.000116
      8          1           0       -2.159741   -0.704779   -1.220478
 ---------------------------------------------------------------------

 Alpha  occ. eigenvalues --  -67.01246 -67.01246  -5.56076  -5.56076  -3.87282
 Alpha  occ. eigenvalues --   -3.87281  -3.87116  -3.87116  -3.87116  -3.87116
 Alpha  occ. eigenvalues --   -0.61161  -0.59934  -0.41658  -0.41658  -0.41228
 Alpha  occ. eigenvalues --   -0.41228  -0.25957
 Alpha virt. eigenvalues --   -0.05694   0.02166   0.02924   0.02924   0.03772
 Alpha virt. eigenvalues --    0.05017   0.05428   0.05428   0.06965   0.06965
 Alpha virt. eigenvalues --    0.07570   0.09118   0.09119   0.14371   0.16986

  Beta  occ. eigenvalues --  -67.01246 -67.01246  -5.56076  -5.56076  -3.87282
  Beta  occ. eigenvalues --   -3.87281  -3.87116  -3.87116  -3.87116  -3.87116
  Beta  occ. eigenvalues --   -0.61161  -0.59934  -0.41658  -0.41658  -0.41228
  Beta  occ. eigenvalues --   -0.41228  -0.25957
  Beta virt. eigenvalues --   -0.05694   0.02166   0.02924   0.02924   0.03772
  Beta virt. eigenvalues --    0.05017   0.05428   0.05428   0.06965   0.06965
  Beta virt. eigenvalues --    0.07570   0.09118   0.09119   0.14371   0.16986

 Mulliken charges and spin densities:
               1          2
     1  Si   0.285572   0.000000
     2  Si   0.285572  -0.000000
     3  H   -0.095192   0.000000
     4  H   -0.095190   0.000000
     5  H   -0.095190  -0.000000
     6  H   -0.095190  -0.000000
     7  H   -0.095192  -0.000000
     8  H   -0.095190  -0.000000
 Sum of Mulliken charges =  -0.00000  -0.00000

 Dipole moment (field-independent basis, Debye):
    X=             -0.0000    Y=             -0.0000    Z=              0.0000  Tot=              0.0000
 Quadrupole moment (field-independent basis, Debye-Ang):
   XX=            -30.0281   YY=            -31.8535   ZZ=            -31.8534
   XY=              0.0002   XZ=              0.0000   YZ=              0.0000

 Normal termination of Gaussian 16 at Mon Apr 21 20:19:28 2025.
