 Gaussian 16, Revision A.03,
 Gaussian 16:  ES64L-G16RevA.03 25-Dec-2016

 --------------------------------------------
 #p opt UM062X/6-311+G** nosymm int=superfine
 --------------------------------------------

 -------------------
 Title Card Required
 -------------------
 Symbolic Z-matrix:
 Charge =  0 Multiplicity = 1

 SCF Done:  E(UM062X) =  -95.7103584986     A.U. after   11 cycles
 SCF Done:  E(UM062X) =  -95.7255815616     A.U. after   11 cycles
 SCF Done:  E(UM062X) =  -95.7301793924     A.U. after   11 cycles
 SCF Done:  E(UM062X) =  -95.7302366106     A.U. after   10 cycles
 SCF Done:  E(UM062X) =  -95.7302424661     A.U. after    9 cycles
 SCF Done:  E(UM062X) =  -95.7302440560     A.U. after    9 cycles
 Optimization completed.
    -- Stationary point found.

                          Input orientation:
 ---------------------------------------------------------------------
 Center     Atomic      Atomic             Coordinates (Angstroms)
 Number     Number       Type             X           Y           Z
 ---------------------------------------------------------------------
      1          6           0       -1.130542    0.000000    0.000000
      2          7           0        1.130542    0.000000    0.000000
      3          1           0        1.214724   -1.011523    0.128391
      4          1           0       -1.291174    1.068948   -0.001052
      5          1           0        1.214744    0.375380    0.948031
      6          1           0       -1.291036   -0.510521   -0.939174
      7          1           0       -1.384518   -0.537161    0.904390
 ---------------------------------------------------------------------

 Alpha  occ. eigenvalues --  -14.74874 -10.59413  -0.90942  -0.78300  -0.52027
 Alpha  occ. eigenvalues --   -0.50419  -0.49043  -0.36676  -0.31450
 Alpha virt. eigenvalues --   -0.03387   0.01505   0.05091   0.05752   0.07193
 Alpha virt. eigenvalues --    0.10906   0.13615   0.16017   0.16614   0.18222
 Alpha virt. eigenvalues --    0.20893   0.22251   0.22372   0.31819   0.41733

  Beta  occ. eigenvalues --  -14.74874 -10.59413  -0.90942  -0.78300  -0.52027
  Beta  occ. eigenvalues --   -0.50419  -0.49043  -0.36676  -0.31450
  Beta virt. eigenvalues --   -0.03387   0.01505   0.05091   0.05752   0.07193
  Beta virt. eigenvalues --    0.10906   0.13615   0.16017   0.16614   0.18222
  Beta virt. eigenvalues --    0.20893   0.22251   0.22372   0.31819   0.41733

 Mulliken charges and spin densities:
               1          2
     1  C   -0.429320   0.000000
     2  N   -0.582636  -0.000000
     3  H    0.232862   0.000000
     4  H    0.187198  -0.000000
     5  H    0.232853   0.000000
     6  H    0.187273  -0.000000
     7  H    0.171769  -0.000000
 Sum of Mulliken charges =  -0.00000  -0.00000

 Dipole moment (field-independent basis, Debye):
    X=             -1.9096    Y=             -0.9019    Z=              1.5262  Tot=              2.6057
 Quadrupole moment (field-independent basis, Debye-Ang):
   XX=            -15.2049   YY=            -13.2884   ZZ=            -14.1485
   XY=             -1.3393   XZ=              2.2664   YZ=              0.7813

 Normal termination of Gaussian 16 at Mon Apr 21 18:11:31 2025.
