 Gaussian 16, Revision A.03,
 Gaussian 16:  ES64L-G16RevA.03 25-Dec-2016

 --------------------------------------------
 #p opt UM062X/6-311+G** nosymm int=superfine
 --------------------------------------------

 -------------------
 Title Card Required
 -------------------
 Symbolic Z-matrix:
 Charge =  1 Multiplicity = 2

 SCF Done:  E(UM062X) =  -379.295126646     A.U. after   26 cycles
 SCF Done:  E(UM062X) =  -379.295909109     A.U. after   15 cycles
 SCF Done:  E(UM062X) =  -379.295910735     A.U. after   13 cycles
 Optimization completed.
    -- Stationary point found.

                          Input orientation:
 ---------------------------------------------------------------------
 Center     Atomic      Atomic             Coordinates (Angstroms)
 Number     Number       Type             X           Y           Z
 ---------------------------------------------------------------------
      1          6           0       -2.144427    0.000000    0.000000
      2         15           0        2.144427    0.000000    0.000000
      3          1           0       -3.265803   -0.000000   -0.000000
 ---------------------------------------------------------------------

 Alpha  occ. eigenvalues --  -78.31283 -10.97284  -7.12850  -5.24996  -5.24646
 Alpha  occ. eigenvalues --   -5.23594  -0.99259  -0.84866  -0.65140  -0.50529
 Alpha  occ. eigenvalues --   -0.44864
 Alpha virt. eigenvalues --   -0.38154  -0.34692  -0.33221  -0.13191  -0.09530
 Alpha virt. eigenvalues --   -0.08415  -0.08070  -0.06582  -0.05372  -0.05006
 Alpha virt. eigenvalues --   -0.02527   0.00075   0.16990   0.17492   0.17757

  Beta  occ. eigenvalues --  -78.30529 -10.97246  -7.12622  -5.24432  -5.23445
  Beta  occ. eigenvalues --   -5.22716  -0.99054  -0.79676  -0.64976  -0.43853
  Beta virt. eigenvalues --   -0.37092  -0.34523  -0.32059  -0.28241  -0.13566
  Beta virt. eigenvalues --   -0.10683  -0.08207  -0.08051  -0.06441  -0.05040
  Beta virt. eigenvalues --   -0.04594  -0.02766  -0.00138   0.15006   0.15706

 Mulliken charges and spin densities:
               1          2
     1  C    0.282060   0.049014
     2  P    0.480444   0.952935
     3  H    0.237496  -0.001949
 Sum of Mulliken charges =   1.00000   1.00000

 Dipole moment (field-independent basis, Debye):
    X=             -2.4719    Y=             -0.0000    Z=             -0.0000  Tot=              2.4719
 Quadrupole moment (field-independent basis, Debye-Ang):
   XX=             17.8474   YY=            -19.9051   ZZ=            -16.7497
   XY=              0.0000   XZ=              0.0000   YZ=             -0.1362

 Normal termination of Gaussian 16 at Mon Apr 21 19:28:11 2025.
