 Gaussian 16, Revision A.03,
 Gaussian 16:  ES64L-G16RevA.03 25-Dec-2016

 --------------------------------------------
 #p opt UM062X/6-311+G** nosymm int=superfine
 --------------------------------------------

 -------------------
 Title Card Required
 -------------------
 Symbolic Z-matrix:
 Charge =  0 Multiplicity = 1

 SCF Done:  E(UM062X) =  -110.442713457     A.U. after   11 cycles
 SCF Done:  E(UM062X) =  -110.454387043     A.U. after   11 cycles
 SCF Done:  E(UM062X) =  -110.454725596     A.U. after   10 cycles
 Optimization completed.
    -- Stationary point found.

                          Input orientation:
 ---------------------------------------------------------------------
 Center     Atomic      Atomic             Coordinates (Angstroms)
 Number     Number       Type             X           Y           Z
 ---------------------------------------------------------------------
      1          7           0       -0.915428    0.000000    0.000000
      2          7           0        0.915428    0.000000    0.000000
      3          1           0       -0.958439   -1.030608    0.000000
      4          1           0        0.958439    1.030608    0.000000
 ---------------------------------------------------------------------

 Alpha  occ. eigenvalues --  -14.86988 -14.86973  -0.98474  -0.86438  -0.50711
 Alpha  occ. eigenvalues --   -0.47845  -0.39294  -0.36259
 Alpha virt. eigenvalues --   -0.13450  -0.01322   0.05884   0.08291   0.11614
 Alpha virt. eigenvalues --    0.12196   0.13028   0.15120   0.16433   0.18685
 Alpha virt. eigenvalues --    0.21639   0.26191   0.54084   0.57238   0.75414

  Beta  occ. eigenvalues --  -14.86988 -14.86973  -0.98474  -0.86438  -0.50711
  Beta  occ. eigenvalues --   -0.47845  -0.39294  -0.36259
  Beta virt. eigenvalues --   -0.13450  -0.01322   0.05884   0.08291   0.11614
  Beta virt. eigenvalues --    0.12196   0.13028   0.15120   0.16433   0.18685
  Beta virt. eigenvalues --    0.21639   0.26191   0.54084   0.57238   0.75414

 Mulliken charges and spin densities:
               1          2
     1  N   -0.250282  -0.000000
     2  N   -0.250282  -0.000000
     3  H    0.250282   0.000000
     4  H    0.250282   0.000000
 Sum of Mulliken charges =  -0.00000   0.00000

 Dipole moment (field-independent basis, Debye):
    X=              0.0000    Y=             -0.0000    Z=              0.0000  Tot=              0.0000
 Quadrupole moment (field-independent basis, Debye-Ang):
   XX=            -13.6854   YY=            -10.6417   ZZ=            -13.6528
   XY=              3.8944   XZ=              0.0000   YZ=              0.0000

 Normal termination of Gaussian 16 at Thu May 15 15:33:49 2025.
