 Gaussian 16, Revision A.03,
 Gaussian 16:  ES64L-G16RevA.03 25-Dec-2016

 --------------------------------------------
 #p opt UM062X/6-311+G** nosymm int=superfine
 --------------------------------------------

 -------------------
 Title Card Required
 -------------------
 Symbolic Z-matrix:
 Charge =  1 Multiplicity = 2

 SCF Done:  E(UM062X) =  -579.748047915     A.U. after   16 cycles
 SCF Done:  E(UM062X) =  -579.748244840     A.U. after   15 cycles
 SCF Done:  E(UM062X) =  -579.748248546     A.U. after   13 cycles
 SCF Done:  E(UM062X) =  -579.748242492     A.U. after   14 cycles
 SCF Done:  E(UM062X) =  -579.748247233     A.U. after   14 cycles
 SCF Done:  E(UM062X) =  -579.748248758     A.U. after   11 cycles
 SCF Done:  E(UM062X) =  -579.748249154     A.U. after   11 cycles
 SCF Done:  E(UM062X) =  -579.748249554     A.U. after   12 cycles
 SCF Done:  E(UM062X) =  -579.748249439     A.U. after   12 cycles
 SCF Done:  E(UM062X) =  -579.748249531     A.U. after   10 cycles
 Optimization completed.
    -- Stationary point found.

                          Input orientation:
 ---------------------------------------------------------------------
 Center     Atomic      Atomic             Coordinates (Angstroms)
 Number     Number       Type             X           Y           Z
 ---------------------------------------------------------------------
      1         14           0       -1.152975    0.000000    0.000000
      2         14           0        1.152975    0.000000    0.000000
      3          1           0        0.043599   -1.032992    0.727861
      4          1           0        2.491305   -0.548034    0.321599
 ---------------------------------------------------------------------

 Alpha  occ. eigenvalues --  -67.29797 -67.27617  -5.83860  -5.82189  -4.14880
 Alpha  occ. eigenvalues --   -4.14536  -4.14465  -4.13644  -4.13252  -4.12805
 Alpha  occ. eigenvalues --   -0.89146  -0.73694  -0.60314  -0.55241  -0.48680
 Alpha virt. eigenvalues --   -0.28187  -0.27498  -0.22381  -0.15616  -0.12116
 Alpha virt. eigenvalues --   -0.09085  -0.08890  -0.08867  -0.08558  -0.05824
 Alpha virt. eigenvalues --   -0.05738  -0.01808  -0.00715   0.06557   0.11738

  Beta  occ. eigenvalues --  -67.29571 -67.27289  -5.83810  -5.82095  -4.14499
  Beta  occ. eigenvalues --   -4.14429  -4.14210  -4.13158  -4.12790  -4.12701
  Beta  occ. eigenvalues --   -0.86789  -0.72631  -0.59483  -0.54061
  Beta virt. eigenvalues --   -0.33144  -0.27316  -0.23435  -0.21155  -0.15569
  Beta virt. eigenvalues --   -0.14310  -0.09527  -0.08676  -0.08524  -0.08459
  Beta virt. eigenvalues --   -0.05520  -0.04572  -0.02164  -0.00968   0.06539

 Mulliken charges and spin densities:
               1          2
     1  Si   0.658462   0.448332
     2  Si   0.402954   0.599968
     3  H   -0.121300  -0.023687
     4  H    0.059885  -0.024613
 Sum of Mulliken charges =   1.00000   1.00000

 Dipole moment (field-independent basis, Debye):
    X=              0.8054    Y=             -0.3139    Z=              0.1916  Tot=              0.8854
 Quadrupole moment (field-independent basis, Debye-Ang):
   XX=            -12.3605   YY=            -23.0445   ZZ=            -22.8872
   XY=             -0.1525   XZ=              0.1032   YZ=              0.1853

 Normal termination of Gaussian 16 at Tue Apr 22 01:54:59 2025.
