 Gaussian 16, Revision A.03,
 Gaussian 16:  ES64L-G16RevA.03 25-Dec-2016

 --------------------------------------------
 #p opt UM062X/6-311+G** nosymm int=superfine
 --------------------------------------------

 -------------------
 Title Card Required
 -------------------
 Symbolic Z-matrix:
 Charge = -1 Multiplicity = 2

 SCF Done:  E(UM062X) =  -53.2329606627     A.U. after   11 cycles
 SCF Done:  E(UM062X) =  -53.2332136825     A.U. after   10 cycles
 SCF Done:  E(UM062X) =  -53.2332572229     A.U. after    9 cycles
 Optimization completed.
    -- Stationary point found.

                          Input orientation:
 ---------------------------------------------------------------------
 Center     Atomic      Atomic             Coordinates (Angstroms)
 Number     Number       Type             X           Y           Z
 ---------------------------------------------------------------------
      1          5           0       -1.215672    0.000000    0.000000
      2          5           0        1.215672    0.000000    0.000000
      3          1           0        1.390248   -1.190851   -0.000003
      4          1           0       -1.390157   -0.595433    1.031316
      5          1           0        1.390286    0.595442   -1.031291
      6          1           0        1.390116    0.595420    1.031330
      7          1           0       -1.390255    1.190850    0.000008
      8          1           0       -1.390238   -0.595430   -1.031305
 ---------------------------------------------------------------------

 Alpha  occ. eigenvalues --   -6.81035  -6.81028  -0.39798  -0.34804  -0.20275
 Alpha  occ. eigenvalues --   -0.20275  -0.17334  -0.17334  -0.02699
 Alpha virt. eigenvalues --    0.16066   0.17234   0.17638   0.17638   0.19262
 Alpha virt. eigenvalues --    0.19262   0.20889   0.23307   0.27899   0.33088
 Alpha virt. eigenvalues --    0.33088   0.37580   0.37581   0.38963   0.41674

  Beta  occ. eigenvalues --   -6.80951  -6.80950  -0.37178  -0.33120  -0.19727
  Beta  occ. eigenvalues --   -0.19727  -0.17017  -0.17017
  Beta virt. eigenvalues --    0.13370   0.15147   0.17501   0.17501   0.18025
  Beta virt. eigenvalues --    0.18785   0.18785   0.22653   0.24360   0.33084
  Beta virt. eigenvalues --    0.33099   0.33099   0.37847   0.37847   0.39421

 Mulliken charges and spin densities:
               1          2
     1  B   -0.272818   0.587592
     2  B   -0.272818   0.587592
     3  H   -0.075726  -0.029195
     4  H   -0.075725  -0.029198
     5  H   -0.075733  -0.029201
     6  H   -0.075722  -0.029197
     7  H   -0.075727  -0.029195
     8  H   -0.075730  -0.029199
 Sum of Mulliken charges =  -1.00000   1.00000

 Dipole moment (field-independent basis, Debye):
    X=             -0.0000    Y=              0.0000    Z=             -0.0000  Tot=              0.0000
 Quadrupole moment (field-independent basis, Debye-Ang):
   XX=            -32.4457   YY=            -23.9795   ZZ=            -23.9795
   XY=             -0.0000   XZ=              0.0000   YZ=              0.0000

 Normal termination of Gaussian 16 at Mon Apr 21 16:51:52 2025.
