 Gaussian 16, Revision A.03,
 Gaussian 16:  ES64L-G16RevA.03 25-Dec-2016

 --------------------------------------------
 #p opt UM062X/6-311+G** nosymm int=superfine
 --------------------------------------------

 -------------------
 Title Card Required
 -------------------
 Symbolic Z-matrix:
 Charge =  1 Multiplicity = 2

 SCF Done:  E(UM062X) =  -80.2968175533     A.U. after   14 cycles
 SCF Done:  E(UM062X) =  -80.2968808479     A.U. after   11 cycles
 SCF Done:  E(UM062X) =  -80.2968808517     A.U. after    7 cycles
 SCF Done:  E(UM062X) =  -80.2968808864     A.U. after    7 cycles
 Optimization completed.
    -- Stationary point found.

                          Input orientation:
 ---------------------------------------------------------------------
 Center     Atomic      Atomic             Coordinates (Angstroms)
 Number     Number       Type             X           Y           Z
 ---------------------------------------------------------------------
      1          5           0       -0.827734    0.000000    0.000000
      2          7           0        0.827734    0.000000    0.000000
      3          1           0       -2.004535    0.000206   -0.000000
      4          1           0        1.851745    0.000647    0.000000
 ---------------------------------------------------------------------

 Alpha  occ. eigenvalues --  -15.09921  -7.51464  -1.21743  -0.90053  -0.82319
 Alpha  occ. eigenvalues --   -0.68724  -0.64516
 Alpha virt. eigenvalues --   -0.30728  -0.29698  -0.24210  -0.14186  -0.10885
 Alpha virt. eigenvalues --   -0.10291  -0.09883  -0.09235  -0.01691  -0.01369
 Alpha virt. eigenvalues --    0.03753   0.05624   0.09321   0.17303   0.17761

  Beta  occ. eigenvalues --  -15.08731  -7.51544  -1.14751  -0.88781  -0.81505
  Beta  occ. eigenvalues --   -0.60500
  Beta virt. eigenvalues --   -0.39370  -0.29686  -0.25680  -0.23365  -0.14197
  Beta virt. eigenvalues --   -0.10913  -0.09950  -0.09721  -0.09140  -0.01585
  Beta virt. eigenvalues --   -0.01196   0.02153   0.05664   0.09897   0.16407

 Mulliken charges and spin densities:
               1          2
     1  B    0.630355  -0.029981
     2  N   -0.253644   1.070415
     3  H    0.210752  -0.008217
     4  H    0.412537  -0.032217
 Sum of Mulliken charges =   1.00000   1.00000

 Dipole moment (field-independent basis, Debye):
    X=             -1.4974    Y=              0.0009    Z=              0.0000  Tot=              1.4974
 Quadrupole moment (field-independent basis, Debye-Ang):
   XX=              1.1500   YY=             -9.7323   ZZ=            -11.6679
   XY=              0.0022   XZ=              0.0000   YZ=             -0.0002

 Normal termination of Gaussian 16 at Mon Apr 21 17:50:38 2025.
