 Gaussian 16, Revision A.03,
 Gaussian 16:  ES64L-G16RevA.03 25-Dec-2016

 ---------------------------------------------------
 #p UM062X/6-311+G** force int=superfine pop=saveNBO
 ---------------------------------------------------

 -------------------
 Title Card Required
 -------------------
 Symbolic Z-matrix:
 Charge =  0 Multiplicity = 1

                         Standard orientation:
 ---------------------------------------------------------------------
 Center     Atomic      Atomic             Coordinates (Angstroms)
 Number     Number       Type             X           Y           Z
 ---------------------------------------------------------------------
      1         16           0        0.000000    0.000000    1.450200
      2         16           0        0.000000    0.000000   -1.450200
 ---------------------------------------------------------------------

 SCF Done:  E(UM062X) =  -796.144465239     A.U. after    9 cycles

 Unable to determine electronic state:  partially filled degenerate orbitals.
 Alpha  occ. eigenvalues --  -89.99204 -89.99204  -8.34869  -8.34867  -6.26902
 Alpha  occ. eigenvalues --   -6.26902  -6.26894  -6.26894  -6.26054  -6.26054
 Alpha  occ. eigenvalues --   -0.80115  -0.76065  -0.37669  -0.36033  -0.33548
 Alpha  occ. eigenvalues --   -0.33295
 Alpha virt. eigenvalues --   -0.21594  -0.16452   0.03128   0.03801   0.04952
 Alpha virt. eigenvalues --    0.05500   0.07323   0.07491   0.07782   0.13755
 Alpha virt. eigenvalues --    0.31416   0.31864   0.32828   0.36235   0.37122

  Beta  occ. eigenvalues --  -89.99204 -89.99204  -8.34869  -8.34867  -6.26902
  Beta  occ. eigenvalues --   -6.26902  -6.26894  -6.26894  -6.26054  -6.26054
  Beta  occ. eigenvalues --   -0.80115  -0.76065  -0.37669  -0.36033  -0.33548
  Beta  occ. eigenvalues --   -0.33295
  Beta virt. eigenvalues --   -0.21594  -0.16452   0.03128   0.03801   0.04952
  Beta virt. eigenvalues --    0.05500   0.07323   0.07491   0.07782   0.13755
  Beta virt. eigenvalues --    0.31416   0.31864   0.32828   0.36235   0.37122

 Mulliken charges and spin densities:
               1          2
     1  S   -0.000000  -0.000000
     2  S   -0.000000  -0.000000
 Sum of Mulliken charges =  -0.00000  -0.00000

 Dipole moment (field-independent basis, Debye):
    X=             -0.0000    Y=             -0.0000    Z=             -0.0000  Tot=              0.0000
 Quadrupole moment (field-independent basis, Debye-Ang):
   XX=            -25.2843   YY=            -30.1720   ZZ=            -22.9531
   XY=              0.0000   XZ=             -0.0000   YZ=              0.0000

 Summary of Natural Population Analysis:

                                       Natural Population
                Natural  -----------------------------------------------
    Atom  No    Charge         Core      Valence    Rydberg      Total
 -----------------------------------------------------------------------
      S    1   -0.00000      4.99999     2.99858    0.00143     8.00000
      S    2   -0.00000      4.99999     2.99858    0.00143     8.00000
 =======================================================================
   * Total *   -0.00000      9.99998     5.99715    0.00286    16.00000

 Normal termination of Gaussian 16 at Mon Apr 21 20:05:50 2025.
