 Gaussian 16, Revision A.03,
 Gaussian 16:  ES64L-G16RevA.03 25-Dec-2016

 --------------------------------------------
 #p opt UM062X/6-311+G** nosymm int=superfine
 --------------------------------------------

 -------------------
 Title Card Required
 -------------------
 Symbolic Z-matrix:
 Charge =  1 Multiplicity = 2

 SCF Done:  E(UM062X) =  -80.2183557848     A.U. after   18 cycles
 SCF Done:  E(UM062X) =  -80.2392168560     A.U. after   15 cycles
 SCF Done:  E(UM062X) =  -80.2514666230     A.U. after   14 cycles
 SCF Done:  E(UM062X) =  -80.2518510317     A.U. after   13 cycles
 SCF Done:  E(UM062X) =  -80.2518957698     A.U. after   12 cycles
 SCF Done:  E(UM062X) =  -80.2524843279     A.U. after   13 cycles
 SCF Done:  E(UM062X) =  -80.2405544678     A.U. after   16 cycles
 SCF Done:  E(UM062X) =  -80.2528945841     A.U. after   16 cycles
 SCF Done:  E(UM062X) =  -80.2525080925     A.U. after   16 cycles
 SCF Done:  E(UM062X) =  -80.2528674046     A.U. after   13 cycles
 SCF Done:  E(UM062X) =  -80.2529620047     A.U. after   13 cycles
 SCF Done:  E(UM062X) =  -80.2530178336     A.U. after   15 cycles
 SCF Done:  E(UM062X) =  -80.2530186497     A.U. after   13 cycles
 SCF Done:  E(UM062X) =  -80.2530186608     A.U. after    9 cycles
 Optimization completed.
    -- Stationary point found.

                          Input orientation:
 ---------------------------------------------------------------------
 Center     Atomic      Atomic             Coordinates (Angstroms)
 Number     Number       Type             X           Y           Z
 ---------------------------------------------------------------------
      1          5           0       -0.977734    0.000000    0.000000
      2          7           0        0.977734    0.000000   -0.000000
      3          1           0       -2.143604    0.210668    0.074675
      4          1           0        1.162446   -0.966847   -0.343179
 ---------------------------------------------------------------------

 Alpha  occ. eigenvalues --  -15.10417  -7.51799  -1.20197  -0.86708  -0.75660
 Alpha  occ. eigenvalues --   -0.67379  -0.66474
 Alpha virt. eigenvalues --   -0.33006  -0.32316  -0.27639  -0.15132  -0.12074
 Alpha virt. eigenvalues --   -0.10247  -0.09577  -0.05416  -0.02165  -0.01120
 Alpha virt. eigenvalues --    0.00101   0.03521   0.06422   0.16424   0.16833

  Beta  occ. eigenvalues --  -15.09137  -7.51998  -1.12852  -0.87037  -0.73450
  Beta  occ. eigenvalues --   -0.63859
  Beta virt. eigenvalues --   -0.36962  -0.33514  -0.27670  -0.25522  -0.15114
  Beta virt. eigenvalues --   -0.11994  -0.09765  -0.09701  -0.05668  -0.02281
  Beta virt. eigenvalues --   -0.01188   0.00154   0.02552   0.04314   0.16412

 Mulliken charges and spin densities:
               1          2
     1  B    0.544518  -0.126394
     2  N   -0.015992   1.192301
     3  H    0.196507  -0.023315
     4  H    0.274966  -0.042592
 Sum of Mulliken charges =   1.00000   1.00000

 Dipole moment (field-independent basis, Debye):
    X=             -3.8227    Y=             -1.4842    Z=             -0.5268  Tot=              4.1344
 Quadrupole moment (field-independent basis, Debye-Ang):
   XX=             -2.6201   YY=             -9.0555   ZZ=             -9.9043
   XY=             -2.5186   XZ=             -0.8939   YZ=              0.3447

 Normal termination of Gaussian 16 at Mon Apr 21 18:52:26 2025.
