 Gaussian 16, Revision A.03,
 Gaussian 16:  ES64L-G16RevA.03 25-Dec-2016

 --------------------------------------------
 #p opt UM062X/6-311+G** nosymm int=superfine
 --------------------------------------------

 -------------------
 Title Card Required
 -------------------
 Symbolic Z-matrix:
 Charge =  1 Multiplicity = 2

 SCF Done:  E(UM062X) =  -580.916769047     A.U. after   11 cycles
 SCF Done:  E(UM062X) =  -580.917108320     A.U. after    9 cycles
 SCF Done:  E(UM062X) =  -580.917225431     A.U. after   10 cycles
 SCF Done:  E(UM062X) =  -580.917172579     A.U. after   13 cycles
 SCF Done:  E(UM062X) =  -580.917226329     A.U. after   13 cycles
 Optimization completed.
    -- Stationary point found.

                          Input orientation:
 ---------------------------------------------------------------------
 Center     Atomic      Atomic             Coordinates (Angstroms)
 Number     Number       Type             X           Y           Z
 ---------------------------------------------------------------------
      1         14           0       -1.491295    0.000000    0.000000
      2         14           0        1.491295    0.000000    0.000000
      3          1           0       -2.180744   -1.296273   -0.000190
      4          1           0        2.180745    1.296272    0.000442
      5          1           0       -2.180746    1.296271    0.001118
      6          1           0        2.180747   -1.296271   -0.000758
 ---------------------------------------------------------------------

 Alpha  occ. eigenvalues --  -67.26803 -67.26803  -5.81113  -5.81111  -4.12756
 Alpha  occ. eigenvalues --   -4.12755  -4.12081  -4.12076  -4.11921  -4.11921
 Alpha  occ. eigenvalues --   -0.82098  -0.79242  -0.64149  -0.63397  -0.53520
 Alpha  occ. eigenvalues --   -0.42913
 Alpha virt. eigenvalues --   -0.30008  -0.27110  -0.13972  -0.13342  -0.11612
 Alpha virt. eigenvalues --   -0.10724  -0.09094  -0.08985  -0.07740  -0.07012
 Alpha virt. eigenvalues --   -0.06853  -0.05638  -0.01718   0.01312   0.12111

  Beta  occ. eigenvalues --  -67.26512 -67.26512  -5.81027  -5.81027  -4.12042
  Beta  occ. eigenvalues --   -4.12041  -4.12013  -4.12007  -4.11816  -4.11815
  Beta  occ. eigenvalues --   -0.80186  -0.77786  -0.64124  -0.63476  -0.52654
  Beta virt. eigenvalues --   -0.28928  -0.24967  -0.24562  -0.14374  -0.13849
  Beta virt. eigenvalues --   -0.11867  -0.11246  -0.09480  -0.08767  -0.07278
  Beta virt. eigenvalues --   -0.06747  -0.06686  -0.03871  -0.03427   0.01059

 Mulliken charges and spin densities:
               1          2
     1  Si   0.437334   0.554169
     2  Si   0.437334   0.554165
     3  H    0.031333  -0.027084
     4  H    0.031333  -0.027084
     5  H    0.031333  -0.027084
     6  H    0.031333  -0.027084
 Sum of Mulliken charges =   1.00000   1.00000

 Dipole moment (field-independent basis, Debye):
    X=              0.0000    Y=             -0.0000    Z=             -0.0001  Tot=              0.0001
 Quadrupole moment (field-independent basis, Debye-Ang):
   XX=             -8.4180   YY=            -23.6710   ZZ=            -24.7529
   XY=             -0.0000   XZ=              0.0001   YZ=              0.0005

 Normal termination of Gaussian 16 at Mon Apr 21 20:18:33 2025.
