 Gaussian 16, Revision A.03,
 Gaussian 16:  ES64L-G16RevA.03 25-Dec-2016

 --------------------------------------------
 #p opt UM062X/6-311+G** nosymm int=superfine
 --------------------------------------------

 -------------------
 Title Card Required
 -------------------
 Symbolic Z-matrix:
 Charge =  1 Multiplicity = 2

 SCF Done:  E(UM062X) =  -92.5736122360     A.U. after   18 cycles
 SCF Done:  E(UM062X) =  -92.5739478051     A.U. after   10 cycles
 Optimization completed.
    -- Stationary point found.

                          Input orientation:
 ---------------------------------------------------------------------
 Center     Atomic      Atomic             Coordinates (Angstroms)
 Number     Number       Type             X           Y           Z
 ---------------------------------------------------------------------
      1          6           0       -2.076539    0.000000    0.000000
      2          7           0        2.076539    0.000000    0.000000
      3          1           0       -3.194052    0.000000    0.000000
 ---------------------------------------------------------------------

 Alpha  occ. eigenvalues --  -15.20084 -10.97899  -1.15685  -0.98957  -0.70778
 Alpha  occ. eigenvalues --   -0.67628  -0.65345
 Alpha virt. eigenvalues --   -0.41180  -0.34199  -0.32751  -0.13656  -0.10042
 Alpha virt. eigenvalues --   -0.07654  -0.06873  -0.04150  -0.02083  -0.01927
 Alpha virt. eigenvalues --   -0.01526   0.06318   0.25593   0.35291   0.35542

  Beta  occ. eigenvalues --  -15.17531 -10.98260  -1.04083  -1.01061  -0.66514
  Beta  occ. eigenvalues --   -0.49692
  Beta virt. eigenvalues --   -0.42856  -0.37818  -0.36026  -0.33082  -0.13436
  Beta virt. eigenvalues --   -0.10316  -0.08229  -0.07919  -0.04755  -0.02747
  Beta virt. eigenvalues --   -0.01945  -0.01541   0.04633   0.26257   0.34915

 Mulliken charges and spin densities:
               1          2
     1  C    0.323405  -0.450604
     2  N    0.436437   1.436023
     3  H    0.240157   0.014581
 Sum of Mulliken charges =   1.00000   1.00000

 Dipole moment (field-independent basis, Debye):
    X=             -3.4137    Y=              0.0000    Z=              0.0000  Tot=              3.4137
 Quadrupole moment (field-independent basis, Debye-Ang):
   XX=             21.1731   YY=            -10.2717   ZZ=            -10.3882
   XY=              0.0000   XZ=              0.0000   YZ=             -0.9019

 Normal termination of Gaussian 16 at Mon Apr 21 18:37:59 2025.
