 Gaussian 16, Revision A.03,
 Gaussian 16:  ES64L-G16RevA.03 25-Dec-2016

 --------------------------------------------
 #p opt UM062X/6-311+G** nosymm int=superfine
 --------------------------------------------

 -------------------
 Title Card Required
 -------------------
 Symbolic Z-matrix:
 Charge =  0 Multiplicity = 1

 SCF Done:  E(UM062X) =  -582.483595903     A.U. after    9 cycles
 SCF Done:  E(UM062X) =  -582.484203074     A.U. after    8 cycles
 SCF Done:  E(UM062X) =  -582.484279860     A.U. after    7 cycles
 Optimization completed.
    -- Stationary point found.

                          Input orientation:
 ---------------------------------------------------------------------
 Center     Atomic      Atomic             Coordinates (Angstroms)
 Number     Number       Type             X           Y           Z
 ---------------------------------------------------------------------
      1         14           0       -1.494819    0.000000    0.000000
      2         14           0        1.494819    0.000000    0.000000
      3          1           0        1.960593   -1.402391   -0.000052
      4          1           0       -1.960651   -0.701038    1.214587
      5          1           0        1.960735    0.701201   -1.214460
      6          1           0        1.960655    0.701089    1.214555
      7          1           0       -1.960595    1.402390   -0.000112
      8          1           0       -1.960737   -0.701254   -1.214428
 ---------------------------------------------------------------------

 Alpha  occ. eigenvalues --  -67.00592 -67.00592  -5.55454  -5.55453  -3.86634
 Alpha  occ. eigenvalues --   -3.86629  -3.86526  -3.86526  -3.86526  -3.86526
 Alpha  occ. eigenvalues --   -0.61653  -0.59222  -0.41576  -0.41575  -0.40665
 Alpha  occ. eigenvalues --   -0.40664  -0.28879
 Alpha virt. eigenvalues --   -0.02248   0.02067   0.02996   0.02996   0.04548
 Alpha virt. eigenvalues --    0.04653   0.05576   0.05576   0.06462   0.06462
 Alpha virt. eigenvalues --    0.08282   0.09147   0.09148   0.15219   0.17497

  Beta  occ. eigenvalues --  -67.00592 -67.00592  -5.55454  -5.55453  -3.86634
  Beta  occ. eigenvalues --   -3.86629  -3.86526  -3.86526  -3.86526  -3.86526
  Beta  occ. eigenvalues --   -0.61653  -0.59222  -0.41576  -0.41575  -0.40665
  Beta  occ. eigenvalues --   -0.40664  -0.28879
  Beta virt. eigenvalues --   -0.02248   0.02067   0.02996   0.02996   0.04548
  Beta virt. eigenvalues --    0.04653   0.05576   0.05576   0.06462   0.06462
  Beta virt. eigenvalues --    0.08282   0.09147   0.09148   0.15219   0.17497

 Mulliken charges and spin densities:
               1          2
     1  Si   0.294887  -0.000000
     2  Si   0.294887   0.000000
     3  H   -0.098298   0.000000
     4  H   -0.098295  -0.000000
     5  H   -0.098294   0.000000
     6  H   -0.098295   0.000000
     7  H   -0.098298   0.000000
     8  H   -0.098294  -0.000000
 Sum of Mulliken charges =  -0.00000   0.00000

 Dipole moment (field-independent basis, Debye):
    X=              0.0000    Y=              0.0000    Z=             -0.0000  Tot=              0.0000
 Quadrupole moment (field-independent basis, Debye-Ang):
   XX=            -31.1216   YY=            -31.6529   ZZ=            -31.6528
   XY=              0.0004   XZ=              0.0000   YZ=              0.0000

 Normal termination of Gaussian 16 at Mon Apr 21 20:19:28 2025.
