 Gaussian 16, Revision A.03,
 Gaussian 16:  ES64L-G16RevA.03 25-Dec-2016

 --------------------------------------------
 #p opt UM062X/6-311+G** nosymm int=superfine
 --------------------------------------------

 -------------------
 Title Card Required
 -------------------
 Symbolic Z-matrix:
 Charge =  0 Multiplicity = 1

 SCF Done:  E(UM062X) =  -77.3143781959     A.U. after    9 cycles
 SCF Done:  E(UM062X) =  -77.3150439296     A.U. after    8 cycles
 SCF Done:  E(UM062X) =  -77.3150474373     A.U. after    6 cycles
 Optimization completed.
    -- Stationary point found.

                          Input orientation:
 ---------------------------------------------------------------------
 Center     Atomic      Atomic             Coordinates (Angstroms)
 Number     Number       Type             X           Y           Z
 ---------------------------------------------------------------------
      1          6           0       -0.586545    0.000000    0.000000
      2          6           0        0.586545    0.000000    0.000000
      3          1           0       -1.650491    0.000000   -0.000000
      4          1           0        1.650491    0.000000   -0.000000
 ---------------------------------------------------------------------

 Alpha  occ. eigenvalues --  -10.54100 -10.53763  -0.85945  -0.64379  -0.56819
 Alpha  occ. eigenvalues --   -0.36248  -0.36248
 Alpha virt. eigenvalues --    0.02644   0.02916   0.05039   0.05039   0.07574
 Alpha virt. eigenvalues --    0.07574   0.09308   0.15350   0.15350   0.15991
 Alpha virt. eigenvalues --    0.20177   0.24496   0.40823   0.44616   0.56517

  Beta  occ. eigenvalues --  -10.54100 -10.53763  -0.85945  -0.64379  -0.56819
  Beta  occ. eigenvalues --   -0.36248  -0.36248
  Beta virt. eigenvalues --    0.02644   0.02916   0.05039   0.05039   0.07574
  Beta virt. eigenvalues --    0.07574   0.09308   0.15350   0.15350   0.15991
  Beta virt. eigenvalues --    0.20177   0.24496   0.40823   0.44616   0.56517

 Mulliken charges and spin densities:
               1          2
     1  C   -0.169510   0.000000
     2  C   -0.169509  -0.000000
     3  H    0.169509  -0.000000
     4  H    0.169509  -0.000000
 Sum of Mulliken charges =  -0.00000   0.00000

 Dipole moment (field-independent basis, Debye):
    X=              0.0000    Y=              0.0000    Z=             -0.0000  Tot=              0.0000
 Quadrupole moment (field-independent basis, Debye-Ang):
   XX=             -6.9646   YY=            -13.6753   ZZ=            -13.6753
   XY=             -0.0000   XZ=              0.0000   YZ=             -0.0000

 Normal termination of Gaussian 16 at Tue Dec  3 20:02:43 2024.
