 Gaussian 16, Revision A.03,
 Gaussian 16:  ES64L-G16RevA.03 25-Dec-2016

 ----------------------------------------------------------------------
 #p opt UM062X/6-311+G** nosymm int=superfine SCF=(MaxCycle=200,NoVarAc
 c,noincfock) guess=read
 ----------------------------------------------------------------------

 -------------------
 Title Card Required
 -------------------
 Symbolic Z-matrix:
 Charge =  1 Multiplicity = 2

 SCF Done:  E(UM062X) =  -379.303543290     A.U. after   28 cycles
 SCF Done:  E(UM062X) =  -379.304234240     A.U. after  137 cycles
 SCF Done:  E(UM062X) =  -379.304235289     A.U. after   32 cycles
 SCF Done:  E(UM062X) =  -379.304235569     A.U. after   27 cycles
 SCF Done:  E(UM062X) =  -379.304235432     A.U. after   29 cycles
 SCF Done:  E(UM062X) =  -379.304235558     A.U. after   29 cycles
 Optimization completed.
    -- Stationary point found.

                          Input orientation:
 ---------------------------------------------------------------------
 Center     Atomic      Atomic             Coordinates (Angstroms)
 Number     Number       Type             X           Y           Z
 ---------------------------------------------------------------------
      1          6           0       -1.619427    0.000000    0.000000
      2         15           0        1.619427    0.000000    0.000000
      3          1           0       -2.738433   -0.000384    0.001941
 ---------------------------------------------------------------------

 Alpha  occ. eigenvalues --  -78.34331 -10.98771  -7.15803  -5.27791  -5.27567
 Alpha  occ. eigenvalues --   -5.26421  -1.01246  -0.86603  -0.67290  -0.50131
 Alpha  occ. eigenvalues --   -0.48274
 Alpha virt. eigenvalues --   -0.40296  -0.37833  -0.34702  -0.13524  -0.09898
 Alpha virt. eigenvalues --   -0.08428  -0.08391  -0.06913  -0.05557  -0.05367
 Alpha virt. eigenvalues --   -0.01954   0.00746   0.15665   0.15973   0.17090

  Beta  occ. eigenvalues --  -78.33806 -10.98605  -7.15680  -5.27428  -5.26317
  Beta  occ. eigenvalues --   -5.26253  -0.99663  -0.82812  -0.66521  -0.47084
  Beta virt. eigenvalues --   -0.36536  -0.34675  -0.33519  -0.31352  -0.14269
  Beta virt. eigenvalues --   -0.10922  -0.08699  -0.08594  -0.07252  -0.05476
  Beta virt. eigenvalues --   -0.05149  -0.02869   0.01358   0.13271   0.15547

 Mulliken charges and spin densities:
               1          2
     1  C    0.198553   0.311022
     2  P    0.534059   0.698633
     3  H    0.267388  -0.009654
 Sum of Mulliken charges =   1.00000   1.00000

 Dipole moment (field-independent basis, Debye):
    X=             -1.7536    Y=             -0.0009    Z=              0.0036  Tot=              1.7536
 Quadrupole moment (field-independent basis, Debye-Ang):
   XX=              7.0641   YY=            -17.4605   ZZ=            -19.3061
   XY=             -0.0003   XZ=              0.0071   YZ=              1.4921

 Normal termination of Gaussian 16 at Mon Apr 21 23:53:19 2025.
