 Gaussian 16, Revision A.03,
 Gaussian 16:  ES64L-G16RevA.03 25-Dec-2016

 ---------------------------------------------------
 #p UM062X/6-311+G** force int=superfine pop=saveNBO
 ---------------------------------------------------

 -------------------
 Title Card Required
 -------------------
 Symbolic Z-matrix:
 Charge =  0 Multiplicity = 1

                         Standard orientation:
 ---------------------------------------------------------------------
 Center     Atomic      Atomic             Coordinates (Angstroms)
 Number     Number       Type             X           Y           Z
 ---------------------------------------------------------------------
      1          6           0        0.000000    0.000000   -3.038976
      2         16           0        0.000000    0.000000    1.139616
 ---------------------------------------------------------------------

 SCF Done:  E(UM062X) =  -435.730234033     A.U. after   19 cycles

 The electronic state is 1-SG.
 Alpha  occ. eigenvalues --  -89.93102 -10.82503  -8.28954  -6.20737  -6.20737
 Alpha  occ. eigenvalues --   -6.20700  -0.72803  -0.71244  -0.28789  -0.27894
 Alpha  occ. eigenvalues --   -0.27894
 Alpha virt. eigenvalues --   -0.20905  -0.20905  -0.19721   0.02454   0.05620
 Alpha virt. eigenvalues --    0.05623   0.05623   0.08289   0.08313   0.08313
 Alpha virt. eigenvalues --    0.13238   0.35763   0.36611   0.36611   0.51174

  Beta  occ. eigenvalues --  -89.93102 -10.82503  -8.28954  -6.20737  -6.20737
  Beta  occ. eigenvalues --   -6.20700  -0.72803  -0.71244  -0.28789  -0.27894
  Beta  occ. eigenvalues --   -0.27894
  Beta virt. eigenvalues --   -0.20905  -0.20905  -0.19721   0.02454   0.05620
  Beta virt. eigenvalues --    0.05623   0.05623   0.08289   0.08313   0.08313
  Beta virt. eigenvalues --    0.13238   0.35763   0.36611   0.36611   0.51174

 Mulliken charges and spin densities:
               1          2
     1  C    0.219108   0.000000
     2  S   -0.219108  -0.000000
 Sum of Mulliken charges =  -0.00000   0.00000

 Dipole moment (field-independent basis, Debye):
    X=              0.0000    Y=              0.0000    Z=             -4.4178  Tot=              4.4178
 Quadrupole moment (field-independent basis, Debye-Ang):
   XX=            -20.9058   YY=            -20.9058   ZZ=            -10.0136
   XY=              0.0000   XZ=              0.0000   YZ=              0.0000

 Summary of Natural Population Analysis:

                                       Natural Population
                Natural  -----------------------------------------------
    Atom  No    Charge         Core      Valence    Rydberg      Total
 -----------------------------------------------------------------------
      C    1    0.12207      1.00000     1.87752    0.00041     2.87793
      S    2   -0.12207      5.00000     3.12186    0.00021     8.12207
 =======================================================================
   * Total *   -0.00000      6.00000     4.99938    0.00062    11.00000

 Normal termination of Gaussian 16 at Mon Apr 21 19:41:21 2025.
