 Gaussian 16, Revision A.03,
 Gaussian 16:  ES64L-G16RevA.03 25-Dec-2016

 --------------------------------------------
 #p opt UM062X/6-311+G** nosymm int=superfine
 --------------------------------------------

 -------------------
 Title Card Required
 -------------------
 Symbolic Z-matrix:
 Charge =  0 Multiplicity = 1

 SCF Done:  E(UM062X) =  -83.1210226781     A.U. after   10 cycles
 SCF Done:  E(UM062X) =  -83.1368388283     A.U. after    9 cycles
 SCF Done:  E(UM062X) =  -83.1404231177     A.U. after    9 cycles
 SCF Done:  E(UM062X) =  -83.1404501193     A.U. after    7 cycles
 Optimization completed.
    -- Stationary point found.

                          Input orientation:
 ---------------------------------------------------------------------
 Center     Atomic      Atomic             Coordinates (Angstroms)
 Number     Number       Type             X           Y           Z
 ---------------------------------------------------------------------
      1          5           0       -2.002429    0.000000    0.000000
      2          7           0        2.002429    0.000000    0.000000
      3          1           0        2.366945   -0.945116    0.000002
      4          1           0       -2.013503   -0.593909    1.028649
      5          1           0        2.366841    0.472607   -0.818517
      6          1           0        2.366828    0.472606    0.818523
      7          1           0       -2.013522    1.187787    0.000013
      8          1           0       -2.013520   -0.593889   -1.028660
 ---------------------------------------------------------------------

 Alpha  occ. eigenvalues --  -14.72815  -7.04326  -0.96098  -0.57569  -0.53926
 Alpha  occ. eigenvalues --   -0.53926  -0.39984  -0.39984  -0.34174
 Alpha virt. eigenvalues --   -0.02182   0.02621   0.04767   0.04767   0.05021
 Alpha virt. eigenvalues --    0.08531   0.10679   0.10679   0.17183   0.17980
 Alpha virt. eigenvalues --    0.17980   0.19093   0.19093   0.22372   0.27290

  Beta  occ. eigenvalues --  -14.72815  -7.04326  -0.96098  -0.57569  -0.53926
  Beta  occ. eigenvalues --   -0.53926  -0.39984  -0.39984  -0.34174
  Beta virt. eigenvalues --   -0.02182   0.02621   0.04767   0.04767   0.05021
  Beta virt. eigenvalues --    0.08531   0.10679   0.10679   0.17183   0.17980
  Beta virt. eigenvalues --    0.17980   0.19093   0.19093   0.22372   0.27290

 Mulliken charges and spin densities:
               1          2
     1  B    0.020818  -0.000000
     2  N   -0.730133  -0.000000
     3  H    0.244827  -0.000000
     4  H   -0.008388  -0.000000
     5  H    0.244827   0.000000
     6  H    0.244827   0.000000
     7  H   -0.008391   0.000000
     8  H   -0.008388  -0.000000
 Sum of Mulliken charges =  -0.00000  -0.00000

 Dipole moment (field-independent basis, Debye):
    X=              1.9221    Y=              0.0002    Z=              0.0000  Tot=              1.9221
 Quadrupole moment (field-independent basis, Debye-Ang):
   XX=             -9.7797   YY=            -15.6363   ZZ=            -15.6364
   XY=              0.0001   XZ=             -0.0000   YZ=              0.0000

 Normal termination of Gaussian 16 at Mon Apr 21 17:40:12 2025.
