 Gaussian 16, Revision A.03,
 Gaussian 16:  ES64L-G16RevA.03 25-Dec-2016

 --------------------------------------------
 #p opt UM062X/6-311+G** nosymm int=superfine
 --------------------------------------------

 -------------------
 Title Card Required
 -------------------
 Symbolic Z-matrix:
 Charge =  0 Multiplicity = 3

 SCF Done:  E(UM062X) =  -50.5061691479     A.U. after   13 cycles
 SCF Done:  E(UM062X) =  -50.5071147588     A.U. after   10 cycles
 SCF Done:  E(UM062X) =  -50.5071219040     A.U. after    8 cycles
 Optimization completed.
    -- Stationary point found.

                          Input orientation:
 ---------------------------------------------------------------------
 Center     Atomic      Atomic             Coordinates (Angstroms)
 Number     Number       Type             X           Y           Z
 ---------------------------------------------------------------------
      1          5           0       -1.578410    0.000000    0.000000
      2          5           0        1.578410    0.000000    0.000000
      3          1           0       -2.784390   -0.000082    0.000000
      4          1           0        2.784390    0.000082   -0.000000
 ---------------------------------------------------------------------

 Alpha  occ. eigenvalues --   -7.13877  -7.13876  -0.56688  -0.56150  -0.35090
 Alpha  occ. eigenvalues --   -0.27587  -0.18715
 Alpha virt. eigenvalues --   -0.08387  -0.06718  -0.04473   0.02635   0.02752
 Alpha virt. eigenvalues --    0.06006   0.07190   0.07233   0.08132   0.08251
 Alpha virt. eigenvalues --    0.12059   0.18932   0.22832   0.35523   0.39098

  Beta  occ. eigenvalues --   -7.12945  -7.12943  -0.53285  -0.52954  -0.26396
  Beta virt. eigenvalues --   -0.07477  -0.04881  -0.04383  -0.02138  -0.01716
  Beta virt. eigenvalues --    0.01678   0.02646   0.06944   0.07112   0.07339
  Beta virt. eigenvalues --    0.08441   0.09537   0.09782   0.20145   0.24106

 Mulliken charges and spin densities:
               1          2
     1  B   -0.067050   0.915939
     2  B   -0.067050   0.915939
     3  H    0.067050   0.084061
     4  H    0.067050   0.084061
 Sum of Mulliken charges =  -0.00000   2.00000

 Dipole moment (field-independent basis, Debye):
    X=             -0.0000    Y=              0.0000    Z=             -0.0000  Tot=              0.0000
 Quadrupole moment (field-independent basis, Debye-Ang):
   XX=             -9.9918   YY=            -13.5382   ZZ=            -17.5952
   XY=              0.0000   XZ=             -0.0000   YZ=             -0.0009

 1\1\GINC-NODE06\FOpt\UM062X\6-311+G(d,p)\B2H2(3)\SZHAO\21-Apr-2025\0\\
 #p opt UM062X/6-311+G** nosymm int=superfine\\Title Card Required\\0,3
 \B,-1.57841047,0.,0.\B,1.57841047,0.,0.\H,-2.784389513,-0.0000822398,0
 .0000000177\H,2.7843895124,0.00008224,-0.0000000177\\Version=ES64L-G16
 RevA.03\HF=-50.5071219\S2=2.012852\S2-1=0.\S2A=2.000012\RMSD=3.036e-09
 \RMSF=7.325e-07\Dipole=-0.0000015,0.,0.\Quadrupole=2.7631798,0.1265166
 ,-2.8896964,0.0000264,0.,-0.0006471\PG=C*V [C*(H1B1B1H1)]\\@

 Normal termination of Gaussian 16 at Mon Apr 21 17:28:48 2025.
