 Gaussian 16, Revision A.03,
 Gaussian 16:  ES64L-G16RevA.03 25-Dec-2016

 --------------------------------------------
 #p opt UM062X/6-311+G** nosymm int=superfine
 --------------------------------------------

 -------------------
 Title Card Required
 -------------------
 Symbolic Z-matrix:
 Charge =  0 Multiplicity = 1

 SCF Done:  E(UM062X) =  -110.189148891     A.U. after   13 cycles
 SCF Done:  E(UM062X) =  -110.192205544     A.U. after   13 cycles
 SCF Done:  E(UM062X) =  -110.196987212     A.U. after   17 cycles
 SCF Done:  E(UM062X) =  -110.197913683     A.U. after   16 cycles
 SCF Done:  E(UM062X) =  -110.197915429     A.U. after   11 cycles
 Optimization completed.
    -- Stationary point found.

                          Input orientation:
 ---------------------------------------------------------------------
 Center     Atomic      Atomic             Coordinates (Angstroms)
 Number     Number       Type             X           Y           Z
 ---------------------------------------------------------------------
      1          7           0       -1.615428    0.000000    0.000000
      2          7           0        1.615428    0.000000    0.000000
      3          1           0       -1.398408   -1.016142    0.000000
      4          1           0        1.398408    1.016142    0.000000
 ---------------------------------------------------------------------

 Alpha  occ. eigenvalues --  -14.88623 -14.88621  -0.92976  -0.92119  -0.49232
 Alpha  occ. eigenvalues --   -0.48717  -0.32016  -0.30484
 Alpha virt. eigenvalues --   -0.21145  -0.19425   0.05254   0.07146   0.10731
 Alpha virt. eigenvalues --    0.11546   0.13258   0.14755   0.15547   0.17960
 Alpha virt. eigenvalues --    0.19454   0.22886   0.52077   0.55013   0.71942

  Beta  occ. eigenvalues --  -14.88623 -14.88621  -0.92976  -0.92119  -0.49232
  Beta  occ. eigenvalues --   -0.48717  -0.32016  -0.30484
  Beta virt. eigenvalues --   -0.21145  -0.19425   0.05254   0.07146   0.10731
  Beta virt. eigenvalues --    0.11546   0.13258   0.14755   0.15547   0.17960
  Beta virt. eigenvalues --    0.19454   0.22886   0.52077   0.55013   0.71942

 Mulliken charges and spin densities:
               1          2
     1  N   -0.238182  -0.000000
     2  N   -0.238183   0.000000
     3  H    0.238182   0.000000
     4  H    0.238182  -0.000000
 Sum of Mulliken charges =  -0.00000  -0.00000

 Dipole moment (field-independent basis, Debye):
    X=             -0.0000    Y=             -0.0000    Z=              0.0000  Tot=              0.0000
 Quadrupole moment (field-independent basis, Debye-Ang):
   XX=            -14.6011   YY=            -11.2365   ZZ=            -14.2064
   XY=              5.3498   XZ=             -0.0000   YZ=             -0.0000

 Normal termination of Gaussian 16 at Thu May 15 15:40:46 2025.
