 Gaussian 16, Revision A.03,
 Gaussian 16:  ES64L-G16RevA.03 25-Dec-2016

 --------------------------------------------
 #p opt UM062X/6-311+G** nosymm int=superfine
 --------------------------------------------

 -------------------
 Title Card Required
 -------------------
 Symbolic Z-matrix:
 Charge =  0 Multiplicity = 1

 SCF Done:  E(UM062X) =  -79.6549056411     A.U. after    8 cycles
 SCF Done:  E(UM062X) =  -79.6865646631     A.U. after    8 cycles
 SCF Done:  E(UM062X) =  -79.7105104436     A.U. after   10 cycles
 SCF Done:  E(UM062X) =  -79.7169843867     A.U. after    8 cycles
 SCF Done:  E(UM062X) =  -79.7170117089     A.U. after    7 cycles
 SCF Done:  E(UM062X) =  -79.7170123131     A.U. after    6 cycles
 Optimization completed.
    -- Stationary point found.

                          Input orientation:
 ---------------------------------------------------------------------
 Center     Atomic      Atomic             Coordinates (Angstroms)
 Number     Number       Type             X           Y           Z
 ---------------------------------------------------------------------
      1          6           0       -1.091872    0.000000    0.000000
      2          6           0        1.091984    0.000000    0.000000
      3          1           0        1.349392   -0.910937    0.527116
      4          1           0       -1.349276   -0.911967   -0.525337
      5          1           0        1.349390    0.911967    0.525335
      6          1           0        1.349405   -0.001026   -1.052449
      7          1           0       -1.349280    0.910937   -0.527116
      8          1           0       -1.349296    0.001025    1.052448
 ---------------------------------------------------------------------

 Alpha  occ. eigenvalues --  -10.55077 -10.55070  -0.78234  -0.73253  -0.48282
 Alpha  occ. eigenvalues --   -0.48282  -0.45221  -0.45221  -0.31056
 Alpha virt. eigenvalues --    0.01234   0.02408   0.05604   0.05604   0.08394
 Alpha virt. eigenvalues --    0.08394   0.08780   0.09736   0.13344   0.18172
 Alpha virt. eigenvalues --    0.18172   0.22101   0.22101   0.24349   0.26661

  Beta  occ. eigenvalues --  -10.55077 -10.55070  -0.78234  -0.73253  -0.48282
  Beta  occ. eigenvalues --   -0.48282  -0.45221  -0.45221  -0.31056
  Beta virt. eigenvalues --    0.01234   0.02408   0.05604   0.05604   0.08394
  Beta virt. eigenvalues --    0.08394   0.08780   0.09736   0.13344   0.18172
  Beta virt. eigenvalues --    0.18172   0.22101   0.22101   0.24349   0.26661

 Mulliken charges and spin densities:
               1          2
     1  C   -0.503216   0.000000
     2  C   -0.503217   0.000000
     3  H    0.167739   0.000000
     4  H    0.167739   0.000000
     5  H    0.167739  -0.000000
     6  H    0.167739  -0.000000
     7  H    0.167739   0.000000
     8  H    0.167739   0.000000
 Sum of Mulliken charges =  -0.00000   0.00000

 Dipole moment (field-independent basis, Debye):
    X=             -0.0000    Y=             -0.0000    Z=             -0.0000  Tot=              0.0000
 Quadrupole moment (field-independent basis, Debye-Ang):
   XX=            -15.5580   YY=            -14.8444   ZZ=            -14.8445
   XY=             -0.0000   XZ=             -0.0001   YZ=             -0.0000

 Normal termination of Gaussian 16 at Tue Nov 19 12:12:10 2024.
