 Gaussian 16, Revision A.03,
 Gaussian 16:  ES64L-G16RevA.03 25-Dec-2016

 --------------------------------------------
 #p opt UM062X/6-311+G** nosymm int=superfine
 --------------------------------------------

 -------------------
 Title Card Required
 -------------------
 Symbolic Z-matrix:
 Charge =  0 Multiplicity = 1

 SCF Done:  E(UM062X) =  -797.396692485     A.U. after   14 cycles
 SCF Done:  E(UM062X) =  -797.396962358     A.U. after   12 cycles
 SCF Done:  E(UM062X) =  -797.397557218     A.U. after   14 cycles
 SCF Done:  E(UM062X) =  -797.397861123     A.U. after   14 cycles
 SCF Done:  E(UM062X) =  -797.397930090     A.U. after   14 cycles
 SCF Done:  E(UM062X) =  -797.397941523     A.U. after   13 cycles
 SCF Done:  E(UM062X) =  -797.397932127     A.U. after   15 cycles
 SCF Done:  E(UM062X) =  -797.397954770     A.U. after   13 cycles
 SCF Done:  E(UM062X) =  -797.397953333     A.U. after   12 cycles
 SCF Done:  E(UM062X) =  -797.397956402     A.U. after   12 cycles
 SCF Done:  E(UM062X) =  -797.397956329     A.U. after   12 cycles
 SCF Done:  E(UM062X) =  -797.397956528     A.U. after   12 cycles
 Optimization completed.
    -- Stationary point found.

                          Input orientation:
 ---------------------------------------------------------------------
 Center     Atomic      Atomic             Coordinates (Angstroms)
 Number     Number       Type             X           Y           Z
 ---------------------------------------------------------------------
      1         16           0       -2.068191    0.000000    0.000000
      2         16           0        2.068191    0.000000    0.000000
      3          1           0       -1.917821   -1.309451   -0.274320
      4          1           0        1.917321    0.293543    1.305231
 ---------------------------------------------------------------------

 Alpha  occ. eigenvalues --  -89.94539 -89.94538  -8.30771  -8.30771  -6.22918
 Alpha  occ. eigenvalues --   -6.22918  -6.22666  -6.22666  -6.22099  -6.22099
 Alpha  occ. eigenvalues --   -0.81519  -0.81123  -0.47398  -0.47348  -0.33479
 Alpha  occ. eigenvalues --   -0.33316  -0.31052
 Alpha virt. eigenvalues --   -0.21575   0.01881   0.03057   0.04421   0.04855
 Alpha virt. eigenvalues --    0.06567   0.06844   0.07268   0.07401   0.09269
 Alpha virt. eigenvalues --    0.12942   0.30667   0.31050   0.32432   0.35501

  Beta  occ. eigenvalues --  -89.94539 -89.94538  -8.30771  -8.30771  -6.22918
  Beta  occ. eigenvalues --   -6.22918  -6.22666  -6.22666  -6.22099  -6.22099
  Beta  occ. eigenvalues --   -0.81519  -0.81123  -0.47398  -0.47348  -0.33479
  Beta  occ. eigenvalues --   -0.33316  -0.31052
  Beta virt. eigenvalues --   -0.21575   0.01881   0.03057   0.04421   0.04855
  Beta virt. eigenvalues --    0.06567   0.06844   0.07268   0.07401   0.09269
  Beta virt. eigenvalues --    0.12942   0.30667   0.31050   0.32432   0.35501

 Mulliken charges and spin densities:
               1          2
     1  S   -0.082988   0.000000
     2  S   -0.082948   0.000000
     3  H    0.082965   0.000000
     4  H    0.082971   0.000000
 Sum of Mulliken charges =   0.00000   0.00000

 Dipole moment (field-independent basis, Debye):
    X=             -0.0001    Y=             -0.8425    Z=              0.8550  Tot=              1.2003
 Quadrupole moment (field-independent basis, Debye-Ang):
   XX=            -25.5152   YY=            -28.0785   ZZ=            -28.1277
   XY=              2.6643   XZ=              2.6243   YZ=              1.6705

 Normal termination of Gaussian 16 at Mon Apr 21 21:19:27 2025.
