 Gaussian 16, Revision A.03,
 Gaussian 16:  ES64L-G16RevA.03 25-Dec-2016

 --------------------------------------------
 #p opt UM062X/6-311+G** nosymm int=superfine
 --------------------------------------------

 -------------------
 Title Card Required
 -------------------
 Symbolic Z-matrix:
 Charge =  0 Multiplicity = 1

 SCF Done:  E(UM062X) =  -92.8208796814     A.U. after   15 cycles
 SCF Done:  E(UM062X) =  -92.8228389291     A.U. after   12 cycles
 SCF Done:  E(UM062X) =  -92.8228494226     A.U. after   14 cycles
 Optimization completed.
    -- Stationary point found.

                          Input orientation:
 ---------------------------------------------------------------------
 Center     Atomic      Atomic             Coordinates (Angstroms)
 Number     Number       Type             X           Y           Z
 ---------------------------------------------------------------------
      1          6           0       -1.897395    0.000000    0.000000
      2          7           0        1.897395    0.000000    0.000000
      3          1           0       -3.022747    0.000000   -0.000000
 ---------------------------------------------------------------------

 Alpha  occ. eigenvalues --  -14.81384 -10.76369  -0.80351  -0.76206  -0.45519
 Alpha  occ. eigenvalues --   -0.26059  -0.26059
 Alpha virt. eigenvalues --   -0.18341  -0.18341  -0.07803  -0.00111   0.06186
 Alpha virt. eigenvalues --    0.06186   0.07909   0.12603   0.15799   0.17359
 Alpha virt. eigenvalues --    0.17359   0.23351   0.41788   0.51936   0.51936

  Beta  occ. eigenvalues --  -14.81384 -10.76369  -0.80351  -0.76206  -0.45519
  Beta  occ. eigenvalues --   -0.26059  -0.26059
  Beta virt. eigenvalues --   -0.18341  -0.18341  -0.07803  -0.00111   0.06186
  Beta virt. eigenvalues --    0.06186   0.07909   0.12603   0.15799   0.17359
  Beta virt. eigenvalues --    0.17359   0.23351   0.41788   0.51936   0.51936

 Mulliken charges and spin densities:
               1          2
     1  C    0.081871  -0.000000
     2  N   -0.252743   0.000000
     3  H    0.170872   0.000000
 Sum of Mulliken charges =  -0.00000   0.00000

 Dipole moment (field-independent basis, Debye):
    X=             -6.4597    Y=              0.0000    Z=             -0.0000  Tot=              6.4597
 Quadrupole moment (field-independent basis, Debye-Ang):
   XX=             -4.3065   YY=            -14.2193   ZZ=            -14.2193
   XY=             -0.0000   XZ=              0.0000   YZ=              0.0000

 Normal termination of Gaussian 16 at Mon Apr 21 18:39:21 2025.
