 Gaussian 16, Revision A.03,
 Gaussian 16:  ES64L-G16RevA.03 25-Dec-2016

 --------------------------------------------
 #p opt UM062X/6-311+G** nosymm int=superfine
 --------------------------------------------

 -------------------
 Title Card Required
 -------------------
 Symbolic Z-matrix:
 Charge =  1 Multiplicity = 2

 SCF Done:  E(UM062X) =  -1615.23130705     A.U. after   23 cycles
 SCF Done:  E(UM062X) =  -1615.41345102     A.U. after   19 cycles
 SCF Done:  E(UM062X) =  -1615.55849257     A.U. after   21 cycles
 SCF Done:  E(UM062X) =  -1615.57091342     A.U. after   19 cycles
 SCF Done:  E(UM062X) =  -1615.57519658     A.U. after   19 cycles
 SCF Done:  E(UM062X) =  -1615.57584676     A.U. after   19 cycles
 SCF Done:  E(UM062X) =  -1615.57119884     A.U. after   20 cycles
 SCF Done:  E(UM062X) =  -1615.24507447     A.U. after   35 cycles
 SCF Done:  E(UM062X) =  -1615.23987352     A.U. after   33 cycles
 SCF Done:  E(UM062X) =  -1615.57541195     A.U. after   21 cycles
 SCF Done:  E(UM062X) =  -1615.57611020     A.U. after   15 cycles
 SCF Done:  E(UM062X) =  -1615.57785157     A.U. after   20 cycles
 SCF Done:  E(UM062X) =  -1615.57841455     A.U. after   19 cycles
 SCF Done:  E(UM062X) =  -1615.57835705     A.U. after   19 cycles
 SCF Done:  E(UM062X) =  -1615.57863271     A.U. after   19 cycles
 SCF Done:  E(UM062X) =  -1615.57867110     A.U. after   16 cycles
 SCF Done:  E(UM062X) =  -1615.57867376     A.U. after   14 cycles
 SCF Done:  E(UM062X) =  -1615.57867483     A.U. after   13 cycles
 SCF Done:  E(UM062X) =  -1615.57867525     A.U. after   13 cycles
 SCF Done:  E(UM062X) =  -1615.57867537     A.U. after   12 cycles
 Optimization completed.
    -- Stationary point found.

                          Input orientation:
 ---------------------------------------------------------------------
 Center     Atomic      Atomic             Coordinates (Angstroms)
 Number     Number       Type             X           Y           Z
 ---------------------------------------------------------------------
      1          6           0       -1.226976    0.000000   -0.000000
      2          6           0        1.226976    0.000000   -0.000000
      3          6           0       -0.000004   -2.153631    0.000765
      4          6           0        0.000006   -3.529818    0.001224
      5          6           0       -1.131139   -4.323569    0.276399
      6          6           0       -1.215522   -1.481115    0.257280
      7          6           0        0.658409   -5.719825   -0.161334
      8          1           0        1.270186   -6.597199   -0.315569
      9          6           0       -1.477651    0.835899    1.163249
     10          6           0       -0.658986   -5.719735    0.162500
     11          1           0       -1.270975   -6.597029    0.316347
     12          6           0        1.130926   -4.323728   -0.274504
     13          6           0        1.215467   -1.481245   -0.256525
     14          6           0        1.675902    2.250767   -1.177352
     15          6           0       -1.476663    0.310894   -1.405826
     16          6           0       -1.889360    2.904151    2.407331
     17          1           0       -2.047973    3.976174    2.392868
     18          6           0       -2.304973   -3.665746    0.569158
     19          1           0       -3.220119   -4.200843    0.795986
     20          6           0       -1.554291    1.616510   -1.984079
     21          6           0        2.334303   -2.237593   -0.547533
     22          1           0        3.279718   -1.736839   -0.728683
     23          6           0        1.476630    0.311538    1.405691
     24          6           0        1.554219    1.617410    1.983377
     25          6           0        2.304586   -3.666072   -0.568281
     26          1           0        3.219505   -4.201295   -0.795723
     27          6           0       -1.675685    2.251370    1.176268
     28          6           0       -1.466698    0.187961    2.428981
     29          1           0       -1.282955   -0.874396    2.473544
     30          6           0        1.608090   -0.779795    2.313898
     31          1           0        1.592403   -1.792895    1.943595
     32          6           0       -1.903394    2.232642    3.609829
     33          1           0       -2.076428    2.769272    4.534724
     34          6           0       -2.334547   -2.237286    0.548089
     35          1           0       -3.280023   -1.736399    0.728549
     36          6           0       -1.693171    1.749794   -3.381953
     37          1           0       -1.730098    2.751557   -3.793861
     38          6           0        1.477701    0.835319   -1.163656
     39          6           0       -1.628572    3.133851    0.039993
     40          1           0       -1.676728    4.186641    0.300760
     41          6           0       -1.812182    0.666833   -4.221552
     42          1           0       -1.938083    0.809793   -5.287826
     43          6           0       -1.546888    2.869229   -1.277509
     44          1           0       -1.532641    3.739609   -1.926502
     45          6           0        1.692669    1.751317    3.381238
     46          1           0        1.729583    2.753256    3.792712
     47          6           0       -1.677160    0.853887    3.615255
     48          1           0       -1.657115    0.303346    4.547893
     49          6           0       -1.608129   -0.780851   -2.313551
     50          1           0       -1.592120   -1.793786   -1.942820
     51          6           0        1.811420    0.668722    4.221354
     52          1           0        1.936977    0.812158    5.287605
     53          6           0        1.889132    2.903016   -2.408790
     54          1           0        2.047776    3.975041   -2.394844
     55          6           0        1.785219   -0.613952    3.668957
     56          1           0        1.900795   -1.486583    4.300064
     57          6           0        1.902747    2.230995   -3.611002
     58          1           0        2.075339    2.767240   -4.536203
     59          6           0        1.629578    3.133740   -0.041444
     60          1           0        1.678501    4.186389   -0.302636
     61          6           0       -1.785634   -0.615606   -3.668631
     62          1           0       -1.901243   -1.488511   -4.299352
     63          6           0        1.547643    2.869777    1.276184
     64          1           0        1.534037    3.740484    1.924748
     65          6           0        1.466474    0.186822   -2.429095
     66          1           0        1.282645   -0.875544   -2.473170
     67          6           0        1.676648    0.852213   -3.615718
     68          1           0        1.656462    0.301210   -4.548083
 ---------------------------------------------------------------------

 Alpha  occ. eigenvalues --  -10.71489 -10.71487 -10.68599 -10.68599 -10.68560
 Alpha  occ. eigenvalues --  -10.68560 -10.68275 -10.68274 -10.68048 -10.68048
 Alpha  occ. eigenvalues --  -10.66926 -10.66925 -10.66582 -10.66582 -10.66472
 Alpha  occ. eigenvalues --  -10.66472 -10.66034 -10.66034 -10.65908 -10.65908
 Alpha  occ. eigenvalues --  -10.65745 -10.65745 -10.65707 -10.65707 -10.65686
 Alpha  occ. eigenvalues --  -10.65685 -10.65683 -10.65683 -10.65636 -10.65636
 Alpha  occ. eigenvalues --  -10.65575 -10.65575 -10.65553 -10.65553 -10.65499
 Alpha  occ. eigenvalues --  -10.65269 -10.65268 -10.65048 -10.65048 -10.64096
 Alpha  occ. eigenvalues --  -10.63999 -10.63157  -1.12710  -1.10334  -1.10050
 Alpha  occ. eigenvalues --   -1.08474  -1.07792  -1.05948  -1.04717  -1.02608
 Alpha  occ. eigenvalues --   -1.02123  -1.00707  -1.00621  -0.97931  -0.97640
 Alpha  occ. eigenvalues --   -0.96928  -0.96248  -0.95054  -0.93466  -0.93466
 Alpha  occ. eigenvalues --   -0.92799  -0.91941  -0.87601  -0.87347  -0.84966
 Alpha  occ. eigenvalues --   -0.84714  -0.83064  -0.81467  -0.81354  -0.79866
 Alpha  occ. eigenvalues --   -0.79753  -0.79523  -0.77623  -0.76426  -0.76197
 Alpha  occ. eigenvalues --   -0.75689  -0.75460  -0.73726  -0.70234  -0.69777
 Alpha  occ. eigenvalues --   -0.69148  -0.68481  -0.67740  -0.67598  -0.66976
 Alpha  occ. eigenvalues --   -0.66817  -0.65646  -0.65354  -0.65103  -0.64869
 Alpha  occ. eigenvalues --   -0.63402  -0.63020  -0.62322  -0.62210  -0.61301
 Alpha  occ. eigenvalues --   -0.61147  -0.60736  -0.60435  -0.60114  -0.60061
 Alpha  occ. eigenvalues --   -0.59601  -0.58935  -0.58757  -0.58147  -0.57844
 Alpha  occ. eigenvalues --   -0.57612  -0.56618  -0.55799  -0.55688  -0.55638
 Alpha  occ. eigenvalues --   -0.55002  -0.54143  -0.53262  -0.52838  -0.52692
 Alpha  occ. eigenvalues --   -0.52533  -0.52302  -0.52225  -0.51289  -0.51018
 Alpha  occ. eigenvalues --   -0.50945  -0.50927  -0.50490  -0.49459  -0.49148
 Alpha  occ. eigenvalues --   -0.48943  -0.48567  -0.47915  -0.44565  -0.44218
 Alpha  occ. eigenvalues --   -0.44068  -0.42955  -0.40560  -0.40392  -0.39292
 Alpha  occ. eigenvalues --   -0.38113  -0.37679  -0.37233  -0.32951
 Alpha virt. eigenvalues --   -0.18935  -0.15601  -0.15593  -0.14504  -0.10469
 Alpha virt. eigenvalues --   -0.09918  -0.08821  -0.08572  -0.08339  -0.07589
 Alpha virt. eigenvalues --   -0.07564  -0.07483  -0.06635  -0.06384  -0.06190

  Beta  occ. eigenvalues --  -10.71365 -10.71365 -10.68611 -10.68611 -10.68584
  Beta  occ. eigenvalues --  -10.68584 -10.68233 -10.68233 -10.68010 -10.68010
  Beta  occ. eigenvalues --  -10.66939 -10.66938 -10.66570 -10.66570 -10.66456
  Beta  occ. eigenvalues --  -10.66456 -10.66001 -10.66001 -10.65909 -10.65908
  Beta  occ. eigenvalues --  -10.65729 -10.65728 -10.65722 -10.65722 -10.65671
  Beta  occ. eigenvalues --  -10.65671 -10.65664 -10.65664 -10.65619 -10.65618
  Beta  occ. eigenvalues --  -10.65575 -10.65575 -10.65562 -10.65562 -10.65477
  Beta  occ. eigenvalues --  -10.65278 -10.65278 -10.65044 -10.65044 -10.64096
  Beta  occ. eigenvalues --  -10.63999 -10.63157  -1.12542  -1.10234  -1.09892
  Beta  occ. eigenvalues --   -1.08349  -1.07681  -1.05788  -1.04604  -1.02470
  Beta  occ. eigenvalues --   -1.02000  -1.00553  -1.00452  -0.97827  -0.97546
  Beta  occ. eigenvalues --   -0.96797  -0.96137  -0.95001  -0.93404  -0.93364
  Beta  occ. eigenvalues --   -0.92693  -0.91841  -0.87251  -0.87070  -0.84888
  Beta  occ. eigenvalues --   -0.84645  -0.82986  -0.81343  -0.81266  -0.79776
  Beta  occ. eigenvalues --   -0.79680  -0.79451  -0.77498  -0.76257  -0.76042
  Beta  occ. eigenvalues --   -0.75521  -0.75423  -0.73596  -0.70121  -0.69626
  Beta  occ. eigenvalues --   -0.69014  -0.68379  -0.67666  -0.67538  -0.66851
  Beta  occ. eigenvalues --   -0.66719  -0.65564  -0.65217  -0.64969  -0.64755
  Beta  occ. eigenvalues --   -0.63115  -0.62978  -0.62234  -0.62122  -0.60990
  Beta  occ. eigenvalues --   -0.60977  -0.60588  -0.60302  -0.60060  -0.60001
  Beta  occ. eigenvalues --   -0.59476  -0.58782  -0.58676  -0.58059  -0.57574
  Beta  occ. eigenvalues --   -0.57384  -0.56468  -0.55622  -0.55571  -0.55393
  Beta  occ. eigenvalues --   -0.54985  -0.53768  -0.53100  -0.52747  -0.52599
  Beta  occ. eigenvalues --   -0.52485  -0.52203  -0.52113  -0.50975  -0.50946
  Beta  occ. eigenvalues --   -0.50826  -0.50445  -0.49769  -0.49076  -0.49069
  Beta  occ. eigenvalues --   -0.48799  -0.48504  -0.47537  -0.43977  -0.43862
  Beta  occ. eigenvalues --   -0.43309  -0.42614  -0.40328  -0.40108  -0.38661
  Beta  occ. eigenvalues --   -0.37861  -0.37406  -0.37027
  Beta virt. eigenvalues --   -0.23061  -0.17101  -0.15528  -0.15299  -0.14509
  Beta virt. eigenvalues --   -0.10272  -0.09523  -0.08453  -0.08370  -0.08318
  Beta virt. eigenvalues --   -0.07577  -0.07553  -0.07267  -0.06615  -0.06349

 Mulliken charges and spin densities:
               1          2
     1  C   -0.002203   0.241484
     2  C   -0.002555   0.241430
     3  C    0.191910   0.006795
     4  C    0.111324   0.000522
     5  C    0.110702   0.005775
     6  C    0.053700  -0.023670
     7  C   -0.304619   0.001517
     8  H    0.176434  -0.000070
     9  C    0.245859  -0.010188
    10  C   -0.305228   0.001524
    11  H    0.176433  -0.000071
    12  C    0.110995   0.005770
    13  C    0.054194  -0.023663
    14  C    0.238244   0.059599
    15  C    0.309294  -0.021510
    16  C   -0.228722  -0.031154
    17  H    0.163814   0.000929
    18  C   -0.455827  -0.001513
    19  H    0.175711   0.000448
    20  C    0.200454   0.094431
    21  C   -0.142730   0.017071
    22  H    0.174675  -0.000437
    23  C    0.309381  -0.021471
    24  C    0.200762   0.094388
    25  C   -0.454900  -0.001519
    26  H    0.175714   0.000449
    27  C    0.236893   0.059474
    28  C   -0.099101   0.039445
    29  H    0.202742  -0.002453
    30  C   -0.279254   0.029265
    31  H    0.225251  -0.001200
    32  C   -0.353423   0.054217
    33  H    0.181425  -0.002851
    34  C   -0.142961   0.017044
    35  H    0.174663  -0.000436
    36  C   -0.084474  -0.043417
    37  H    0.163563   0.001283
    38  C    0.245713  -0.010225
    39  C   -0.261096   0.063844
    40  H    0.167588  -0.004304
    41  C   -0.240018   0.047606
    42  H    0.179985  -0.002267
    43  C   -0.238418   0.024712
    44  H    0.159564  -0.001532
    45  C   -0.084102  -0.043400
    46  H    0.163567   0.001283
    47  C   -0.143304  -0.013407
    48  H    0.169720  -0.001005
    49  C   -0.279917   0.029275
    50  H    0.225220  -0.001200
    51  C   -0.240013   0.047626
    52  H    0.179979  -0.002269
    53  C   -0.229284  -0.031179
    54  H    0.163831   0.000930
    55  C   -0.291513  -0.024811
    56  H    0.175059   0.000606
    57  C   -0.353014   0.054229
    58  H    0.181423  -0.002851
    59  C   -0.262079   0.063774
    60  H    0.167625  -0.004300
    61  C   -0.290309  -0.024773
    62  H    0.175051   0.000606
    63  C   -0.239030   0.024710
    64  H    0.159604  -0.001532
    65  C   -0.099377   0.039472
    66  H    0.202716  -0.002452
    67  C   -0.143033  -0.013396
    68  H    0.169719  -0.001006
 Sum of Mulliken charges =   1.00000   1.00000

 Dipole moment (field-independent basis, Debye):
    X=             -0.0005    Y=              2.4212    Z=             -0.0021  Tot=              2.4212
 Quadrupole moment (field-independent basis, Debye-Ang):
   XX=           -222.4584   YY=           -175.0199   ZZ=           -176.4434
   XY=              0.0043   XZ=             -1.9524   YZ=              0.0087

 Normal termination of Gaussian 16 at Fri Nov  8 20:38:58 2024.
