 Gaussian 16, Revision A.03,
 Gaussian 16:  ES64L-G16RevA.03 25-Dec-2016

 --------------------------------------------
 #p opt UM062X/6-311+G** nosymm int=superfine
 --------------------------------------------

 -------------------
 Title Card Required
 -------------------
 Symbolic Z-matrix:
 Charge =  0 Multiplicity = 1

 SCF Done:  E(UM062X) =  -79.6772795407     A.U. after    9 cycles
 SCF Done:  E(UM062X) =  -79.6992514506     A.U. after    8 cycles
 SCF Done:  E(UM062X) =  -79.7044259514     A.U. after    8 cycles
 SCF Done:  E(UM062X) =  -79.7044350316     A.U. after    7 cycles
 Optimization completed.
    -- Stationary point found.

                          Input orientation:
 ---------------------------------------------------------------------
 Center     Atomic      Atomic             Coordinates (Angstroms)
 Number     Number       Type             X           Y           Z
 ---------------------------------------------------------------------
      1          6           0       -0.603202    0.000000    0.000000
      2          6           0        0.603264    0.000000    0.000000
      3          1           0        1.075253   -0.861875    0.498734
      4          1           0       -1.075190   -0.862862   -0.497043
      5          1           0        1.075252    0.862862    0.497040
      6          1           0        1.075258   -0.000956   -0.995777
      7          1           0       -1.075191    0.861874   -0.498736
      8          1           0       -1.075197    0.000954    0.995776
 ---------------------------------------------------------------------

 Alpha  occ. eigenvalues --  -10.50184 -10.49936  -0.92836  -0.68135  -0.53802
 Alpha  occ. eigenvalues --   -0.53802  -0.50029  -0.36033  -0.36032
 Alpha virt. eigenvalues --    0.02085   0.04199   0.04924   0.04924   0.08664
 Alpha virt. eigenvalues --    0.08947   0.08948   0.14230   0.19382   0.19382
 Alpha virt. eigenvalues --    0.19685   0.19686   0.24041   0.27929   0.37967

  Beta  occ. eigenvalues --  -10.50184 -10.49936  -0.92836  -0.68135  -0.53802
  Beta  occ. eigenvalues --   -0.53802  -0.50029  -0.36033  -0.36032
  Beta virt. eigenvalues --    0.02085   0.04199   0.04924   0.04924   0.08664
  Beta virt. eigenvalues --    0.08947   0.08948   0.14230   0.19382   0.19382
  Beta virt. eigenvalues --    0.19685   0.19686   0.24041   0.27929   0.37967

 Mulliken charges and spin densities:
               1          2
     1  C   -0.434243   0.000000
     2  C   -0.434243  -0.000000
     3  H    0.144749  -0.000000
     4  H    0.144748  -0.000000
     5  H    0.144748   0.000000
     6  H    0.144747  -0.000000
     7  H    0.144749  -0.000000
     8  H    0.144747  -0.000000
 Sum of Mulliken charges =  -0.00000  -0.00000

 Dipole moment (field-independent basis, Debye):
    X=              0.0000    Y=             -0.0000    Z=             -0.0000  Tot=              0.0000
 Quadrupole moment (field-independent basis, Debye-Ang):
   XX=            -15.6409   YY=            -14.9507   ZZ=            -14.9507
   XY=              0.0000   XZ=              0.0000   YZ=             -0.0001

 Normal termination of Gaussian 16 at Tue Nov 19 11:44:53 2024.
