 Gaussian 16, Revision A.03,
 Gaussian 16:  ES64L-G16RevA.03 25-Dec-2016

 --------------------------------------------
 #p opt UM062X/6-311+G** nosymm int=superfine
 --------------------------------------------

 -------------------
 Title Card Required
 -------------------
 Symbolic Z-matrix:
 Charge =  0 Multiplicity = 1

 SCF Done:  E(UM062X) =  -78.5439135645     A.U. after    8 cycles
 SCF Done:  E(UM062X) =  -78.5475905280     A.U. after    8 cycles
 SCF Done:  E(UM062X) =  -78.5478236418     A.U. after    7 cycles
 Optimization completed.
    -- Stationary point found.

                          Input orientation:
 ---------------------------------------------------------------------
 Center     Atomic      Atomic             Coordinates (Angstroms)
 Number     Number       Type             X           Y           Z
 ---------------------------------------------------------------------
      1          6           0       -0.609842    0.000000    0.000000
      2          6           0        0.609842    0.000000    0.000000
      3          1           0       -1.197925   -0.914562    0.000000
      4          1           0       -1.198046    0.914424    0.000000
      5          1           0        1.197925    0.914562   -0.000000
      6          1           0        1.198046   -0.914424   -0.000000
 ---------------------------------------------------------------------

 Alpha  occ. eigenvalues --  -10.52133 -10.51900  -0.88771  -0.65217  -0.55198
 Alpha  occ. eigenvalues --   -0.50204  -0.39790  -0.35707
 Alpha virt. eigenvalues --    0.03399   0.04168   0.04428   0.04944   0.07412
 Alpha virt. eigenvalues --    0.08390   0.09750   0.14665   0.16093   0.17589
 Alpha virt. eigenvalues --    0.19530   0.23765   0.32244   0.38462   0.44203

  Beta  occ. eigenvalues --  -10.52133 -10.51900  -0.88771  -0.65217  -0.55198
  Beta  occ. eigenvalues --   -0.50204  -0.39790  -0.35707
  Beta virt. eigenvalues --    0.03399   0.04168   0.04428   0.04944   0.07412
  Beta virt. eigenvalues --    0.08390   0.09750   0.14665   0.16093   0.17589
  Beta virt. eigenvalues --    0.19530   0.23765   0.32244   0.38462   0.44203

 Mulliken charges and spin densities:
               1          2
     1  C   -0.283196   0.000000
     2  C   -0.283196  -0.000000
     3  H    0.141589  -0.000000
     4  H    0.141607  -0.000000
     5  H    0.141589   0.000000
     6  H    0.141607  -0.000000
 Sum of Mulliken charges =  -0.00000  -0.00000

 Dipole moment (field-independent basis, Debye):
    X=              0.0000    Y=             -0.0000    Z=              0.0000  Tot=              0.0000
 Quadrupole moment (field-independent basis, Debye-Ang):
   XX=            -12.3656   YY=            -12.3252   ZZ=            -15.4183
   XY=             -0.0003   XZ=             -0.0000   YZ=              0.0000

 Normal termination of Gaussian 16 at Tue Nov 19 10:33:48 2024.
