 Gaussian 16, Revision A.03,
 Gaussian 16:  ES64L-G16RevA.03 25-Dec-2016

 ---------------------------------------------------------
 #p opt UM062X/6-311+G** nosymm int=superfine SCF=NoVarAcc
 ---------------------------------------------------------

 -------------------
 Title Card Required
 -------------------
 Symbolic Z-matrix:
 Charge =  1 Multiplicity = 2

 SCF Done:  E(UM062X) =  -77.9025173828     A.U. after   10 cycles
 SCF Done:  E(UM062X) =  -77.9064481519     A.U. after    9 cycles
 SCF Done:  E(UM062X) =  -77.9089907714     A.U. after    9 cycles
 SCF Done:  E(UM062X) =  -77.9089941179     A.U. after    8 cycles
 Optimization completed.
    -- Stationary point found.

                          Input orientation:
 ---------------------------------------------------------------------
 Center     Atomic      Atomic             Coordinates (Angstroms)
 Number     Number       Type             X           Y           Z
 ---------------------------------------------------------------------
      1          6           0       -1.956027    0.000000    0.000000
      2          6           0        1.956027    0.000000    0.000000
      3          1           0       -2.514119   -0.942783    0.000000
      4          1           0       -2.514063    0.942815    0.000000
      5          1           0        2.514119    0.942783    0.000000
      6          1           0        2.514063   -0.942815    0.000000
 ---------------------------------------------------------------------

 Alpha  occ. eigenvalues --  -10.88559 -10.88559  -0.99857  -0.99788  -0.74543
 Alpha  occ. eigenvalues --   -0.74505  -0.58195  -0.56727
 Alpha virt. eigenvalues --   -0.31791  -0.31427  -0.12701  -0.10845  -0.09082
 Alpha virt. eigenvalues --   -0.07143  -0.06422  -0.05577  -0.04222  -0.01541
 Alpha virt. eigenvalues --   -0.00395   0.00290   0.02228   0.05622   0.27342

  Beta  occ. eigenvalues --  -10.87758 -10.87757  -0.97670  -0.97476  -0.73511
  Beta  occ. eigenvalues --   -0.73462  -0.46982
  Beta virt. eigenvalues --   -0.36048  -0.29958  -0.29484  -0.12479  -0.10952
  Beta virt. eigenvalues --   -0.08908  -0.06938  -0.06508  -0.04475  -0.03839
  Beta virt. eigenvalues --   -0.01292   0.00310   0.00678   0.02326   0.06368

 Mulliken charges and spin densities:
               1          2
     1  C    0.022466   0.486322
     2  C    0.022466   0.486322
     3  H    0.238767   0.006839
     4  H    0.238767   0.006839
     5  H    0.238767   0.006839
     6  H    0.238767   0.006839
 Sum of Mulliken charges =   1.00000   1.00000

 Dipole moment (field-independent basis, Debye):
    X=             -0.0000    Y=              0.0000    Z=              0.0000  Tot=              0.0000
 Quadrupole moment (field-independent basis, Debye-Ang):
   XX=             19.0380   YY=             -9.4326   ZZ=            -10.7402
   XY=             -0.0001   XZ=              0.0000   YZ=              0.0000

 Normal termination of Gaussian 16 at Tue Dec  3 13:32:54 2024.
