 Gaussian 16, Revision A.03,
 Gaussian 16:  ES64L-G16RevA.03 25-Dec-2016

 --------------------------------------------
 #p opt UM062X/6-311+G** nosymm int=superfine
 --------------------------------------------

 -------------------
 Title Card Required
 -------------------
 Symbolic Z-matrix:
 Charge =  1 Multiplicity = 2

 SCF Done:  E(UM062X) =  -580.861436502     A.U. after   15 cycles
 SCF Done:  E(UM062X) =  -580.868874522     A.U. after    9 cycles
 SCF Done:  E(UM062X) =  -580.870980580     A.U. after   12 cycles
 SCF Done:  E(UM062X) =  -580.870983403     A.U. after    6 cycles
 Optimization completed.
    -- Stationary point found.

                          Input orientation:
 ---------------------------------------------------------------------
 Center     Atomic      Atomic             Coordinates (Angstroms)
 Number     Number       Type             X           Y           Z
 ---------------------------------------------------------------------
      1         14           0       -2.416295    0.000000    0.000000
      2         14           0        2.416295    0.000000    0.000000
      3          1           0       -3.315593   -1.189973    0.000047
      4          1           0        3.315593    1.189973    0.001075
      5          1           0       -3.315608    1.189962   -0.000040
      6          1           0        3.315608   -1.189961   -0.001069
 ---------------------------------------------------------------------

 Alpha  occ. eigenvalues --  -67.23825 -67.23825  -5.78319  -5.78319  -4.09588
 Alpha  occ. eigenvalues --   -4.09588  -4.09268  -4.09268  -4.08925  -4.08925
 Alpha  occ. eigenvalues --   -0.77839  -0.77776  -0.59645  -0.59629  -0.48868
 Alpha  occ. eigenvalues --   -0.47504
 Alpha virt. eigenvalues --   -0.26660  -0.26254  -0.12041  -0.11956  -0.09214
 Alpha virt. eigenvalues --   -0.08462  -0.07769  -0.06904  -0.06707  -0.05932
 Alpha virt. eigenvalues --   -0.05576  -0.05521  -0.05360  -0.03416   0.13008

  Beta  occ. eigenvalues --  -67.23492 -67.23492  -5.78068  -5.78068  -4.09486
  Beta  occ. eigenvalues --   -4.09485  -4.08816  -4.08816  -4.08493  -4.08493
  Beta  occ. eigenvalues --   -0.76027  -0.75825  -0.58471  -0.58447  -0.42166
  Beta virt. eigenvalues --   -0.33291  -0.25481  -0.24957  -0.11314  -0.10861
  Beta virt. eigenvalues --   -0.09257  -0.07210  -0.06817  -0.06494  -0.06274
  Beta virt. eigenvalues --   -0.05950  -0.05284  -0.05218  -0.04755  -0.02988

 Mulliken charges and spin densities:
               1          2
     1  Si   0.563618   0.389406
     2  Si   0.563618   0.389406
     3  H   -0.031809   0.055297
     4  H   -0.031809   0.055297
     5  H   -0.031809   0.055297
     6  H   -0.031809   0.055297
 Sum of Mulliken charges =   1.00000   1.00000

 Dipole moment (field-independent basis, Debye):
    X=              0.0000    Y=              0.0000    Z=              0.0000  Tot=              0.0000
 Quadrupole moment (field-independent basis, Debye-Ang):
   XX=              8.0303   YY=            -25.9208   ZZ=            -20.8869
   XY=             -0.0000   XZ=              0.0000   YZ=             -0.0022

 Normal termination of Gaussian 16 at Mon Apr 21 20:17:52 2025.
