 Gaussian 16, Revision A.03,
 Gaussian 16:  ES64L-G16RevA.03 25-Dec-2016

 --------------------------------------------
 #p opt UM062X/6-311+G** nosymm int=superfine
 --------------------------------------------

 -------------------
 Title Card Required
 -------------------
 Symbolic Z-matrix:
 Charge =  1 Multiplicity = 2

 SCF Done:  E(UM062X) =  -579.671580320     A.U. after   14 cycles
 SCF Done:  E(UM062X) =  -579.672203398     A.U. after   12 cycles
 SCF Done:  E(UM062X) =  -579.672609161     A.U. after   12 cycles
 SCF Done:  E(UM062X) =  -579.673577924     A.U. after   13 cycles
 SCF Done:  E(UM062X) =  -579.674254613     A.U. after   14 cycles
 SCF Done:  E(UM062X) =  -579.674475602     A.U. after   14 cycles
 SCF Done:  E(UM062X) =  -579.674596429     A.U. after   11 cycles
 SCF Done:  E(UM062X) =  -579.674608706     A.U. after   10 cycles
 SCF Done:  E(UM062X) =  -579.674609500     A.U. after    9 cycles
 SCF Done:  E(UM062X) =  -579.674612012     A.U. after   12 cycles
 SCF Done:  E(UM062X) =  -579.674617164     A.U. after   11 cycles
 SCF Done:  E(UM062X) =  -579.674617445     A.U. after   10 cycles
 SCF Done:  E(UM062X) =  -579.674617448     A.U. after    8 cycles
 Optimization completed.
    -- Stationary point found.

                          Input orientation:
 ---------------------------------------------------------------------
 Center     Atomic      Atomic             Coordinates (Angstroms)
 Number     Number       Type             X           Y           Z
 ---------------------------------------------------------------------
      1         14           0       -2.427975    0.000000    0.000000
      2         14           0        2.427975    0.000000    0.000000
      3          1           0       -2.556438   -1.503079    0.000000
      4          1           0        2.556469    1.503076    0.000000
 ---------------------------------------------------------------------

 Alpha  occ. eigenvalues --  -67.25927 -67.25927  -5.80102  -5.80101  -4.11203
 Alpha  occ. eigenvalues --   -4.11203  -4.11114  -4.11114  -4.10467  -4.10467
 Alpha  occ. eigenvalues --   -0.74912  -0.74597  -0.51676  -0.51518  -0.38653
 Alpha virt. eigenvalues --   -0.29856  -0.26796  -0.26350  -0.10452  -0.09082
 Alpha virt. eigenvalues --   -0.08248  -0.07582  -0.07408  -0.06350  -0.05466
 Alpha virt. eigenvalues --   -0.05381  -0.04775  -0.02300   0.12959   0.14616

  Beta  occ. eigenvalues --  -67.25670 -67.25670  -5.80029  -5.80028  -4.11052
  Beta  occ. eigenvalues --   -4.11052  -4.10508  -4.10508  -4.10369  -4.10369
  Beta  occ. eigenvalues --   -0.73099  -0.72966  -0.51039  -0.50875
  Beta virt. eigenvalues --   -0.27492  -0.26615  -0.25955  -0.23947  -0.14557
  Beta virt. eigenvalues --   -0.10846  -0.09075  -0.08184  -0.07783  -0.06371
  Beta virt. eigenvalues --   -0.05652  -0.05250  -0.04980  -0.02401   0.09285

 Mulliken charges and spin densities:
               1          2
     1  Si   0.584670   0.507898
     2  Si   0.584669   0.507899
     3  H   -0.084669  -0.007898
     4  H   -0.084669  -0.007898
 Sum of Mulliken charges =   1.00000   1.00000

 Dipole moment (field-independent basis, Debye):
    X=              0.0000    Y=             -0.0000    Z=              0.0000  Tot=              0.0000
 Quadrupole moment (field-independent basis, Debye-Ang):
   XX=              9.2748   YY=            -27.8223   ZZ=            -20.0217
   XY=              2.4503   XZ=             -0.0000   YZ=              0.0000

 Normal termination of Gaussian 16 at Mon Apr 21 20:45:34 2025.
