 Gaussian 16, Revision A.03,
 Gaussian 16:  ES64L-G16RevA.03 25-Dec-2016

 --------------------------------------------
 #p opt UM062X/6-311+G** nosymm int=superfine
 --------------------------------------------

 -------------------
 Title Card Required
 -------------------
 Symbolic Z-matrix:
 Charge =  0 Multiplicity = 1

 SCF Done:  E(UM062X) =  -78.3917880215     A.U. after    8 cycles
 SCF Done:  E(UM062X) =  -78.4245921136     A.U. after    8 cycles
 SCF Done:  E(UM062X) =  -78.4448918806     A.U. after    9 cycles
 SCF Done:  E(UM062X) =  -78.4468469873     A.U. after    8 cycles
 SCF Done:  E(UM062X) =  -78.4469210085     A.U. after    7 cycles
 Optimization completed.
    -- Stationary point found.

                          Input orientation:
 ---------------------------------------------------------------------
 Center     Atomic      Atomic             Coordinates (Angstroms)
 Number     Number       Type             X           Y           Z
 ---------------------------------------------------------------------
      1          6           0       -0.894877    0.000000    0.000000
      2          6           0        0.894877    0.000000    0.000000
      3          1           0       -1.389140   -0.958811    0.000000
      4          1           0       -1.389172    0.958699    0.000000
      5          1           0        1.389140    0.958811    0.000000
      6          1           0        1.389172   -0.958699    0.000000
 ---------------------------------------------------------------------

 Alpha  occ. eigenvalues --  -10.59521 -10.59499  -0.79025  -0.70116  -0.52976
 Alpha  occ. eigenvalues --   -0.47972  -0.41213  -0.27751
 Alpha virt. eigenvalues --   -0.04162   0.03218   0.03367   0.05386   0.07550
 Alpha virt. eigenvalues --    0.08765   0.09778   0.11647   0.15403   0.16091
 Alpha virt. eigenvalues --    0.16647   0.21042   0.22185   0.28856   0.40597

  Beta  occ. eigenvalues --  -10.59521 -10.59499  -0.79025  -0.70116  -0.52976
  Beta  occ. eigenvalues --   -0.47972  -0.41213  -0.27751
  Beta virt. eigenvalues --   -0.04162   0.03218   0.03367   0.05386   0.07550
  Beta virt. eigenvalues --    0.08765   0.09778   0.11647   0.15403   0.16091
  Beta virt. eigenvalues --    0.16647   0.21042   0.22185   0.28856   0.40597

 Mulliken charges and spin densities:
               1          2
     1  C   -0.344191  -0.000000
     2  C   -0.344191   0.000000
     3  H    0.172094  -0.000000
     4  H    0.172096   0.000000
     5  H    0.172094  -0.000000
     6  H    0.172096  -0.000000
 Sum of Mulliken charges =  -0.00000   0.00000

 Dipole moment (field-independent basis, Debye):
    X=             -0.0000    Y=             -0.0000    Z=              0.0000  Tot=              0.0000
 Quadrupole moment (field-independent basis, Debye-Ang):
   XX=            -11.6354   YY=            -12.1772   ZZ=            -17.5972
   XY=             -0.0001   XZ=             -0.0000   YZ=             -0.0000

 Normal termination of Gaussian 16 at Tue Nov 19 10:52:56 2024.
