 Gaussian 16, Revision A.03,
 Gaussian 16:  ES64L-G16RevA.03 25-Dec-2016

 --------------------------------------------
 #p opt UM062X/6-311+G** nosymm int=superfine
 --------------------------------------------

 -------------------
 Title Card Required
 -------------------
 Symbolic Z-matrix:
 Charge =  0 Multiplicity = 1

 SCF Done:  E(UM062X) =  -80.4077841405     A.U. after   17 cycles
 SCF Done:  E(UM062X) =  -80.4112379084     A.U. after   11 cycles
 SCF Done:  E(UM062X) =  -80.4112900531     A.U. after   10 cycles
 SCF Done:  E(UM062X) =  -80.4112902978     A.U. after   11 cycles
 SCF Done:  E(UM062X) =  -80.4112908401     A.U. after   10 cycles
 SCF Done:  E(UM062X) =  -80.3652416291     A.U. after   16 cycles
 SCF Done:  E(UM062X) =  -80.3735770400     A.U. after   14 cycles
 SCF Done:  E(UM062X) =  -80.4112908438     A.U. after    5 cycles
 Optimization completed.
    -- Stationary point found.

                          Input orientation:
 ---------------------------------------------------------------------
 Center     Atomic      Atomic             Coordinates (Angstroms)
 Number     Number       Type             X           Y           Z
 ---------------------------------------------------------------------
      1          5           0       -1.767066    0.000000    0.000000
      2          7           0        1.767066    0.000000    0.000000
      3          1           0       -3.002363    0.003555    0.000000
      4          1           0        2.806694    0.009924   -0.000000
 ---------------------------------------------------------------------

 Alpha  occ. eigenvalues --  -14.82371  -7.11829  -0.88840  -0.54011  -0.45364
 Alpha  occ. eigenvalues --   -0.33017  -0.26947
 Alpha virt. eigenvalues --   -0.11931  -0.03850  -0.03794   0.02638   0.03821
 Alpha virt. eigenvalues --    0.06674   0.06801   0.09624   0.14096   0.15131
 Alpha virt. eigenvalues --    0.17948   0.20076   0.25877   0.39111   0.42477

  Beta  occ. eigenvalues --  -14.82371  -7.11829  -0.88840  -0.54011  -0.45364
  Beta  occ. eigenvalues --   -0.33017  -0.26947
  Beta virt. eigenvalues --   -0.11931  -0.03850  -0.03794   0.02638   0.03821
  Beta virt. eigenvalues --    0.06674   0.06801   0.09624   0.14096   0.15131
  Beta virt. eigenvalues --    0.17948   0.20076   0.25877   0.39111   0.42477

 Mulliken charges and spin densities:
               1          2
     1  B   -0.020817   0.000000
     2  N   -0.189480   0.000000
     3  H   -0.007894   0.000000
     4  H    0.218191  -0.000000
 Sum of Mulliken charges =   0.00000  -0.00000

 Dipole moment (field-independent basis, Debye):
    X=              0.2343    Y=              0.0183    Z=              0.0000  Tot=              0.2350
 Quadrupole moment (field-independent basis, Debye-Ang):
   XX=             -4.8011   YY=            -11.8867   ZZ=            -15.1786
   XY=              0.0257   XZ=             -0.0000   YZ=             -0.0000

 Normal termination of Gaussian 16 at Mon Apr 21 18:08:13 2025.
