 Gaussian 16, Revision A.03,
 Gaussian 16:  ES64L-G16RevA.03 25-Dec-2016

 --------------------------------------------
 #p opt UM062X/6-311+G** nosymm int=superfine
 --------------------------------------------

 -------------------
 Title Card Required
 -------------------
 Symbolic Z-matrix:
 Charge =  0 Multiplicity = 1

 SCF Done:  E(UM062X) =  -76.5480054020     A.U. after   12 cycles
 SCF Done:  E(UM062X) =  -76.6431536155     A.U. after    9 cycles
 SCF Done:  E(UM062X) =  -76.7589592631     A.U. after    9 cycles
 SCF Done:  E(UM062X) =  -76.8001632096     A.U. after   10 cycles
 SCF Done:  E(UM062X) =  -76.8014217890     A.U. after    8 cycles
 SCF Done:  E(UM062X) =  -76.8016156225     A.U. after    7 cycles
 Optimization completed.
    -- Stationary point found.

                          Input orientation:
 ---------------------------------------------------------------------
 Center     Atomic      Atomic             Coordinates (Angstroms)
 Number     Number       Type             X           Y           Z
 ---------------------------------------------------------------------
      1          6           0       -0.351322    0.000000    0.000000
      2          6           0        0.351322    0.000000    0.000000
      3          1           0       -1.122866   -0.820735    0.000000
      4          1           0       -1.122893    0.820583   -0.000000
      5          1           0        1.122866    0.820735    0.000000
      6          1           0        1.122893   -0.820583   -0.000000
 ---------------------------------------------------------------------

 Alpha  occ. eigenvalues --  -10.65532 -10.47447  -0.90759  -0.66067  -0.60117
 Alpha  occ. eigenvalues --   -0.56367  -0.50956  -0.26571
 Alpha virt. eigenvalues --    0.02345   0.02746   0.04114   0.05458   0.08166
 Alpha virt. eigenvalues --    0.09555   0.09824   0.13801   0.15885   0.18795
 Alpha virt. eigenvalues --    0.25136   0.26640   0.37406   0.41716   0.44271

  Beta  occ. eigenvalues --  -10.65532 -10.47447  -0.90759  -0.66067  -0.60117
  Beta  occ. eigenvalues --   -0.56367  -0.50956  -0.26571
  Beta virt. eigenvalues --    0.02345   0.02746   0.04114   0.05458   0.08166
  Beta virt. eigenvalues --    0.09555   0.09824   0.13801   0.15885   0.18795
  Beta virt. eigenvalues --    0.25136   0.26640   0.37406   0.41716   0.44271

 Mulliken charges and spin densities:
               1          2
     1  C   -0.244629   0.000000
     2  C   -0.244629  -0.000000
     3  H    0.122296  -0.000000
     4  H    0.122333   0.000000
     5  H    0.122296   0.000000
     6  H    0.122333  -0.000000
 Sum of Mulliken charges =  -0.00000   0.00000

 Dipole moment (field-independent basis, Debye):
    X=              0.0000    Y=             -0.0000    Z=             -0.0000  Tot=              0.0000
 Quadrupole moment (field-independent basis, Debye-Ang):
   XX=            -12.8236   YY=            -12.7766   ZZ=            -12.8787
   XY=             -0.0006   XZ=             -0.0000   YZ=              0.0000

 Normal termination of Gaussian 16 at Tue Nov 19 10:11:07 2024.
