 Gaussian 16, Revision A.03,
 Gaussian 16:  ES64L-G16RevA.03 25-Dec-2016

 --------------------------------------------
 #p opt UM062X/6-311+G** nosymm int=superfine
 --------------------------------------------

 -------------------
 Title Card Required
 -------------------
 Symbolic Z-matrix:
 Charge =  1 Multiplicity = 2

 SCF Done:  E(UM062X) =  -1615.56464121     A.U. after   22 cycles
 SCF Done:  E(UM062X) =  -1615.58421889     A.U. after   20 cycles
 SCF Done:  E(UM062X) =  -1615.58560663     A.U. after   20 cycles
 SCF Done:  E(UM062X) =  -1615.58746050     A.U. after   20 cycles
 SCF Done:  E(UM062X) =  -1615.58499783     A.U. after   23 cycles
 SCF Done:  E(UM062X) =  -1615.57195387     A.U. after   27 cycles
 SCF Done:  E(UM062X) =  -1615.56874859     A.U. after   24 cycles
 SCF Done:  E(UM062X) =  -1615.58747311     A.U. after   15 cycles
 SCF Done:  E(UM062X) =  -1615.58725866     A.U. after   21 cycles
 SCF Done:  E(UM062X) =  -1615.58762651     A.U. after   19 cycles
 SCF Done:  E(UM062X) =  -1615.58763086     A.U. after   15 cycles
 SCF Done:  E(UM062X) =  -1615.58763202     A.U. after   14 cycles
 SCF Done:  E(UM062X) =  -1615.58763290     A.U. after   13 cycles
 SCF Done:  E(UM062X) =  -1615.58763316     A.U. after   13 cycles
 SCF Done:  E(UM062X) =  -1615.58763324     A.U. after   12 cycles
 Optimization completed.
    -- Stationary point found.

                          Input orientation:
 ---------------------------------------------------------------------
 Center     Atomic      Atomic             Coordinates (Angstroms)
 Number     Number       Type             X           Y           Z
 ---------------------------------------------------------------------
      1          6           0       -1.369591    0.000000    0.000000
      2          6           0        1.369591    0.000000    0.000000
      3          6           0        0.000003   -2.122958    0.000115
      4          6           0       -0.000017   -3.507686    0.000164
      5          6           0       -1.133261   -4.314693    0.244481
      6          6           0       -1.252692   -1.479555    0.221663
      7          6           0        0.661610   -5.709881   -0.144193
      8          1           0        1.281286   -6.584237   -0.283070
      9          6           0       -1.534589    0.806227    1.188469
     10          6           0       -0.661680   -5.709855    0.144743
     11          1           0       -1.281372   -6.584187    0.283697
     12          6           0        1.133207   -4.314737   -0.244089
     13          6           0        1.252696   -1.479581   -0.221566
     14          6           0        1.710110    2.225884   -1.245320
     15          6           0       -1.548724    0.352549   -1.392445
     16          6           0       -1.883424    2.847440    2.496655
     17          1           0       -2.029790    3.921194    2.514780
     18          6           0       -2.323033   -3.681094    0.508492
     19          1           0       -3.235125   -4.230400    0.711887
     20          6           0       -1.586728    1.676863   -1.937272
     21          6           0        2.363731   -2.257152   -0.484089
     22          1           0        3.317847   -1.763940   -0.639130
     23          6           0        1.548668    0.352578    1.392450
     24          6           0        1.586356    1.676903    1.937287
     25          6           0        2.322980   -3.681182   -0.508205
     26          1           0        3.235055   -4.230522   -0.711586
     27          6           0       -1.710116    2.225861    1.245378
     28          6           0       -1.482197    0.127459    2.439084
     29          1           0       -1.307401   -0.937379    2.451707
     30          6           0        1.658509   -0.715561    2.335733
     31          1           0        1.668475   -1.736734    1.987084
     32          6           0       -1.872018    2.144273    3.682564
     33          1           0       -2.017344    2.658187    4.624982
     34          6           0       -2.363763   -2.257063    0.484205
     35          1           0       -3.317876   -1.763815    0.639143
     36          6           0       -1.674272    1.847571   -3.334526
     37          1           0       -1.682092    2.859850   -3.721661
     38          6           0        1.534780    0.806220   -1.188445
     39          6           0       -1.669441    3.136169    0.130855
     40          1           0       -1.713351    4.182074    0.418810
     41          6           0       -1.777863    0.788317   -4.206133
     42          1           0       -1.865442    0.961818   -5.271775
     43          6           0       -1.586116    2.907369   -1.193700
     44          1           0       -1.564303    3.796065   -1.817308
     45          6           0        1.673869    1.847626    3.334538
     46          1           0        1.681387    2.859904    3.721682
     47          6           0       -1.651515    0.765881    3.647153
     48          1           0       -1.606355    0.192470    4.565036
     49          6           0       -1.658355   -0.715612   -2.335739
     50          1           0       -1.668130   -1.736793   -1.987114
     51          6           0        1.777740    0.788388    4.206132
     52          1           0        1.865280    0.961897    5.271776
     53          6           0        1.883751    2.847471   -2.496543
     54          1           0        2.029942    3.921249   -2.514639
     55          6           0        1.786987   -0.510850    3.689121
     56          1           0        1.891213   -1.363460    4.348944
     57          6           0        1.872851    2.144280   -3.682442
     58          1           0        2.018447    2.658189   -4.624820
     59          6           0        1.668868    3.136209   -0.130827
     60          1           0        1.712462    4.182121   -0.418805
     61          6           0       -1.786825   -0.510926   -3.689130
     62          1           0       -1.890809   -1.363559   -4.348962
     63          6           0        1.585390    2.907407    1.193716
     64          1           0        1.563119    3.796101    1.817312
     65          6           0        1.482841    0.127435   -2.439066
     66          1           0        1.308136   -0.937415   -2.451730
     67          6           0        1.652496    0.765863   -3.647086
     68          1           0        1.607735    0.192439   -4.564979
 ---------------------------------------------------------------------

 Alpha  occ. eigenvalues --  -10.71035 -10.71034 -10.68577 -10.68577 -10.68561
 Alpha  occ. eigenvalues --  -10.68561 -10.68232 -10.68232 -10.68148 -10.68148
 Alpha  occ. eigenvalues --  -10.67065 -10.67064 -10.66601 -10.66601 -10.66497
 Alpha  occ. eigenvalues --  -10.66496 -10.66167 -10.65994 -10.65993 -10.65783
 Alpha  occ. eigenvalues --  -10.65783 -10.65767 -10.65767 -10.65746 -10.65746
 Alpha  occ. eigenvalues --  -10.65716 -10.65715 -10.65643 -10.65643 -10.65590
 Alpha  occ. eigenvalues --  -10.65590 -10.65536 -10.65536 -10.65483 -10.65483
 Alpha  occ. eigenvalues --  -10.65294 -10.65294 -10.64984 -10.64984 -10.63983
 Alpha  occ. eigenvalues --  -10.63884 -10.63376  -1.12356  -1.10214  -1.10185
 Alpha  occ. eigenvalues --   -1.08412  -1.07786  -1.05678  -1.04862  -1.02574
 Alpha  occ. eigenvalues --   -1.02106  -1.00891  -1.00464  -0.97952  -0.97631
 Alpha  occ. eigenvalues --   -0.96853  -0.96272  -0.95010  -0.93508  -0.93481
 Alpha  occ. eigenvalues --   -0.92828  -0.91865  -0.87402  -0.87392  -0.84985
 Alpha  occ. eigenvalues --   -0.84757  -0.83100  -0.81449  -0.81195  -0.79832
 Alpha  occ. eigenvalues --   -0.79724  -0.79531  -0.77523  -0.76399  -0.76192
 Alpha  occ. eigenvalues --   -0.75797  -0.75435  -0.73555  -0.70243  -0.69697
 Alpha  occ. eigenvalues --   -0.69053  -0.68536  -0.67749  -0.67639  -0.66947
 Alpha  occ. eigenvalues --   -0.66853  -0.65699  -0.65370  -0.65181  -0.64803
 Alpha  occ. eigenvalues --   -0.63296  -0.62919  -0.62372  -0.62161  -0.61127
 Alpha  occ. eigenvalues --   -0.61058  -0.60668  -0.60484  -0.60100  -0.60075
 Alpha  occ. eigenvalues --   -0.59583  -0.58924  -0.58802  -0.58141  -0.57813
 Alpha  occ. eigenvalues --   -0.57605  -0.56802  -0.55928  -0.55668  -0.55644
 Alpha  occ. eigenvalues --   -0.54979  -0.53997  -0.53114  -0.52842  -0.52658
 Alpha  occ. eigenvalues --   -0.52431  -0.52332  -0.52293  -0.51070  -0.50986
 Alpha  occ. eigenvalues --   -0.50981  -0.50905  -0.50203  -0.49509  -0.49362
 Alpha  occ. eigenvalues --   -0.48868  -0.48540  -0.47852  -0.44914  -0.44653
 Alpha  occ. eigenvalues --   -0.44122  -0.42829  -0.40482  -0.40428  -0.39287
 Alpha  occ. eigenvalues --   -0.38163  -0.37578  -0.37153  -0.31682
 Alpha virt. eigenvalues --   -0.20148  -0.15878  -0.15559  -0.14356  -0.10598
 Alpha virt. eigenvalues --   -0.09953  -0.08894  -0.08544  -0.08362  -0.07569
 Alpha virt. eigenvalues --   -0.07514  -0.07458  -0.06651  -0.06371  -0.06135

  Beta  occ. eigenvalues --  -10.70896 -10.70896 -10.68615 -10.68615 -10.68590
  Beta  occ. eigenvalues --  -10.68590 -10.68192 -10.68192 -10.68106 -10.68105
  Beta  occ. eigenvalues --  -10.67082 -10.67081 -10.66594 -10.66594 -10.66486
  Beta  occ. eigenvalues --  -10.66486 -10.66140 -10.65956 -10.65956 -10.65753
  Beta  occ. eigenvalues --  -10.65753 -10.65746 -10.65745 -10.65737 -10.65737
  Beta  occ. eigenvalues --  -10.65690 -10.65690 -10.65661 -10.65661 -10.65607
  Beta  occ. eigenvalues --  -10.65607 -10.65522 -10.65522 -10.65493 -10.65493
  Beta  occ. eigenvalues --  -10.65309 -10.65309 -10.64981 -10.64981 -10.63983
  Beta  occ. eigenvalues --  -10.63884 -10.63374  -1.12194  -1.10124  -1.10028
  Beta  occ. eigenvalues --   -1.08298  -1.07686  -1.05514  -1.04737  -1.02451
  Beta  occ. eigenvalues --   -1.01998  -1.00729  -1.00290  -0.97850  -0.97538
  Beta  occ. eigenvalues --   -0.96734  -0.96170  -0.94960  -0.93444  -0.93384
  Beta  occ. eigenvalues --   -0.92746  -0.91777  -0.87108  -0.87042  -0.84916
  Beta  occ. eigenvalues --   -0.84694  -0.83020  -0.81357  -0.81081  -0.79749
  Beta  occ. eigenvalues --   -0.79654  -0.79460  -0.77409  -0.76244  -0.76043
  Beta  occ. eigenvalues --   -0.75633  -0.75400  -0.73432  -0.70128  -0.69552
  Beta  occ. eigenvalues --   -0.68915  -0.68428  -0.67694  -0.67590  -0.66824
  Beta  occ. eigenvalues --   -0.66751  -0.65621  -0.65228  -0.65043  -0.64702
  Beta  occ. eigenvalues --   -0.63061  -0.62875  -0.62291  -0.62080  -0.60921
  Beta  occ. eigenvalues --   -0.60786  -0.60513  -0.60353  -0.60040  -0.60023
  Beta  occ. eigenvalues --   -0.59459  -0.58786  -0.58719  -0.58067  -0.57588
  Beta  occ. eigenvalues --   -0.57357  -0.56616  -0.55617  -0.55594  -0.55581
  Beta  occ. eigenvalues --   -0.54961  -0.53667  -0.52998  -0.52757  -0.52581
  Beta  occ. eigenvalues --   -0.52371  -0.52224  -0.52214  -0.50957  -0.50917
  Beta  occ. eigenvalues --   -0.50818  -0.50490  -0.49569  -0.49247  -0.48910
  Beta  occ. eigenvalues --   -0.48639  -0.48483  -0.47526  -0.44385  -0.44112
  Beta  occ. eigenvalues --   -0.43393  -0.42487  -0.40361  -0.40081  -0.38681
  Beta  occ. eigenvalues --   -0.37983  -0.37340  -0.37019
  Beta virt. eigenvalues --   -0.21820  -0.17715  -0.15641  -0.15507  -0.14396
  Beta virt. eigenvalues --   -0.10334  -0.09557  -0.08521  -0.08427  -0.08207
  Beta virt. eigenvalues --   -0.07574  -0.07572  -0.07210  -0.06631  -0.06312

 Mulliken charges and spin densities:
               1          2
     1  C    0.017459   0.336459
     2  C    0.017789   0.336494
     3  C    0.247478   0.006763
     4  C    0.108242  -0.000097
     5  C    0.113607   0.005063
     6  C   -0.010896  -0.031276
     7  C   -0.308973   0.001105
     8  H    0.176275  -0.000045
     9  C    0.224091  -0.048789
    10  C   -0.308991   0.001107
    11  H    0.176275  -0.000045
    12  C    0.113794   0.005061
    13  C   -0.010809  -0.031290
    14  C    0.319697   0.046289
    15  C    0.320211  -0.060354
    16  C   -0.264068  -0.034099
    17  H    0.163917   0.001061
    18  C   -0.451162  -0.000160
    19  H    0.175862   0.000292
    20  C    0.224497   0.100337
    21  C   -0.133248   0.016725
    22  H    0.174438  -0.000211
    23  C    0.320313  -0.060344
    24  C    0.224101   0.100331
    25  C   -0.451066  -0.000163
    26  H    0.175861   0.000292
    27  C    0.319288   0.046310
    28  C   -0.061766   0.065875
    29  H    0.206340  -0.003650
    30  C   -0.296298   0.033826
    31  H    0.226464  -0.002196
    32  C   -0.387585   0.057108
    33  H    0.182004  -0.003076
    34  C   -0.133350   0.016712
    35  H    0.174425  -0.000210
    36  C   -0.038270  -0.053135
    37  H    0.161584   0.001476
    38  C    0.224142  -0.048729
    39  C   -0.292695   0.059848
    40  H    0.166436  -0.003607
    41  C   -0.225548   0.060875
    42  H    0.180496  -0.003016
    43  C   -0.296786   0.015935
    44  H    0.159697  -0.000840
    45  C   -0.038282  -0.053117
    46  H    0.161583   0.001476
    47  C   -0.111203  -0.029020
    48  H    0.168862  -0.000301
    49  C   -0.296502   0.033830
    50  H    0.226463  -0.002197
    51  C   -0.225693   0.060844
    52  H    0.180502  -0.003017
    53  C   -0.264261  -0.034115
    54  H    0.163908   0.001061
    55  C   -0.336203  -0.032927
    56  H    0.175259   0.001051
    57  C   -0.387645   0.057127
    58  H    0.181996  -0.003076
    59  C   -0.292479   0.059870
    60  H    0.166418  -0.003608
    61  C   -0.336125  -0.032921
    62  H    0.175255   0.001051
    63  C   -0.296625   0.015929
    64  H    0.159678  -0.000841
    65  C   -0.061513   0.065912
    66  H    0.206311  -0.003649
    67  C   -0.111835  -0.029074
    68  H    0.168864  -0.000300
 Sum of Mulliken charges =   1.00000   1.00000

 Dipole moment (field-independent basis, Debye):
    X=              0.0000    Y=              2.4180    Z=             -0.0002  Tot=              2.4180
 Quadrupole moment (field-independent basis, Debye-Ang):
   XX=           -222.5529   YY=           -175.0732   ZZ=           -176.2024
   XY=             -0.0041   XZ=             -1.5902   YZ=             -0.0008

 Normal termination of Gaussian 16 at Fri Nov  8 22:55:39 2024.
