 Gaussian 16, Revision A.03,
 Gaussian 16:  ES64L-G16RevA.03 25-Dec-2016

 --------------------------------------------
 #p opt UM062X/6-311+G** nosymm int=superfine
 --------------------------------------------

 -------------------
 Title Card Required
 -------------------
 Symbolic Z-matrix:
 Charge =  1 Multiplicity = 2

 SCF Done:  E(UM062X) =  -76.8766661374     A.U. after   10 cycles
 SCF Done:  E(UM062X) =  -76.9568785820     A.U. after   10 cycles
 SCF Done:  E(UM062X) =  -77.0505906881     A.U. after   10 cycles
 SCF Done:  E(UM062X) =  -77.0813208430     A.U. after   11 cycles
 SCF Done:  E(UM062X) =  -77.0960312469     A.U. after    9 cycles
 SCF Done:  E(UM062X) =  -77.1028565856     A.U. after    9 cycles
 SCF Done:  E(UM062X) =  -77.1030376850     A.U. after    8 cycles
 Optimization completed.
    -- Stationary point found.

                          Input orientation:
 ---------------------------------------------------------------------
 Center     Atomic      Atomic             Coordinates (Angstroms)
 Number     Number       Type             X           Y           Z
 ---------------------------------------------------------------------
      1          6           0       -0.388791    0.000000    0.000000
      2          6           0        0.388791    0.000000    0.000000
      3          1           0       -1.240964   -0.755170   -0.000000
      4          1           0       -1.238163    0.759499    0.000000
      5          1           0        1.240964    0.755170   -0.000000
      6          1           0        1.238163   -0.759499    0.000000
 ---------------------------------------------------------------------

 Alpha  occ. eigenvalues --  -10.86592 -10.77271  -1.23709  -0.95917  -0.91955
 Alpha  occ. eigenvalues --   -0.88371  -0.81154  -0.59084
 Alpha virt. eigenvalues --   -0.20286  -0.15679  -0.13923  -0.12061  -0.11676
 Alpha virt. eigenvalues --   -0.09193  -0.07775  -0.06226  -0.01644   0.00081
 Alpha virt. eigenvalues --    0.00879   0.03089   0.16998   0.17366   0.20372

  Beta  occ. eigenvalues --  -10.86689 -10.77329  -1.22986  -0.91270  -0.88709
  Beta  occ. eigenvalues --   -0.85662  -0.81063
  Beta virt. eigenvalues --   -0.38696  -0.18070  -0.15481  -0.13520  -0.11986
  Beta virt. eigenvalues --   -0.11349  -0.09042  -0.04554  -0.02909  -0.01205
  Beta virt. eigenvalues --    0.00910   0.02126   0.04087   0.16070   0.17008

 Mulliken charges and spin densities:
               1          2
     1  C   -0.133884   0.078458
     2  C   -0.133884   0.078458
     3  H    0.316848   0.209901
     4  H    0.317036   0.211640
     5  H    0.316848   0.209901
     6  H    0.317036   0.211640
 Sum of Mulliken charges =   1.00000   1.00000

 Dipole moment (field-independent basis, Debye):
    X=              0.0000    Y=             -0.0000    Z=             -0.0000  Tot=              0.0000
 Quadrupole moment (field-independent basis, Debye-Ang):
   XX=             -2.5840   YY=             -7.7109   ZZ=            -11.3720
   XY=             -0.0113   XZ=             -0.0000   YZ=             -0.0000

 Normal termination of Gaussian 16 at Tue Nov 19 10:31:38 2024.
