 Gaussian 16, Revision A.03,
 Gaussian 16:  ES64L-G16RevA.03 25-Dec-2016

 --------------------------------------------
 #p opt UM062X/6-311+G** nosymm int=superfine
 --------------------------------------------

 -------------------
 Title Card Required
 -------------------
 Symbolic Z-matrix:
 Charge =  0 Multiplicity = 1

 SCF Done:  E(UM062X) =  -76.9369137327     A.U. after   10 cycles
 SCF Done:  E(UM062X) =  -76.9817383027     A.U. after    9 cycles
 SCF Done:  E(UM062X) =  -77.0482081234     A.U. after   10 cycles
 SCF Done:  E(UM062X) =  -77.0732684215     A.U. after   10 cycles
 SCF Done:  E(UM062X) =  -77.0734484315     A.U. after    8 cycles
 Optimization completed.
    -- Stationary point found.

                          Input orientation:
 ---------------------------------------------------------------------
 Center     Atomic      Atomic             Coordinates (Angstroms)
 Number     Number       Type             X           Y           Z
 ---------------------------------------------------------------------
      1          6           0       -0.861862    0.000000    0.000000
      2          6           0        0.861862    0.000000    0.000000
      3          1           0       -1.939149    0.000000   -0.000000
      4          1           0        1.939117    0.000000   -0.000000
 ---------------------------------------------------------------------

 Alpha  occ. eigenvalues --  -10.66237 -10.66208  -0.77499  -0.69865  -0.52736
 Alpha  occ. eigenvalues --   -0.30030  -0.30030
 Alpha virt. eigenvalues --   -0.05017  -0.05017  -0.00749   0.02298   0.05257
 Alpha virt. eigenvalues --    0.08454   0.08454   0.09579   0.11007   0.11007
 Alpha virt. eigenvalues --    0.17547   0.22443   0.27103   0.46819   0.58409

  Beta  occ. eigenvalues --  -10.66237 -10.66208  -0.77499  -0.69865  -0.52736
  Beta  occ. eigenvalues --   -0.30030  -0.30030
  Beta virt. eigenvalues --   -0.05017  -0.05017  -0.00749   0.02298   0.05257
  Beta virt. eigenvalues --    0.08454   0.08454   0.09579   0.11007   0.11007
  Beta virt. eigenvalues --    0.17547   0.22443   0.27103   0.46819   0.58409

 Mulliken charges and spin densities:
               1          2
     1  C   -0.248807  -0.000000
     2  C   -0.248808   0.000000
     3  H    0.248812   0.000000
     4  H    0.248803  -0.000000
 Sum of Mulliken charges =  -0.00000   0.00000

 Dipole moment (field-independent basis, Debye):
    X=             -0.0001    Y=              0.0000    Z=             -0.0000  Tot=              0.0001
 Quadrupole moment (field-independent basis, Debye-Ang):
   XX=             -4.8657   YY=            -15.8553   ZZ=            -15.8553
   XY=              0.0000   XZ=             -0.0000   YZ=             -0.0000

 Normal termination of Gaussian 16 at Tue Dec  3 20:15:44 2024.
