 Gaussian 16, Revision A.03,
 Gaussian 16:  ES64L-G16RevA.03 25-Dec-2016

 --------------------------------------------
 #p opt UM062X/6-311+G** nosymm int=superfine
 --------------------------------------------

 -------------------
 Title Card Required
 -------------------
 Symbolic Z-matrix:
 Charge =  0 Multiplicity = 1

 SCF Done:  E(UM062X) =  -51.8047045277     A.U. after   10 cycles
 SCF Done:  E(UM062X) =  -51.8098536184     A.U. after    9 cycles
 SCF Done:  E(UM062X) =  -51.8127793317     A.U. after   11 cycles
 SCF Done:  E(UM062X) =  -51.8127818810     A.U. after    9 cycles
 SCF Done:  E(UM062X) =  -51.8127734143     A.U. after    8 cycles
 SCF Done:  E(UM062X) =  -51.8127812315     A.U. after   11 cycles
 SCF Done:  E(UM062X) =  -51.8127818478     A.U. after    8 cycles
 Optimization completed.
    -- Stationary point found.

                          Input orientation:
 ---------------------------------------------------------------------
 Center     Atomic      Atomic             Coordinates (Angstroms)
 Number     Number       Type             X           Y           Z
 ---------------------------------------------------------------------
      1          5           0       -1.920607    0.000000    0.000000
      2          5           0        1.920607    0.000000    0.000000
      3          1           0       -2.386756   -1.083644    0.000676
      4          1           0        2.386756    1.083632   -0.005139
      5          1           0       -2.386757    1.083643    0.000952
      6          1           0        2.386757   -1.083623    0.006760
 ---------------------------------------------------------------------

 Alpha  occ. eigenvalues --   -7.11363  -7.11362  -0.57837  -0.57462  -0.45002
 Alpha  occ. eigenvalues --   -0.44885  -0.20545
 Alpha virt. eigenvalues --   -0.06481  -0.05181  -0.03835   0.02288   0.03284
 Alpha virt. eigenvalues --    0.03852   0.05478   0.06246   0.07278   0.08233
 Alpha virt. eigenvalues --    0.10080   0.15468   0.16154   0.17132   0.24444

  Beta  occ. eigenvalues --   -7.11363  -7.11362  -0.57837  -0.57462  -0.45002
  Beta  occ. eigenvalues --   -0.44885  -0.20545
  Beta virt. eigenvalues --   -0.06481  -0.05181  -0.03835   0.02288   0.03284
  Beta virt. eigenvalues --    0.03852   0.05478   0.06246   0.07278   0.08233
  Beta virt. eigenvalues --    0.10080   0.15468   0.16154   0.17132   0.24444

 Mulliken charges and spin densities:
               1          2
     1  B   -0.057042   0.000000
     2  B   -0.057042  -0.000000
     3  H    0.028521   0.000000
     4  H    0.028521  -0.000000
     5  H    0.028521   0.000000
     6  H    0.028521  -0.000000
 Sum of Mulliken charges =  -0.00000  -0.00000

 Dipole moment (field-independent basis, Debye):
    X=              0.0000    Y=              0.0000    Z=              0.0014  Tot=              0.0014
 Quadrupole moment (field-independent basis, Debye-Ang):
   XX=            -11.5925   YY=            -16.9452   ZZ=            -14.4970
   XY=             -0.0000   XZ=              0.0000   YZ=              0.0066

 Normal termination of Gaussian 16 at Mon Apr 21 17:15:28 2025.
