 Gaussian 16, Revision A.03,
 Gaussian 16:  ES64L-G16RevA.03 25-Dec-2016

 ---------------------------------------
 #p UM062X/6-311+G** force int=superfine
 ---------------------------------------

 -------------------
 Title Card Required
 -------------------
 Symbolic Z-matrix:
 Charge =  0 Multiplicity = 1

                         Standard orientation:
 ---------------------------------------------------------------------
 Center     Atomic      Atomic             Coordinates (Angstroms)
 Number     Number       Type             X           Y           Z
 ---------------------------------------------------------------------
      1          6           0        0.000000    0.841847    0.000000
      2          6           0       -0.000000   -0.841847    0.000000
      3          1           0        0.951590    1.351706   -0.000000
      4          1           0       -0.951528    1.351723    0.000000
      5          1           0       -0.951590   -1.351706    0.000000
      6          1           0        0.951528   -1.351723    0.000000
 ---------------------------------------------------------------------

 SCF Done:  E(UM062X) =  -78.4824195114     A.U. after    8 cycles

 The electronic state is 1-AG.
 Alpha  occ. eigenvalues --  -10.58556 -10.58528  -0.80085  -0.69353  -0.53062
 Alpha  occ. eigenvalues --   -0.46865  -0.42914  -0.28731
 Alpha virt. eigenvalues --   -0.02795   0.03373   0.03543   0.05366   0.07674
 Alpha virt. eigenvalues --    0.08563   0.09744   0.11840   0.15741   0.16768
 Alpha virt. eigenvalues --    0.19213   0.20880   0.23863   0.29288   0.41200

  Beta  occ. eigenvalues --  -10.58556 -10.58528  -0.80085  -0.69353  -0.53062
  Beta  occ. eigenvalues --   -0.46865  -0.42914  -0.28731
  Beta virt. eigenvalues --   -0.02795   0.03373   0.03543   0.05366   0.07674
  Beta virt. eigenvalues --    0.08563   0.09744   0.11840   0.15741   0.16768
  Beta virt. eigenvalues --    0.19213   0.20880   0.23863   0.29288   0.41200

 Mulliken charges and spin densities:
               1          2
     1  C   -0.334780  -0.000000
     2  C   -0.334780  -0.000000
     3  H    0.167389  -0.000000
     4  H    0.167391   0.000000
     5  H    0.167389  -0.000000
     6  H    0.167391   0.000000
 Sum of Mulliken charges =   0.00000   0.00000

 Dipole moment (field-independent basis, Debye):
    X=              0.0000    Y=             -0.0000    Z=             -0.0000  Tot=              0.0000
 Quadrupole moment (field-independent basis, Debye-Ang):
   XX=            -12.2166   YY=            -11.8043   ZZ=            -17.2701
   XY=             -0.0000   XZ=             -0.0000   YZ=             -0.0000

 Normal termination of Gaussian 16 at Tue Nov 19 11:47:04 2024.
