 Gaussian 16, Revision A.03,
 Gaussian 16:  ES64L-G16RevA.03 25-Dec-2016

 ---------------------------------------
 #p UM062X/6-311+G** force int=superfine
 ---------------------------------------

 -------------------
 Title Card Required
 -------------------
 Symbolic Z-matrix:
 Charge =  1 Multiplicity = 2

                         Standard orientation:
 ---------------------------------------------------------------------
 Center     Atomic      Atomic             Coordinates (Angstroms)
 Number     Number       Type             X           Y           Z
 ---------------------------------------------------------------------
      1          6           0       -0.243584    0.489974   -1.208720
      2          6           0        0.243568   -0.489974    1.208723
      3          1           0        0.150954   -1.521010    0.887272
      4          1           0        0.607160   -0.008523   -1.658917
      5          1           0       -0.606896    0.008462    1.659517
      6          1           0        1.225511   -0.035281    1.271841
      7          1           0       -0.151125    1.521024   -0.887267
      8          1           0       -1.225509    0.035329   -1.272462
 ---------------------------------------------------------------------

 SCF Done:  E(UM062X) =  -79.3518228940     A.U. after    9 cycles

 The electronic state is 2-A.
 Alpha  occ. eigenvalues --  -10.85520 -10.85516  -1.05644  -1.02602  -0.75829
 Alpha  occ. eigenvalues --   -0.75828  -0.74247  -0.74246  -0.55736
 Alpha virt. eigenvalues --   -0.32968  -0.14914  -0.10509  -0.10509  -0.10036
 Alpha virt. eigenvalues --   -0.06206  -0.06206  -0.06041  -0.03414  -0.03411
 Alpha virt. eigenvalues --   -0.02979   0.01536   0.01539   0.05449   0.07436

  Beta  occ. eigenvalues --  -10.85324 -10.85324  -1.02474  -1.00195  -0.75151
  Beta  occ. eigenvalues --   -0.75150  -0.73710  -0.73709
  Beta virt. eigenvalues --   -0.33691  -0.23815  -0.15540  -0.11111  -0.11110
  Beta virt. eigenvalues --   -0.09652  -0.06542  -0.06542  -0.06016  -0.03381
  Beta virt. eigenvalues --   -0.03378  -0.02216   0.01921   0.01923   0.05987

 Mulliken charges and spin densities:
               1          2
     1  C   -0.280786   0.574087
     2  C   -0.280785   0.574087
     3  H    0.260286  -0.024697
     4  H    0.260246  -0.024681
     5  H    0.260270  -0.024688
     6  H    0.260228  -0.024701
     7  H    0.260287  -0.024697
     8  H    0.260253  -0.024707
 Sum of Mulliken charges =   1.00000   1.00000

 Dipole moment (field-independent basis, Debye):
    X=              0.0000    Y=              0.0000    Z=             -0.0000  Tot=              0.0000
 Quadrupole moment (field-independent basis, Debye-Ang):
   XX=            -10.6889   YY=             -9.8498   ZZ=             -4.1915
   XY=             -0.5535   XZ=              1.3646   YZ=             -2.7465

 Normal termination of Gaussian 16 at Wed Nov 13 13:01:50 2024.
