 Gaussian 16, Revision A.03,
 Gaussian 16:  ES64L-G16RevA.03 25-Dec-2016

 ---------------------------------------
 #p UM062X/6-311+G** force int=superfine
 ---------------------------------------

 -------------------
 Title Card Required
 -------------------
 Symbolic Z-matrix:
 Charge =  1 Multiplicity = 2

                         Standard orientation:
 ---------------------------------------------------------------------
 Center     Atomic      Atomic             Coordinates (Angstroms)
 Number     Number       Type             X           Y           Z
 ---------------------------------------------------------------------
      1          6           0        0.564749    0.825175   -1.695980
      2          6           0       -0.564752   -0.825170    1.695981
      3          1           0       -1.476686   -1.196733    1.243659
      4          1           0        0.561755   -0.136675   -2.195088
      5          1           0       -0.561824    0.136215    2.195987
      6          1           0        0.321177   -1.448808    1.717783
      7          1           0        1.476599    1.196938   -1.243651
      8          1           0       -0.321003    1.449033   -1.718698
 ---------------------------------------------------------------------

 SCF Done:  E(UM062X) =  -79.3183882385     A.U. after   10 cycles

 The electronic state is 2-A.
 Alpha  occ. eigenvalues --  -10.83576 -10.83575  -1.02139  -1.01792  -0.73186
 Alpha  occ. eigenvalues --   -0.73186  -0.73067  -0.73066  -0.47595
 Alpha virt. eigenvalues --   -0.37579  -0.12770  -0.10162  -0.09450  -0.09450
 Alpha virt. eigenvalues --   -0.06220  -0.06220  -0.04388  -0.02941  -0.00110
 Alpha virt. eigenvalues --   -0.00107   0.01362   0.01364   0.02730   0.08684

  Beta  occ. eigenvalues --  -10.83357 -10.83356  -0.99483  -0.99264  -0.72665
  Beta  occ. eigenvalues --   -0.72664  -0.72527  -0.72527
  Beta virt. eigenvalues --   -0.32632  -0.26632  -0.16578  -0.10888  -0.10887
  Beta virt. eigenvalues --   -0.10219  -0.06215  -0.06214  -0.05228  -0.01989
  Beta virt. eigenvalues --   -0.00355  -0.00352   0.01625   0.01627   0.02487

 Mulliken charges and spin densities:
               1          2
     1  C   -0.251003   0.557128
     2  C   -0.251002   0.557129
     3  H    0.250351  -0.019043
     4  H    0.250307  -0.019051
     5  H    0.250327  -0.019054
     6  H    0.250324  -0.019033
     7  H    0.250352  -0.019042
     8  H    0.250344  -0.019035
 Sum of Mulliken charges =   1.00000   1.00000

 Dipole moment (field-independent basis, Debye):
    X=              0.0000    Y=             -0.0000    Z=             -0.0000  Tot=              0.0001
 Quadrupole moment (field-independent basis, Debye-Ang):
   XX=             -9.6006   YY=             -7.8849   ZZ=              2.5204
   XY=              2.2101   XZ=             -4.5417   YZ=             -6.6346

 Normal termination of Gaussian 16 at Wed Nov 13 13:06:28 2024.
