 Gaussian 16, Revision A.03,
 Gaussian 16:  ES64L-G16RevA.03 25-Dec-2016

 --------------------------------------------
 #p opt UM062X/6-311+G** nosymm int=superfine
 --------------------------------------------

 -------------------
 Title Card Required
 -------------------
 Symbolic Z-matrix:
 Charge =  0 Multiplicity = 1

 SCF Done:  E(UM062X) =  -110.269507890     A.U. after   13 cycles
 SCF Done:  E(UM062X) =  -110.279820910     A.U. after   12 cycles
 SCF Done:  E(UM062X) =  -110.283993078     A.U. after   13 cycles
 SCF Done:  E(UM062X) =  -110.284000167     A.U. after    9 cycles
 Optimization completed.
    -- Stationary point found.

                          Input orientation:
 ---------------------------------------------------------------------
 Center     Atomic      Atomic             Coordinates (Angstroms)
 Number     Number       Type             X           Y           Z
 ---------------------------------------------------------------------
      1          7           0       -1.265428    0.000000    0.000000
      2          7           0        1.265428    0.000000    0.000000
      3          1           0       -1.137362   -1.029159    0.000000
      4          1           0        1.137362    1.029159    0.000000
 ---------------------------------------------------------------------

 Alpha  occ. eigenvalues --  -14.88796 -14.88791  -0.93920  -0.90761  -0.49632
 Alpha  occ. eigenvalues --   -0.47937  -0.35623  -0.32109
 Alpha virt. eigenvalues --   -0.18934  -0.14676   0.05676   0.07635   0.10643
 Alpha virt. eigenvalues --    0.12148   0.13326   0.14804   0.15966   0.19503
 Alpha virt. eigenvalues --    0.19540   0.24293   0.52822   0.55883   0.73851

  Beta  occ. eigenvalues --  -14.88796 -14.88791  -0.93920  -0.90761  -0.49632
  Beta  occ. eigenvalues --   -0.47937  -0.35623  -0.32109
  Beta virt. eigenvalues --   -0.18934  -0.14676   0.05676   0.07635   0.10643
  Beta virt. eigenvalues --    0.12148   0.13326   0.14804   0.15966   0.19503
  Beta virt. eigenvalues --    0.19540   0.24293   0.52822   0.55883   0.73851

 Mulliken charges and spin densities:
               1          2
     1  N   -0.245734  -0.000000
     2  N   -0.245734   0.000000
     3  H    0.245734   0.000000
     4  H    0.245734  -0.000000
 Sum of Mulliken charges =  -0.00000   0.00000

 Dipole moment (field-independent basis, Debye):
    X=             -0.0000    Y=              0.0000    Z=              0.0000  Tot=              0.0000
 Quadrupole moment (field-independent basis, Debye-Ang):
   XX=            -13.7217   YY=            -10.9702   ZZ=            -14.1340
   XY=              4.4418   XZ=              0.0000   YZ=              0.0000

 Normal termination of Gaussian 16 at Thu May 15 15:37:01 2025.
