 Gaussian 16, Revision A.03,
 Gaussian 16:  ES64L-G16RevA.03 25-Dec-2016

 --------------------------------------------
 #p opt UM062X/6-311+G** nosymm int=superfine
 --------------------------------------------

 -------------------
 Title Card Required
 -------------------
 Symbolic Z-matrix:
 Charge =  0 Multiplicity = 1

 SCF Done:  E(UM062X) =  -797.391788550     A.U. after   14 cycles
 SCF Done:  E(UM062X) =  -797.391991318     A.U. after   12 cycles
 SCF Done:  E(UM062X) =  -797.392346877     A.U. after   13 cycles
 SCF Done:  E(UM062X) =  -797.392837461     A.U. after   14 cycles
 SCF Done:  E(UM062X) =  -797.392884637     A.U. after   14 cycles
 SCF Done:  E(UM062X) =  -797.392891931     A.U. after   17 cycles
 SCF Done:  E(UM062X) =  -797.358970588     A.U. after   20 cycles
 SCF Done:  E(UM062X) =  -797.391922394     A.U. after   18 cycles
 SCF Done:  E(UM062X) =  -797.392900450     A.U. after   13 cycles
 SCF Done:  E(UM062X) =  -797.392761310     A.U. after   16 cycles
 SCF Done:  E(UM062X) =  -797.392442485     A.U. after   18 cycles
 SCF Done:  E(UM062X) =  -797.392813478     A.U. after   15 cycles
 SCF Done:  E(UM062X) =  -797.392899484     A.U. after   13 cycles
 SCF Done:  E(UM062X) =  -797.392905246     A.U. after   11 cycles
 SCF Done:  E(UM062X) =  -797.392666638     A.U. after   17 cycles
 SCF Done:  E(UM062X) =  -797.392902181     A.U. after   12 cycles
 SCF Done:  E(UM062X) =  -797.392909972     A.U. after   11 cycles
 SCF Done:  E(UM062X) =  -797.392910178     A.U. after   12 cycles
 SCF Done:  E(UM062X) =  -797.392910537     A.U. after   12 cycles
 Optimization completed.
    -- Stationary point found.

                          Input orientation:
 ---------------------------------------------------------------------
 Center     Atomic      Atomic             Coordinates (Angstroms)
 Number     Number       Type             X           Y           Z
 ---------------------------------------------------------------------
      1         16           0       -2.143191    0.000000    0.000000
      2         16           0        2.143191    0.000000    0.000000
      3          1           0       -1.983705   -1.305277   -0.288784
      4          1           0        1.983797    0.286047    1.305878
 ---------------------------------------------------------------------

 Alpha  occ. eigenvalues --  -89.94483 -89.94483  -8.30725  -8.30725  -6.22870
 Alpha  occ. eigenvalues --   -6.22870  -6.22621  -6.22621  -6.22053  -6.22053
 Alpha  occ. eigenvalues --   -0.81471  -0.81145  -0.47387  -0.47349  -0.33454
 Alpha  occ. eigenvalues --   -0.33324  -0.30721
 Alpha virt. eigenvalues --   -0.21889   0.01855   0.03047   0.04421   0.04821
 Alpha virt. eigenvalues --    0.06587   0.06804   0.07240   0.07385   0.09018
 Alpha virt. eigenvalues --    0.12900   0.30616   0.31231   0.32435   0.35396

  Beta  occ. eigenvalues --  -89.94483 -89.94483  -8.30725  -8.30725  -6.22870
  Beta  occ. eigenvalues --   -6.22870  -6.22621  -6.22621  -6.22053  -6.22053
  Beta  occ. eigenvalues --   -0.81471  -0.81145  -0.47387  -0.47349  -0.33454
  Beta  occ. eigenvalues --   -0.33324  -0.30721
  Beta virt. eigenvalues --   -0.21889   0.01855   0.03047   0.04421   0.04821
  Beta virt. eigenvalues --    0.06587   0.06804   0.07240   0.07385   0.09018
  Beta virt. eigenvalues --    0.12900   0.30616   0.31231   0.32435   0.35396

 Mulliken charges and spin densities:
               1          2
     1  S   -0.082260   0.000000
     2  S   -0.082267   0.000000
     3  H    0.082265   0.000000
     4  H    0.082262   0.000000
 Sum of Mulliken charges =  -0.00000   0.00000

 Dipole moment (field-independent basis, Debye):
    X=              0.0000    Y=             -0.8460    Z=              0.8443  Tot=              1.1952
 Quadrupole moment (field-independent basis, Debye-Ang):
   XX=            -25.6695   YY=            -28.1100   ZZ=            -28.1029
   XY=              2.7183   XZ=              2.7242   YZ=              1.6871

 Normal termination of Gaussian 16 at Mon Apr 21 21:20:33 2025.
