 Gaussian 16, Revision A.03,
 Gaussian 16:  ES64L-G16RevA.03 25-Dec-2016

 ---------------------------------------------------
 #p UM062X/6-311+G** force int=superfine pop=saveNBO
 ---------------------------------------------------

 -------------------
 Title Card Required
 -------------------
 Symbolic Z-matrix:
 Charge =  0 Multiplicity = 1

                         Standard orientation:
 ---------------------------------------------------------------------
 Center     Atomic      Atomic             Coordinates (Angstroms)
 Number     Number       Type             X           Y           Z
 ---------------------------------------------------------------------
      1          8           0        0.000000    0.000000   -1.160091
      2         16           0        0.000000    0.000000    0.580045
 ---------------------------------------------------------------------

 SCF Done:  E(UM062X) =  -473.253006912     A.U. after   11 cycles

 Unable to determine electronic state:  an orbital has unidentified symmetry.
 Alpha  occ. eigenvalues --  -90.01644 -19.72746  -8.37330  -6.29485  -6.29326
 Alpha  occ. eigenvalues --   -6.28490  -1.11653  -0.78151  -0.49328  -0.47024
 Alpha  occ. eigenvalues --   -0.44281  -0.32603
 Alpha virt. eigenvalues --   -0.17234  -0.02409   0.02309   0.04552   0.05264
 Alpha virt. eigenvalues --    0.07455   0.18972   0.20909   0.21330   0.27537
 Alpha virt. eigenvalues --    0.33017   0.33957   0.34392   0.62998   0.73701

  Beta  occ. eigenvalues --  -90.01644 -19.72746  -8.37330  -6.29485  -6.29326
  Beta  occ. eigenvalues --   -6.28490  -1.11653  -0.78151  -0.49328  -0.47024
  Beta  occ. eigenvalues --   -0.44281  -0.32603
  Beta virt. eigenvalues --   -0.17234  -0.02409   0.02309   0.04552   0.05264
  Beta virt. eigenvalues --    0.07455   0.18972   0.20909   0.21330   0.27537
  Beta virt. eigenvalues --    0.33017   0.33957   0.34392   0.62998   0.73701

 Mulliken charges and spin densities:
               1          2
     1  O   -0.244836  -0.000000
     2  S    0.244836   0.000000
 Sum of Mulliken charges =   0.00000   0.00000

 Dipole moment (field-independent basis, Debye):
    X=              0.0000    Y=              0.0000    Z=              2.2594  Tot=              2.2594
 Quadrupole moment (field-independent basis, Debye-Ang):
   XX=            -20.1502   YY=            -16.3260   ZZ=            -18.8029
   XY=              0.0000   XZ=              0.0000   YZ=              0.0000

 Summary of Natural Population Analysis:

                                       Natural Population
                Natural  -----------------------------------------------
    Atom  No    Charge         Core      Valence    Rydberg      Total
 -----------------------------------------------------------------------
      O    1   -0.25154      0.99998     3.24794    0.00361     4.25154
      S    2    0.25154      4.99989     2.72759    0.02098     7.74846
 =======================================================================
   * Total *    0.00000      5.99988     5.97553    0.02459    12.00000

 Normal termination of Gaussian 16 at Mon Apr 21 19:54:52 2025.
