 Gaussian 16, Revision A.03,
 Gaussian 16:  ES64L-G16RevA.03 25-Dec-2016

 ---------------------------------------------------
 #p UM062X/6-311+G** force int=superfine pop=saveNBO
 ---------------------------------------------------

 -------------------
 Title Card Required
 -------------------
 Symbolic Z-matrix:
 Charge =  0 Multiplicity = 1

                         Standard orientation:
 ---------------------------------------------------------------------
 Center     Atomic      Atomic             Coordinates (Angstroms)
 Number     Number       Type             X           Y           Z
 ---------------------------------------------------------------------
      1          6           0        0.000000    0.000000   -1.984094
      2          8           0        0.000000    0.000000    1.488070
 ---------------------------------------------------------------------

 SCF Done:  E(UM062X) =  -112.636477352     A.U. after   17 cycles

 The electronic state is 1-SG.
 Alpha  occ. eigenvalues --  -19.68433 -10.86860  -0.97613  -0.74368  -0.32758
 Alpha  occ. eigenvalues --   -0.31531  -0.31531
 Alpha virt. eigenvalues --   -0.23028  -0.23028  -0.21656   0.01828   0.05531
 Alpha virt. eigenvalues --    0.05531   0.07118   0.19688   0.22080   0.22080
 Alpha virt. eigenvalues --    0.26267   0.49103   0.49103   0.50577   0.59347

  Beta  occ. eigenvalues --  -19.68433 -10.86860  -0.97613  -0.74368  -0.32758
  Beta  occ. eigenvalues --   -0.31531  -0.31531
  Beta virt. eigenvalues --   -0.23028  -0.23028  -0.21656   0.01828   0.05531
  Beta virt. eigenvalues --    0.05531   0.07118   0.19688   0.22080   0.22080
  Beta virt. eigenvalues --    0.26267   0.49103   0.49103   0.50577   0.59347

 Mulliken charges and spin densities:
               1          2
     1  C    0.361025   0.000000
     2  O   -0.361025  -0.000000
 Sum of Mulliken charges =  -0.00000  -0.00000

 Dipole moment (field-independent basis, Debye):
    X=              0.0000    Y=              0.0000    Z=             -5.9965  Tot=              5.9965
 Quadrupole moment (field-independent basis, Debye-Ang):
   XX=            -12.1480   YY=            -12.1480   ZZ=             -7.8368
   XY=              0.0000   XZ=              0.0000   YZ=              0.0000

 Summary of Natural Population Analysis:

                                       Natural Population
                Natural  -----------------------------------------------
    Atom  No    Charge         Core      Valence    Rydberg      Total
 -----------------------------------------------------------------------
      C    1    0.20960      1.00000     1.79021    0.00018     2.79040
      O    2   -0.20960      1.00000     3.20950    0.00011     4.20960
 =======================================================================
   * Total *   -0.00000      2.00000     4.99971    0.00029     7.00000

 Normal termination of Gaussian 16 at Mon Apr 21 19:26:10 2025.
