 Gaussian 16, Revision A.03,
 Gaussian 16:  ES64L-G16RevA.03 25-Dec-2016

 ---------------------------------------------------
 #p UM062X/6-311+G** force int=superfine pop=saveNBO
 ---------------------------------------------------

 -------------------
 Title Card Required
 -------------------
 Symbolic Z-matrix:
 Charge =  0 Multiplicity = 1

                         Standard orientation:
 ---------------------------------------------------------------------
 Center     Atomic      Atomic             Coordinates (Angstroms)
 Number     Number       Type             X           Y           Z
 ---------------------------------------------------------------------
      1          6           0       -0.584458    0.028920   -0.000015
      2          7           0        0.665394   -0.154744   -0.000015
      3          1           0       -1.068567    1.010393   -0.000015
      4          1           0        1.161753    0.738400    0.000111
      5          1           0       -1.244200   -0.839103    0.000095
 ---------------------------------------------------------------------

 SCF Done:  E(UM062X) =  -94.6103949820     A.U. after   10 cycles

 The electronic state is 1-A.
 Alpha  occ. eigenvalues --  -14.74963 -10.58917  -1.01969  -0.71055  -0.58087
 Alpha  occ. eigenvalues --   -0.50333  -0.40355  -0.34225
 Alpha virt. eigenvalues --    0.01165   0.01770   0.03774   0.04998   0.07663
 Alpha virt. eigenvalues --    0.13168   0.16312   0.16677   0.18588   0.21280
 Alpha virt. eigenvalues --    0.25261   0.26109   0.36295   0.48968   0.51130

  Beta  occ. eigenvalues --  -14.74963 -10.58917  -1.01969  -0.71055  -0.58087
  Beta  occ. eigenvalues --   -0.50333  -0.40355  -0.34225
  Beta virt. eigenvalues --    0.01165   0.01770   0.03774   0.04998   0.07663
  Beta virt. eigenvalues --    0.13168   0.16312   0.16677   0.18588   0.21280
  Beta virt. eigenvalues --    0.25261   0.26109   0.36295   0.48968   0.51130

 Mulliken charges and spin densities:
               1          2
     1  C   -0.196389   0.000000
     2  N   -0.283014  -0.000000
     3  H    0.127553   0.000000
     4  H    0.201593  -0.000000
     5  H    0.150256   0.000000
 Sum of Mulliken charges =  -0.00000  -0.00000

 Dipole moment (field-independent basis, Debye):
    X=             -1.3453    Y=              1.7429    Z=              0.0002  Tot=              2.2017
 Quadrupole moment (field-independent basis, Debye-Ang):
   XX=            -12.2568   YY=            -12.3868   ZZ=            -13.8015
   XY=              2.2368   XZ=              0.0001   YZ=              0.0001

 Summary of Natural Population Analysis:

                                       Natural Population
                Natural  -----------------------------------------------
    Atom  No    Charge         Core      Valence    Rydberg      Total
 -----------------------------------------------------------------------
      C    1   -0.01579      0.99979     2.00255    0.01345     3.01579
      N    2   -0.29522      0.99977     2.78506    0.01039     3.79522
      H    3    0.07023      0.00000     0.42850    0.00127     0.42977
      H    4    0.16218      0.00000     0.33596    0.00186     0.33782
      H    5    0.07860      0.00000     0.42033    0.00108     0.42140
 =======================================================================
   * Total *   -0.00000      1.99957     5.97239    0.02804     8.00000

 1\1\GINC-NODE01\Force\UM062X\6-311+G(d,p)\C1H3N1\SZHAO\16-Apr-2025\0\\
 #p UM062X/6-311+G** force int=superfine pop=saveNBO\\Title Card Requir
 ed\\0,1\C,-0.63163709,0.,0.\N,0.63163709,0.,0.\H,-1.25329661,-0.900661
 43,0.\H,0.99286972,-0.95581883,-0.00012569\H,-1.1581694,0.95471893,-0.
 00010966\\Version=ES64L-G16RevA.03\State=1-A\HF=-94.610395\S2=0.\S2-1=
 0.\S2A=0.\RMSD=4.779e-09\RMSF=8.725e-05\Dipole=-0.6233401,-0.6014771,-
 0.0000819\Quadrupole=-0.0654159,0.7988484,-0.7334324,-1.6065752,-0.000
 0875,0.0000505\PG=C01 [X(C1H3N1)]\\@

 Normal termination of Gaussian 16 at Wed Apr 16 02:18:34 2025.
