 Gaussian 16, Revision A.03,
 Gaussian 16:  ES64L-G16RevA.03 25-Dec-2016

 --------------------------------------------
 #p opt UM062X/6-311+G** nosymm int=superfine
 --------------------------------------------

 -------------------
 Title Card Required
 -------------------
 Symbolic Z-matrix:
 Charge =  0 Multiplicity = 1

 SCF Done:  E(UM062X) =  -111.652480636     A.U. after   16 cycles
 SCF Done:  E(UM062X) =  -111.667901036     A.U. after   16 cycles
 SCF Done:  E(UM062X) =  -111.676225710     A.U. after   15 cycles
 SCF Done:  E(UM062X) =  -111.677508468     A.U. after   13 cycles
 SCF Done:  E(UM062X) =  -111.678681878     A.U. after   13 cycles
 SCF Done:  E(UM062X) =  -111.679232695     A.U. after   14 cycles
 SCF Done:  E(UM062X) =  -111.679585767     A.U. after   12 cycles
 SCF Done:  E(UM062X) =  -111.679645297     A.U. after   11 cycles
 SCF Done:  E(UM062X) =  -111.679687652     A.U. after   12 cycles
 SCF Done:  E(UM062X) =  -111.679706600     A.U. after   12 cycles
 SCF Done:  E(UM062X) =  -111.679707184     A.U. after   10 cycles
 Optimization completed.
    -- Stationary point found.

                          Input orientation:
 ---------------------------------------------------------------------
 Center     Atomic      Atomic             Coordinates (Angstroms)
 Number     Number       Type             X           Y           Z
 ---------------------------------------------------------------------
      1          7           0       -1.436540    0.000000    0.000000
      2          7           0        1.436540    0.000000    0.000000
      3          1           0       -1.361543   -0.818842   -0.615678
      4          1           0        1.361580    0.412979   -0.937555
      5          1           0       -1.361296   -0.414113    0.937036
      6          1           0        1.361140    0.819549    0.614669
 ---------------------------------------------------------------------

 Alpha  occ. eigenvalues --  -14.80453 -14.80451  -0.95344  -0.94014  -0.55185
 Alpha  occ. eigenvalues --   -0.54316  -0.40974  -0.39954  -0.31254
 Alpha virt. eigenvalues --   -0.14896   0.04592   0.06768   0.08722   0.11461
 Alpha virt. eigenvalues --    0.12985   0.13910   0.15772   0.15961   0.19304
 Alpha virt. eigenvalues --    0.20398   0.26720   0.27697   0.51405   0.51540

  Beta  occ. eigenvalues --  -14.80453 -14.80451  -0.95344  -0.94014  -0.55185
  Beta  occ. eigenvalues --   -0.54316  -0.40974  -0.39954  -0.31254
  Beta virt. eigenvalues --   -0.14896   0.04592   0.06768   0.08722   0.11461
  Beta virt. eigenvalues --    0.12985   0.13910   0.15772   0.15961   0.19304
  Beta virt. eigenvalues --    0.20398   0.26720   0.27697   0.51405   0.51540

 Mulliken charges and spin densities:
               1          2
     1  N   -0.503694  -0.000000
     2  N   -0.503662   0.000000
     3  H    0.251819   0.000000
     4  H    0.251817  -0.000000
     5  H    0.251860   0.000000
     6  H    0.251861  -0.000000
 Sum of Mulliken charges =  -0.00000  -0.00000

 Dipole moment (field-independent basis, Debye):
    X=             -0.0001    Y=             -0.0006    Z=             -0.0023  Tot=              0.0024
 Quadrupole moment (field-independent basis, Debye-Ang):
   XX=            -15.7347   YY=            -14.1975   ZZ=            -11.4401
   XY=              6.1212   XZ=             -1.5997   YZ=              0.7733

 Normal termination of Gaussian 16 at Thu May 15 14:44:28 2025.
