 Gaussian 16, Revision A.03,
 Gaussian 16:  ES64L-G16RevA.03 25-Dec-2016

 ---------------------------------------------------
 #p UM062X/6-311+G** force int=superfine pop=saveNBO
 ---------------------------------------------------

 -------------------
 Title Card Required
 -------------------
 Symbolic Z-matrix:
 Charge =  0 Multiplicity = 1

                         Standard orientation:
 ---------------------------------------------------------------------
 Center     Atomic      Atomic             Coordinates (Angstroms)
 Number     Number       Type             X           Y           Z
 ---------------------------------------------------------------------
      1          6           0        0.000000    0.000000   -1.298379
      2          8           0        0.000000    0.000000    0.973785
 ---------------------------------------------------------------------

 SCF Done:  E(UM062X) =  -112.834454183     A.U. after   18 cycles

 The electronic state is 1-SG.
 Alpha  occ. eigenvalues --  -19.68874 -10.84600  -0.99498  -0.72440  -0.37637
 Alpha  occ. eigenvalues --   -0.36243  -0.36243
 Alpha virt. eigenvalues --   -0.18193  -0.18193  -0.11521   0.02949   0.06105
 Alpha virt. eigenvalues --    0.06105   0.06903   0.20060   0.22618   0.22618
 Alpha virt. eigenvalues --    0.32019   0.51198   0.51198   0.53670   0.66217

  Beta  occ. eigenvalues --  -19.68874 -10.84600  -0.99498  -0.72440  -0.37637
  Beta  occ. eigenvalues --   -0.36243  -0.36243
  Beta virt. eigenvalues --   -0.18193  -0.18193  -0.11521   0.02949   0.06105
  Beta virt. eigenvalues --    0.06105   0.06903   0.20060   0.22618   0.22618
  Beta virt. eigenvalues --    0.32019   0.51198   0.51198   0.53670   0.66217

 Mulliken charges and spin densities:
               1          2
     1  C    0.335649   0.000000
     2  O   -0.335649  -0.000000
 Sum of Mulliken charges =   0.00000   0.00000

 Dipole moment (field-independent basis, Debye):
    X=              0.0000    Y=              0.0000    Z=             -3.8232  Tot=              3.8232
 Quadrupole moment (field-independent basis, Debye-Ang):
   XX=            -11.5060   YY=            -11.5060   ZZ=            -10.6315
   XY=              0.0000   XZ=              0.0000   YZ=              0.0000

 Summary of Natural Population Analysis:

                                       Natural Population
                Natural  -----------------------------------------------
    Atom  No    Charge         Core      Valence    Rydberg      Total
 -----------------------------------------------------------------------
      C    1    0.27278      1.00000     1.72639    0.00083     2.72722
      O    2   -0.27278      1.00000     3.27208    0.00071     4.27278
 =======================================================================
   * Total *    0.00000      2.00000     4.99846    0.00154     7.00000

 Normal termination of Gaussian 16 at Mon Apr 21 19:30:47 2025.
