 Gaussian 16, Revision A.03,
 Gaussian 16:  ES64L-G16RevA.03 25-Dec-2016

 --------------------------------------------
 #p opt UM062X/6-311+G** nosymm int=superfine
 --------------------------------------------

 -------------------
 Title Card Required
 -------------------
 Symbolic Z-matrix:
 Charge =  0 Multiplicity = 1

 SCF Done:  E(UM062X) =  -474.419546598     A.U. after   19 cycles
 SCF Done:  E(UM062X) =  -474.422051164     A.U. after   15 cycles
 SCF Done:  E(UM062X) =  -474.424223006     A.U. after   19 cycles
 SCF Done:  E(UM062X) =  -474.424261464     A.U. after   15 cycles
 SCF Done:  E(UM062X) =  -474.424263225     A.U. after   19 cycles
 SCF Done:  E(UM062X) =  -474.424263564     A.U. after   14 cycles
 SCF Done:  E(UM062X) =  -474.424264272     A.U. after   17 cycles
 SCF Done:  E(UM062X) =  -474.424264429     A.U. after   15 cycles
 Optimization completed.
    -- Stationary point found.

                          Input orientation:
 ---------------------------------------------------------------------
 Center     Atomic      Atomic             Coordinates (Angstroms)
 Number     Number       Type             X           Y           Z
 ---------------------------------------------------------------------
      1          8           0       -1.414392    0.000000    0.000000
      2         16           0        1.414392    0.000000    0.000000
      3          1           0       -1.419563   -0.927107   -0.284813
      4          1           0        1.266040    0.435884    1.264770
 ---------------------------------------------------------------------

 Alpha  occ. eigenvalues --  -89.97755 -19.67529  -8.33824  -6.26044  -6.25669
 Alpha  occ. eigenvalues --   -6.25111  -1.08658  -0.83485  -0.52680  -0.49354
 Alpha  occ. eigenvalues --   -0.39886  -0.37161  -0.35292
 Alpha virt. eigenvalues --   -0.19019   0.01618   0.04017   0.04677   0.05582
 Alpha virt. eigenvalues --    0.07258   0.14467   0.19442   0.19970   0.21362
 Alpha virt. eigenvalues --    0.26188   0.31112   0.34000   0.35501   0.39789

  Beta  occ. eigenvalues --  -89.97755 -19.67529  -8.33824  -6.26044  -6.25669
  Beta  occ. eigenvalues --   -6.25111  -1.08658  -0.83485  -0.52680  -0.49354
  Beta  occ. eigenvalues --   -0.39886  -0.37161  -0.35292
  Beta virt. eigenvalues --   -0.19019   0.01618   0.04017   0.04677   0.05582
  Beta virt. eigenvalues --    0.07258   0.14467   0.19442   0.19970   0.21362
  Beta virt. eigenvalues --    0.26188   0.31112   0.34000   0.35501   0.39789

 Mulliken charges and spin densities:
               1          2
     1  O   -0.421319   0.000000
     2  S    0.060565  -0.000000
     3  H    0.249001   0.000000
     4  H    0.111753   0.000000
 Sum of Mulliken charges =  -0.00000  -0.00000

 Dipole moment (field-independent basis, Debye):
    X=              2.0231    Y=             -1.2522    Z=              0.6025  Tot=              2.4544
 Quadrupole moment (field-independent basis, Debye-Ang):
   XX=            -18.1839   YY=            -19.9055   ZZ=            -18.7326
   XY=              3.1366   XZ=              2.4011   YZ=              1.9820

 Normal termination of Gaussian 16 at Thu May 15 13:02:30 2025.
