 Gaussian 16, Revision A.03,
 Gaussian 16:  ES64L-G16RevA.03 25-Dec-2016

 --------------------------------------------
 #p opt UM062X/6-311+G** nosymm int=superfine
 --------------------------------------------

 -------------------
 Title Card Required
 -------------------
 Symbolic Z-matrix:
 Charge =  1 Multiplicity = 2

 SCF Done:  E(UM062X) =  -582.170553554     A.U. after   11 cycles
 SCF Done:  E(UM062X) =  -582.170624311     A.U. after    9 cycles
 SCF Done:  E(UM062X) =  -582.170627322     A.U. after    7 cycles
 Optimization completed.
    -- Stationary point found.

                          Input orientation:
 ---------------------------------------------------------------------
 Center     Atomic      Atomic             Coordinates (Angstroms)
 Number     Number       Type             X           Y           Z
 ---------------------------------------------------------------------
      1         14           0       -1.526292    0.000000    0.000000
      2         14           0        1.526292    0.000000    0.000000
      3          1           0        1.705958   -1.454672    0.000022
      4          1           0       -1.705787   -0.727240    1.259853
      5          1           0        1.706299    0.727361   -1.259708
      6          1           0        1.705642    0.727332    1.259822
      7          1           0       -1.705984    1.454669   -0.000083
      8          1           0       -1.706128   -0.727460   -1.259676
 ---------------------------------------------------------------------

 Alpha  occ. eigenvalues --  -67.23933 -67.23933  -5.78803  -5.78802  -4.10509
 Alpha  occ. eigenvalues --   -4.10506  -4.09684  -4.09684  -4.09684  -4.09684
 Alpha  occ. eigenvalues --   -0.84666  -0.81305  -0.63730  -0.63729  -0.62405
 Alpha  occ. eigenvalues --   -0.62404  -0.50001
 Alpha virt. eigenvalues --   -0.23845  -0.15522  -0.11718  -0.11717  -0.11683
 Alpha virt. eigenvalues --   -0.10784  -0.10784  -0.09937  -0.08933  -0.08933
 Alpha virt. eigenvalues --   -0.07408  -0.06511  -0.06511  -0.03512   0.00668

  Beta  occ. eigenvalues --  -67.23663 -67.23663  -5.78730  -5.78729  -4.09833
  Beta  occ. eigenvalues --   -4.09832  -4.09595  -4.09595  -4.09595  -4.09595
  Beta  occ. eigenvalues --   -0.82073  -0.79773  -0.63279  -0.63278  -0.62120
  Beta  occ. eigenvalues --   -0.62120
  Beta virt. eigenvalues --   -0.31592  -0.19396  -0.14944  -0.11373  -0.11372
  Beta virt. eigenvalues --   -0.10749  -0.10748  -0.10747  -0.09736  -0.08248
  Beta virt. eigenvalues --   -0.08248  -0.06264  -0.06264  -0.05300  -0.02790

 Mulliken charges and spin densities:
               1          2
     1  Si   0.493803   0.541234
     2  Si   0.493803   0.541234
     3  H    0.002068  -0.013744
     4  H    0.002062  -0.013740
     5  H    0.002073  -0.013757
     6  H    0.002056  -0.013733
     7  H    0.002068  -0.013745
     8  H    0.002067  -0.013749
 Sum of Mulliken charges =   1.00000   1.00000

 Dipole moment (field-independent basis, Debye):
    X=              0.0000    Y=              0.0000    Z=             -0.0000  Tot=              0.0000
 Quadrupole moment (field-independent basis, Debye-Ang):
   XX=            -10.1437   YY=            -25.7561   ZZ=            -25.7562
   XY=             -0.0002   XZ=              0.0000   YZ=              0.0000

 Normal termination of Gaussian 16 at Mon Apr 21 20:14:25 2025.
