 Gaussian 16, Revision A.03,
 Gaussian 16:  ES64L-G16RevA.03 25-Dec-2016

 --------------------------------------------
 #p opt UM062X/6-311+G** nosymm int=superfine
 --------------------------------------------

 -------------------
 Title Card Required
 -------------------
 Symbolic Z-matrix:
 Charge =  1 Multiplicity = 2

 SCF Done:  E(UM062X) =  -76.5836531563     A.U. after  108 cycles
 SCF Done:  E(UM062X) =  -76.5837216715     A.U. after   17 cycles
 Optimization completed.
    -- Stationary point found.

                          Input orientation:
 ---------------------------------------------------------------------
 Center     Atomic      Atomic             Coordinates (Angstroms)
 Number     Number       Type             X           Y           Z
 ---------------------------------------------------------------------
      1          6           0       -1.007160    0.000000    0.000000
      2          6           0        1.007160    0.000000    0.000000
      3          1           0       -2.115636    0.000000    0.000003
      4          1           0        2.115636   -0.000000   -0.000003
 ---------------------------------------------------------------------

 Alpha  occ. eigenvalues --  -11.01398 -11.01379  -1.05765  -0.99830  -0.78940
 Alpha  occ. eigenvalues --   -0.59613  -0.57638
 Alpha virt. eigenvalues --   -0.39603  -0.38489  -0.37644  -0.14040  -0.12046
 Alpha virt. eigenvalues --   -0.09735  -0.08579  -0.08359  -0.05378  -0.05107
 Alpha virt. eigenvalues --   -0.00061   0.02713   0.05630   0.24206   0.30550

  Beta  occ. eigenvalues --  -11.01122 -11.01108  -1.02580  -0.97898  -0.77795
  Beta  occ. eigenvalues --   -0.55811
  Beta virt. eigenvalues --   -0.38256  -0.36460  -0.35883  -0.30638  -0.14888
  Beta virt. eigenvalues --   -0.12343  -0.10420  -0.08903  -0.08775  -0.05430
  Beta virt. eigenvalues --   -0.05234  -0.01019   0.02793   0.05634   0.24153

 Mulliken charges and spin densities:
               1          2
     1  C    0.117927   0.523734
     2  C    0.117927   0.523736
     3  H    0.382073  -0.023735
     4  H    0.382073  -0.023735
 Sum of Mulliken charges =   1.00000   1.00000

 Dipole moment (field-independent basis, Debye):
    X=             -0.0000    Y=             -0.0000    Z=             -0.0000  Tot=              0.0000
 Quadrupole moment (field-independent basis, Debye-Ang):
   XX=              6.2286   YY=            -13.2918   ZZ=            -11.2871
   XY=             -0.0000   XZ=             -0.0000   YZ=             -0.4416

 Normal termination of Gaussian 16 at Tue Dec  3 11:22:23 2024.
