 Gaussian 16, Revision A.03,
 Gaussian 16:  ES64L-G16RevA.03 25-Dec-2016

 --------------------------------
 #p UM062X/6-311+G** Pop=NBO Read
 --------------------------------

 ------------
 NBO Analysis
 ------------
 Symbolic Z-matrix:
 Charge =  0 Multiplicity = 1

                         Standard orientation:
 ---------------------------------------------------------------------
 Center     Atomic      Atomic             Coordinates (Angstroms)
 Number     Number       Type             X           Y           Z
 ---------------------------------------------------------------------
      1         14           0       -0.000000    0.000000    0.978705
      2         14           0        0.000000    0.000000   -0.978705
      3          1           0        0.000000    0.000000    2.437080
      4          1           0       -0.000000    0.000000   -2.437080
 ---------------------------------------------------------------------

 SCF Done:  E(UM062X) =  -579.946401381     A.U. after    8 cycles

 The electronic state is 1-SG.
 Alpha  occ. eigenvalues --  -67.03593 -67.03592  -5.57456  -5.57385  -3.88465
 Alpha  occ. eigenvalues --   -3.88328  -3.88328  -3.88288  -3.88288  -3.88112
 Alpha  occ. eigenvalues --   -0.63130  -0.54540  -0.43860  -0.25863  -0.25863
 Alpha virt. eigenvalues --   -0.04235  -0.03058  -0.03058   0.01647   0.03040
 Alpha virt. eigenvalues --    0.04231   0.05529   0.05529   0.08340   0.08340
 Alpha virt. eigenvalues --    0.12269   0.16849   0.30233   0.33385   0.35585

  Beta  occ. eigenvalues --  -67.03593 -67.03592  -5.57456  -5.57385  -3.88465
  Beta  occ. eigenvalues --   -3.88328  -3.88328  -3.88288  -3.88288  -3.88112
  Beta  occ. eigenvalues --   -0.63130  -0.54540  -0.43860  -0.25863  -0.25863
  Beta virt. eigenvalues --   -0.04235  -0.03058  -0.03058   0.01647   0.03040
  Beta virt. eigenvalues --    0.04231   0.05529   0.05529   0.08340   0.08340
  Beta virt. eigenvalues --    0.12269   0.16849   0.30233   0.33385   0.35585

 Mulliken charges and spin densities:
               1          2
     1  Si   0.013215   0.000000
     2  Si   0.013215   0.000000
     3  H   -0.013215   0.000000
     4  H   -0.013215   0.000000
 Sum of Mulliken charges =  -0.00000   0.00000

 Dipole moment (field-independent basis, Debye):
    X=              0.0000    Y=             -0.0000    Z=             -0.0000  Tot=              0.0000
 Quadrupole moment (field-independent basis, Debye-Ang):
   XX=            -30.2394   YY=            -30.2394   ZZ=            -20.6482
   XY=             -0.0000   XZ=             -0.0000   YZ=              0.0000

 Summary of Natural Population Analysis:

                                       Natural Population
                Natural  -----------------------------------------------
    Atom  No    Charge         Core      Valence    Rydberg      Total
 -----------------------------------------------------------------------
     Si    1    0.02100      4.99803     1.97155    0.00941     6.97900
     Si    2    0.02100      4.99803     1.97155    0.00941     6.97900
      H    3   -0.02100      0.00000     0.51970    0.00130     0.52100
      H    4   -0.02100      0.00000     0.51970    0.00130     0.52100
 =======================================================================
   * Total *   -0.00000      9.99607     4.98251    0.02143    15.00000

 Normal termination of Gaussian 16 at Wed Apr 16 05:51:24 2025.
