 Gaussian 16, Revision A.03,
 Gaussian 16:  ES64L-G16RevA.03 25-Dec-2016

 --------------------------------------------
 #p opt UM062X/6-311+G** nosymm int=superfine
 --------------------------------------------

 -------------------
 Title Card Required
 -------------------
 Symbolic Z-matrix:
 Charge =  0 Multiplicity = 1

 SCF Done:  E(UM062X) =  -379.547466822     A.U. after   19 cycles
 SCF Done:  E(UM062X) =  -379.548918316     A.U. after   12 cycles
 SCF Done:  E(UM062X) =  -379.548924802     A.U. after   11 cycles
 Optimization completed.
    -- Stationary point found.

                          Input orientation:
 ---------------------------------------------------------------------
 Center     Atomic      Atomic             Coordinates (Angstroms)
 Number     Number       Type             X           Y           Z
 ---------------------------------------------------------------------
      1          6           0       -2.215377    0.000000    0.000000
      2         15           0        2.215377    0.000000    0.000000
      3          1           0       -3.338638    0.000000    0.000000
 ---------------------------------------------------------------------

 Alpha  occ. eigenvalues --  -78.06084 -10.72379  -6.88042  -4.99972  -4.99014
 Alpha  occ. eigenvalues --   -4.99014  -0.77173  -0.59739  -0.42775  -0.22787
 Alpha  occ. eigenvalues --   -0.22787
 Alpha virt. eigenvalues --   -0.16221  -0.16221  -0.11315   0.00987   0.04344
 Alpha virt. eigenvalues --    0.05903   0.05903   0.07525   0.08146   0.08146
 Alpha virt. eigenvalues --    0.12455   0.15411   0.33182   0.33957   0.33957

  Beta  occ. eigenvalues --  -78.06084 -10.72379  -6.88042  -4.99972  -4.99014
  Beta  occ. eigenvalues --   -4.99014  -0.77173  -0.59739  -0.42775  -0.22787
  Beta  occ. eigenvalues --   -0.22787
  Beta virt. eigenvalues --   -0.16221  -0.16221  -0.11315   0.00987   0.04344
  Beta virt. eigenvalues --    0.05903   0.05903   0.07525   0.08146   0.08146
  Beta virt. eigenvalues --    0.12455   0.15411   0.33182   0.33957   0.33957

 Mulliken charges and spin densities:
               1          2
     1  C   -0.047184  -0.000000
     2  P   -0.108587   0.000000
     3  H    0.155770   0.000000
 Sum of Mulliken charges =  -0.00000   0.00000

 Dipole moment (field-independent basis, Debye):
    X=             -4.2010    Y=              0.0000    Z=              0.0000  Tot=              4.2010
 Quadrupole moment (field-independent basis, Debye-Ang):
   XX=             -9.5737   YY=            -24.1248   ZZ=            -24.1248
   XY=             -0.0000   XZ=             -0.0000   YZ=              0.0000

 Normal termination of Gaussian 16 at Mon Apr 21 19:31:20 2025.
