 Gaussian 16, Revision A.03,
 Gaussian 16:  ES64L-G16RevA.03 25-Dec-2016

 --------------------------------------------
 #p opt UM062X/6-311+G** nosymm int=superfine
 --------------------------------------------

 -------------------
 Title Card Required
 -------------------
 Symbolic Z-matrix:
 Charge =  1 Multiplicity = 2

 SCF Done:  E(UM062X) =  -79.3530675633     A.U. after   10 cycles
 SCF Done:  E(UM062X) =  -79.3655653498     A.U. after   10 cycles
 SCF Done:  E(UM062X) =  -79.3658053723     A.U. after   10 cycles
 SCF Done:  E(UM062X) =  -79.3658066973     A.U. after    9 cycles
 Optimization completed.
    -- Stationary point found.

                          Input orientation:
 ---------------------------------------------------------------------
 Center     Atomic      Atomic             Coordinates (Angstroms)
 Number     Number       Type             X           Y           Z
 ---------------------------------------------------------------------
      1          6           0       -0.898803    0.000000    0.000000
      2          6           0        0.898803    0.000000    0.000000
      3          1           0        1.074887   -0.928959    0.537531
      4          1           0       -1.073805   -0.930223   -0.535764
      5          1           0        1.073847    0.930205    0.535781
      6          1           0        1.073812   -0.000992   -1.073477
      7          1           0       -1.074890    0.928943   -0.537559
      8          1           0       -1.073851    0.001019    1.073470
 ---------------------------------------------------------------------

 Alpha  occ. eigenvalues --  -10.86172 -10.86155  -1.14113  -1.00522  -0.80508
 Alpha  occ. eigenvalues --   -0.80502  -0.72780  -0.72779  -0.67325
 Alpha virt. eigenvalues --   -0.17385  -0.16932  -0.11566  -0.11565  -0.09359
 Alpha virt. eigenvalues --   -0.07741  -0.06691  -0.06686  -0.05848  -0.05847
 Alpha virt. eigenvalues --   -0.01172   0.01249   0.01256   0.03692   0.07665

  Beta  occ. eigenvalues --  -10.85936 -10.85936  -1.10533  -0.97052  -0.79332
  Beta  occ. eigenvalues --   -0.79327  -0.71809  -0.71807
  Beta virt. eigenvalues --   -0.43410  -0.16349  -0.14439  -0.11348  -0.11348
  Beta virt. eigenvalues --   -0.08039  -0.06772  -0.06769  -0.05847  -0.05457
  Beta virt. eigenvalues --   -0.05452   0.00168   0.02002   0.02010   0.04291

 Mulliken charges and spin densities:
               1          2
     1  C   -0.328029   0.525169
     2  C   -0.328029   0.525169
     3  H    0.275999  -0.008515
     4  H    0.276015  -0.008326
     5  H    0.276016  -0.008328
     6  H    0.276014  -0.008327
     7  H    0.275999  -0.008515
     8  H    0.276015  -0.008328
 Sum of Mulliken charges =   1.00000   1.00000

 Dipole moment (field-independent basis, Debye):
    X=             -0.0000    Y=             -0.0000    Z=             -0.0000  Tot=              0.0000
 Quadrupole moment (field-independent basis, Debye-Ang):
   XX=             -7.3311   YY=            -10.6538   ZZ=            -10.6530
   XY=              0.0002   XZ=             -0.0001   YZ=              0.0008

 Normal termination of Gaussian 16 at Wed Nov 13 13:31:19 2024.
