 Gaussian 16, Revision A.03,
 Gaussian 16:  ES64L-G16RevA.03 25-Dec-2016

 --------------------------------------------
 #p opt UM062X/6-311+G** nosymm int=superfine
 --------------------------------------------

 -------------------
 Title Card Required
 -------------------
 Symbolic Z-matrix:
 Charge =  0 Multiplicity = 1

 SCF Done:  E(UM062X) =  -76.8641648794     A.U. after   15 cycles
 SCF Done:  E(UM062X) =  -76.8646530284     A.U. after   15 cycles
 SCF Done:  E(UM062X) =  -76.8657634092     A.U. after   16 cycles
 SCF Done:  E(UM062X) =  -76.8662762784     A.U. after   17 cycles
 SCF Done:  E(UM062X) =  -76.8663565034     A.U. after   20 cycles
 SCF Done:  E(UM062X) =  -76.8663781837     A.U. after   16 cycles
 SCF Done:  E(UM062X) =  -76.8663783248     A.U. after   17 cycles
 SCF Done:  E(UM062X) =  -76.8663783367     A.U. after    8 cycles
 Optimization completed.
    -- Stationary point found.

                          Input orientation:
 ---------------------------------------------------------------------
 Center     Atomic      Atomic             Coordinates (Angstroms)
 Number     Number       Type             X           Y           Z
 ---------------------------------------------------------------------
      1          6           0       -1.957625    0.000000    0.000000
      2          6           0        1.957625    0.000000    0.000000
      3          1           0       -1.776352   -0.652863    0.889849
      4          1           0        1.776699    0.652679   -0.890055
 ---------------------------------------------------------------------

 Alpha  occ. eigenvalues --  -10.67675 -10.67674  -0.73008  -0.72619  -0.39172
 Alpha  occ. eigenvalues --   -0.39003  -0.23381
 Alpha virt. eigenvalues --   -0.13286  -0.10358  -0.09688   0.03200   0.04500
 Alpha virt. eigenvalues --    0.07232   0.07265   0.09219   0.09624   0.10823
 Alpha virt. eigenvalues --    0.13827   0.18101   0.19154   0.45017   0.45369

  Beta  occ. eigenvalues --  -10.67675 -10.67674  -0.73008  -0.72619  -0.39172
  Beta  occ. eigenvalues --   -0.39003  -0.23381
  Beta virt. eigenvalues --   -0.13286  -0.10358  -0.09688   0.03200   0.04500
  Beta virt. eigenvalues --    0.07232   0.07265   0.09219   0.09624   0.10823
  Beta virt. eigenvalues --    0.13827   0.18101   0.19154   0.45017   0.45369

 Mulliken charges and spin densities:
               1          2
     1  C   -0.141930  -0.000000
     2  C   -0.141972   0.000000
     3  H    0.141953   0.000000
     4  H    0.141949  -0.000000
 Sum of Mulliken charges =  -0.00000  -0.00000

 Dipole moment (field-independent basis, Debye):
    X=              0.0003    Y=             -0.0003    Z=             -0.0002  Tot=              0.0005
 Quadrupole moment (field-independent basis, Debye-Ang):
   XX=            -17.1658   YY=            -13.0012   ZZ=            -13.8153
   XY=              3.7783   XZ=             -5.1515   YZ=              1.2925

 Normal termination of Gaussian 16 at Wed Dec  4 00:03:25 2024.
