 Gaussian 16, Revision A.03,
 Gaussian 16:  ES64L-G16RevA.03 25-Dec-2016

 --------------------------------------------
 #p opt UM062X/6-311+G** nosymm int=superfine
 --------------------------------------------

 -------------------
 Title Card Required
 -------------------
 Symbolic Z-matrix:
 Charge =  0 Multiplicity = 1

 SCF Done:  E(UM062X) =  -76.9764756483     A.U. after   13 cycles
 SCF Done:  E(UM062X) =  -76.9767102267     A.U. after   13 cycles
 SCF Done:  E(UM062X) =  -76.9771238545     A.U. after   13 cycles
 SCF Done:  E(UM062X) =  -76.9773976950     A.U. after   12 cycles
 SCF Done:  E(UM062X) =  -76.9773977516     A.U. after   10 cycles
 Optimization completed.
    -- Stationary point found.

                          Input orientation:
 ---------------------------------------------------------------------
 Center     Atomic      Atomic             Coordinates (Angstroms)
 Number     Number       Type             X           Y           Z
 ---------------------------------------------------------------------
      1          6           0       -1.182625    0.000000    0.000000
      2          6           0        1.182625    0.000000    0.000000
      3          1           0       -1.181139    0.327146    1.069239
      4          1           0        1.181246    1.012730   -0.474009
 ---------------------------------------------------------------------

 Alpha  occ. eigenvalues --  -10.66544 -10.66538  -0.74938  -0.69570  -0.39516
 Alpha  occ. eigenvalues --   -0.38098  -0.28865
 Alpha virt. eigenvalues --   -0.09507  -0.08833  -0.02965   0.02756   0.06111
 Alpha virt. eigenvalues --    0.07650   0.07721   0.09952   0.10072   0.10373
 Alpha virt. eigenvalues --    0.15580   0.16632   0.20890   0.45277   0.47215

  Beta  occ. eigenvalues --  -10.66544 -10.66538  -0.74938  -0.69570  -0.39516
  Beta  occ. eigenvalues --   -0.38098  -0.28865
  Beta virt. eigenvalues --   -0.09507  -0.08833  -0.02965   0.02756   0.06111
  Beta virt. eigenvalues --    0.07650   0.07721   0.09952   0.10072   0.10373
  Beta virt. eigenvalues --    0.15580   0.16632   0.20890   0.45277   0.47215

 Mulliken charges and spin densities:
               1          2
     1  C   -0.137089  -0.000000
     2  C   -0.137113   0.000000
     3  H    0.137099  -0.000000
     4  H    0.137102  -0.000000
 Sum of Mulliken charges =  -0.00000  -0.00000

 Dipole moment (field-independent basis, Debye):
    X=              0.0001    Y=              1.8432    Z=              0.8188  Tot=              2.0169
 Quadrupole moment (field-independent basis, Debye-Ang):
   XX=            -17.2316   YY=            -12.9662   ZZ=            -13.1936
   XY=              1.2430   XZ=             -2.7977   YZ=              0.1259

 Normal termination of Gaussian 16 at Tue Dec  3 21:34:40 2024.
