 Gaussian 16, Revision A.03,
 Gaussian 16:  ES64L-G16RevA.03 25-Dec-2016

 ---------------------------------------------------
 #p UM062X/6-311+G** force int=superfine pop=saveNBO
 ---------------------------------------------------

 -------------------
 Title Card Required
 -------------------
 Symbolic Z-matrix:
 Charge =  0 Multiplicity = 1

                         Standard orientation:
 ---------------------------------------------------------------------
 Center     Atomic      Atomic             Coordinates (Angstroms)
 Number     Number       Type             X           Y           Z
 ---------------------------------------------------------------------
      1         16           0        0.000000    0.000000    1.750200
      2         16           0        0.000000    0.000000   -1.750200
 ---------------------------------------------------------------------

 SCF Done:  E(UM062X) =  -796.069345043     A.U. after    9 cycles

 Unable to determine electronic state:  partially filled degenerate orbitals.
 Alpha  occ. eigenvalues --  -89.99155 -89.99155  -8.34887  -8.34886  -6.26921
 Alpha  occ. eigenvalues --   -6.26920  -6.26900  -6.26900  -6.26067  -6.26067
 Alpha  occ. eigenvalues --   -0.78662  -0.77198  -0.35224  -0.34350  -0.34227
 Alpha  occ. eigenvalues --   -0.31939
 Alpha virt. eigenvalues --   -0.23129  -0.20678   0.03056   0.03751   0.04837
 Alpha virt. eigenvalues --    0.05324   0.07146   0.07494   0.07608   0.12950
 Alpha virt. eigenvalues --    0.31846   0.32733   0.33474   0.34238   0.36310

  Beta  occ. eigenvalues --  -89.99155 -89.99155  -8.34887  -8.34886  -6.26921
  Beta  occ. eigenvalues --   -6.26920  -6.26900  -6.26900  -6.26067  -6.26067
  Beta  occ. eigenvalues --   -0.78662  -0.77198  -0.35224  -0.34350  -0.34227
  Beta  occ. eigenvalues --   -0.31939
  Beta virt. eigenvalues --   -0.23129  -0.20678   0.03056   0.03751   0.04837
  Beta virt. eigenvalues --    0.05324   0.07146   0.07494   0.07608   0.12950
  Beta virt. eigenvalues --    0.31846   0.32733   0.33474   0.34238   0.36310

 Mulliken charges and spin densities:
               1          2
     1  S   -0.000000   0.000000
     2  S   -0.000000   0.000000
 Sum of Mulliken charges =  -0.00000   0.00000

 Dipole moment (field-independent basis, Debye):
    X=             -0.0000    Y=             -0.0000    Z=              0.0000  Tot=              0.0000
 Quadrupole moment (field-independent basis, Debye-Ang):
   XX=            -25.4165   YY=            -30.3659   ZZ=            -22.4919
   XY=              0.0000   XZ=             -0.0000   YZ=              0.0000

 Summary of Natural Population Analysis:

                                       Natural Population
                Natural  -----------------------------------------------
    Atom  No    Charge         Core      Valence    Rydberg      Total
 -----------------------------------------------------------------------
      S    1    0.00000      5.00000     2.99915    0.00085     8.00000
      S    2   -0.00000      5.00000     2.99915    0.00085     8.00000
 =======================================================================
   * Total *    0.00000      9.99999     5.99831    0.00170    16.00000

 Normal termination of Gaussian 16 at Mon Apr 21 20:09:10 2025.
