 Gaussian 16, Revision A.03,
 Gaussian 16:  ES64L-G16RevA.03 25-Dec-2016

 --------------------------------------------
 #p opt UM062X/6-311+G** nosymm int=superfine
 --------------------------------------------

 -------------------
 Title Card Required
 -------------------
 Symbolic Z-matrix:
 Charge =  0 Multiplicity = 3

 SCF Done:  E(UM062X) =  -50.6908222267     A.U. after   10 cycles
 SCF Done:  E(UM062X) =  -50.6908251283     A.U. after    7 cycles
 Optimization completed.
    -- Stationary point found.

                          Input orientation:
 ---------------------------------------------------------------------
 Center     Atomic      Atomic             Coordinates (Angstroms)
 Number     Number       Type             X           Y           Z
 ---------------------------------------------------------------------
      1          5           0       -0.953410    0.000000    0.000000
      2          5           0        0.953410    0.000000    0.000000
      3          1           0       -2.127725   -0.000080   -0.000000
      4          1           0        2.127725    0.000080    0.000000
 ---------------------------------------------------------------------

 Alpha  occ. eigenvalues --   -7.11404  -7.11374  -0.59301  -0.54300  -0.42311
 Alpha  occ. eigenvalues --   -0.24711  -0.24711
 Alpha virt. eigenvalues --   -0.02090  -0.02090   0.02008   0.02472   0.05947
 Alpha virt. eigenvalues --    0.05947   0.06072   0.07237   0.07938   0.07938
 Alpha virt. eigenvalues --    0.13887   0.22356   0.27792   0.36707   0.39531

  Beta  occ. eigenvalues --   -7.11167  -7.11133  -0.54755  -0.52438  -0.40780
  Beta virt. eigenvalues --   -0.06670  -0.06670   0.00871   0.01491   0.01491
  Beta virt. eigenvalues --    0.02999   0.05347   0.07650   0.09227   0.09227
  Beta virt. eigenvalues --    0.12557   0.12557   0.15296   0.23554   0.31089

 Mulliken charges and spin densities:
               1          2
     1  B   -0.090980   1.033722
     2  B   -0.090980   1.033722
     3  H    0.090980  -0.033722
     4  H    0.090980  -0.033722
 Sum of Mulliken charges =  -0.00000   2.00000

 Dipole moment (field-independent basis, Debye):
    X=              0.0000    Y=              0.0000    Z=             -0.0000  Tot=              0.0000
 Quadrupole moment (field-independent basis, Debye-Ang):
   XX=            -11.5140   YY=            -15.4242   ZZ=            -15.4242
   XY=              0.0001   XZ=              0.0000   YZ=              0.0000

 1\1\GINC-NODE03\FOpt\UM062X\6-311+G(d,p)\B2H2(3)\SZHAO\21-Apr-2025\0\\
 #p opt UM062X/6-311+G** nosymm int=superfine\\Title Card Required\\0,3
 \B,-0.95341047,0.,0.\B,0.95341047,0.,0.\H,-2.1277245526,-0.0000803714,
 0.\H,2.1277245526,0.0000803714,0.\\Version=ES64L-G16RevA.03\HF=-50.690
 8251\S2=2.00705\S2-1=0.\S2A=2.000017\RMSD=3.725e-09\RMSF=1.177e-05\Dip
 ole=0.,0.,0.\Quadrupole=1.9380632,-0.9690316,-0.9690316,0.0000759,0.,0
 .\PG=C*V [C*(H1B1B1H1)]\\@

 Normal termination of Gaussian 16 at Mon Apr 21 17:22:51 2025.
