 Gaussian 16, Revision A.03,
 Gaussian 16:  ES64L-G16RevA.03 25-Dec-2016

 --------------------------------------------
 #p opt UM062X/6-311+G** nosymm int=superfine
 --------------------------------------------

 -------------------
 Title Card Required
 -------------------
 Symbolic Z-matrix:
 Charge =  0 Multiplicity = 1

 SCF Done:  E(UM062X) =  -78.2004770707     A.U. after    9 cycles
 SCF Done:  E(UM062X) =  -78.2174043186     A.U. after    9 cycles
 SCF Done:  E(UM062X) =  -78.2327948656     A.U. after    8 cycles
 SCF Done:  E(UM062X) =  -78.2331416449     A.U. after    8 cycles
 SCF Done:  E(UM062X) =  -78.2331430636     A.U. after    7 cycles
 Optimization completed.
    -- Stationary point found.

                          Input orientation:
 ---------------------------------------------------------------------
 Center     Atomic      Atomic             Coordinates (Angstroms)
 Number     Number       Type             X           Y           Z
 ---------------------------------------------------------------------
      1          6           0       -1.985595    0.000000    0.000000
      2          6           0        1.985595    0.000000    0.000000
      3          1           0       -2.691729   -0.858353   -0.000000
      4          1           0       -2.691697    0.858381   -0.000000
      5          1           0        2.691729    0.858353    0.000000
      6          1           0        2.691697   -0.858381    0.000000
 ---------------------------------------------------------------------

 Alpha  occ. eigenvalues --  -10.59456 -10.59456  -0.74457  -0.74415  -0.46164
 Alpha  occ. eigenvalues --   -0.46124  -0.30764  -0.29041
 Alpha virt. eigenvalues --   -0.07237  -0.06771   0.02520   0.03194   0.06604
 Alpha virt. eigenvalues --    0.08621   0.08689   0.10403   0.12328   0.15466
 Alpha virt. eigenvalues --    0.17535   0.19945   0.20793   0.21866   0.45541

  Beta  occ. eigenvalues --  -10.59456 -10.59456  -0.74457  -0.74415  -0.46164
  Beta  occ. eigenvalues --   -0.46124  -0.30764  -0.29041
  Beta virt. eigenvalues --   -0.07237  -0.06771   0.02520   0.03194   0.06604
  Beta virt. eigenvalues --    0.08621   0.08689   0.10403   0.12328   0.15466
  Beta virt. eigenvalues --    0.17535   0.19945   0.20793   0.21866   0.45541

 Mulliken charges and spin densities:
               1          2
     1  C   -0.238443  -0.000000
     2  C   -0.238443   0.000000
     3  H    0.119222  -0.000000
     4  H    0.119221   0.000000
     5  H    0.119222  -0.000000
     6  H    0.119221  -0.000000
 Sum of Mulliken charges =  -0.00000  -0.00000

 Dipole moment (field-independent basis, Debye):
    X=              0.0000    Y=              0.0000    Z=              0.0000  Tot=              0.0000
 Quadrupole moment (field-independent basis, Debye-Ang):
   XX=             -3.3365   YY=            -14.6560   ZZ=            -12.9322
   XY=             -0.0001   XZ=              0.0000   YZ=              0.0000

 Normal termination of Gaussian 16 at Tue Dec  3 11:18:15 2024.
