 Gaussian 16, Revision A.03,
 Gaussian 16:  ES64L-G16RevA.03 25-Dec-2016

 --------------------------------------------
 #p opt UM062X/6-311+G** nosymm int=superfine
 --------------------------------------------

 -------------------
 Title Card Required
 -------------------
 Symbolic Z-matrix:
 Charge =  1 Multiplicity = 2

 SCF Done:  E(UM062X) =  -579.674141093     A.U. after   14 cycles
 SCF Done:  E(UM062X) =  -579.675068767     A.U. after   12 cycles
 SCF Done:  E(UM062X) =  -579.676156941     A.U. after   12 cycles
 SCF Done:  E(UM062X) =  -579.677461738     A.U. after   14 cycles
 SCF Done:  E(UM062X) =  -579.677967053     A.U. after   14 cycles
 SCF Done:  E(UM062X) =  -579.678363660     A.U. after   14 cycles
 SCF Done:  E(UM062X) =  -579.678431425     A.U. after   11 cycles
 SCF Done:  E(UM062X) =  -579.678439614     A.U. after   10 cycles
 SCF Done:  E(UM062X) =  -579.678441989     A.U. after   10 cycles
 SCF Done:  E(UM062X) =  -579.678448262     A.U. after   12 cycles
 SCF Done:  E(UM062X) =  -579.678453725     A.U. after   11 cycles
 SCF Done:  E(UM062X) =  -579.678455831     A.U. after   12 cycles
 Optimization completed.
    -- Stationary point found.

                          Input orientation:
 ---------------------------------------------------------------------
 Center     Atomic      Atomic             Coordinates (Angstroms)
 Number     Number       Type             X           Y           Z
 ---------------------------------------------------------------------
      1         14           0       -2.277975    0.000000    0.000000
      2         14           0        2.277975    0.000000    0.000000
      3          1           0       -2.376917   -1.505200   -0.000000
      4          1           0        2.376390    1.505241   -0.000000
 ---------------------------------------------------------------------

 Alpha  occ. eigenvalues --  -67.26255 -67.26255  -5.80424  -5.80422  -4.11521
 Alpha  occ. eigenvalues --   -4.11521  -4.11436  -4.11436  -4.10788  -4.10788
 Alpha  occ. eigenvalues --   -0.75281  -0.74831  -0.51980  -0.51809  -0.39619
 Alpha virt. eigenvalues --   -0.29517  -0.27194  -0.26537  -0.10634  -0.09302
 Alpha virt. eigenvalues --   -0.08402  -0.07923  -0.07579  -0.06526  -0.05537
 Alpha virt. eigenvalues --   -0.05446  -0.04818  -0.02462   0.12647   0.14124

  Beta  occ. eigenvalues --  -67.26002 -67.26002  -5.80352  -5.80350  -4.11375
  Beta  occ. eigenvalues --   -4.11375  -4.10840  -4.10840  -4.10687  -4.10687
  Beta  occ. eigenvalues --   -0.73441  -0.73221  -0.51347  -0.51152
  Beta virt. eigenvalues --   -0.27701  -0.27034  -0.26138  -0.23803  -0.14182
  Beta virt. eigenvalues --   -0.10805  -0.09087  -0.08332  -0.08113  -0.06537
  Beta virt. eigenvalues --   -0.05535  -0.05362  -0.05098  -0.02580   0.09744

 Mulliken charges and spin densities:
               1          2
     1  Si   0.583043   0.508253
     2  Si   0.583068   0.508234
     3  H   -0.083050  -0.008243
     4  H   -0.083060  -0.008245
 Sum of Mulliken charges =   1.00000   1.00000

 Dipole moment (field-independent basis, Debye):
    X=             -0.0001    Y=              0.0001    Z=             -0.0000  Tot=              0.0001
 Quadrupole moment (field-independent basis, Debye-Ang):
   XX=              5.8726   YY=            -27.7932   ZZ=            -20.0028
   XY=              2.4145   XZ=             -0.0000   YZ=              0.0000

 Normal termination of Gaussian 16 at Mon Apr 21 20:43:55 2025.
