 Gaussian 16, Revision A.03,
 Gaussian 16:  ES64L-G16RevA.03 25-Dec-2016

 --------------------------------------------
 #p opt UM062X/6-311+G** nosymm int=superfine
 --------------------------------------------

 -------------------
 Title Card Required
 -------------------
 Symbolic Z-matrix:
 Charge =  0 Multiplicity = 1

 SCF Done:  E(UM062X) =  -151.398758296     A.U. after   14 cycles
 SCF Done:  E(UM062X) =  -151.403719719     A.U. after   18 cycles
 SCF Done:  E(UM062X) =  -151.406576531     A.U. after   16 cycles
 SCF Done:  E(UM062X) =  -151.406663014     A.U. after   18 cycles
 SCF Done:  E(UM062X) =  -151.406684681     A.U. after   18 cycles
 SCF Done:  E(UM062X) =  -151.406688428     A.U. after   12 cycles
 SCF Done:  E(UM062X) =  -151.406688768     A.U. after   11 cycles
 SCF Done:  E(UM062X) =  -151.406688781     A.U. after   10 cycles
 Optimization completed.
    -- Stationary point found.

                          Input orientation:
 ---------------------------------------------------------------------
 Center     Atomic      Atomic             Coordinates (Angstroms)
 Number     Number       Type             X           Y           Z
 ---------------------------------------------------------------------
      1          8           0       -1.161938    0.000000    0.000000
      2          8           0        1.161938    0.000000    0.000000
      3          1           0       -1.059068   -0.778191   -0.574697
      4          1           0        1.059024    0.777910    0.575070
 ---------------------------------------------------------------------

 Alpha  occ. eigenvalues --  -19.72598 -19.72595  -1.14156  -1.11126  -0.57534
 Alpha  occ. eigenvalues --   -0.55498  -0.44926  -0.42660  -0.42260
 Alpha virt. eigenvalues --   -0.19975   0.05589   0.09448   0.14716   0.15911
 Alpha virt. eigenvalues --    0.17543   0.19555   0.21490   0.22927   0.25411
 Alpha virt. eigenvalues --    0.33531   0.49160   0.53508   0.94976   0.97086

  Beta  occ. eigenvalues --  -19.72598 -19.72595  -1.14156  -1.11126  -0.57534
  Beta  occ. eigenvalues --   -0.55498  -0.44926  -0.42660  -0.42260
  Beta virt. eigenvalues --   -0.19975   0.05589   0.09448   0.14716   0.15911
  Beta virt. eigenvalues --    0.17543   0.19555   0.21490   0.22927   0.25411
  Beta virt. eigenvalues --    0.33531   0.49160   0.53508   0.94976   0.97086

 Mulliken charges and spin densities:
               1          2
     1  O   -0.272386  -0.000000
     2  O   -0.272379   0.000000
     3  H    0.272382   0.000000
     4  H    0.272383  -0.000000
 Sum of Mulliken charges =   0.00000  -0.00000

 Dipole moment (field-independent basis, Debye):
    X=             -0.0001    Y=             -0.0005    Z=              0.0007  Tot=              0.0009
 Quadrupole moment (field-independent basis, Debye-Ang):
   XX=            -11.9145   YY=            -10.2901   ZZ=            -11.8133
   XY=              3.4282   XZ=              2.5330   YZ=              2.4787

 Normal termination of Gaussian 16 at Mon Apr 21 21:30:43 2025.
