 Gaussian 16, Revision A.03,
 Gaussian 16:  ES64L-G16RevA.03 25-Dec-2016

 --------------------------------------------
 #p opt UM062X/6-311+G** nosymm int=superfine
 --------------------------------------------

 -------------------
 Title Card Required
 -------------------
 Symbolic Z-matrix:
 Charge =  0 Multiplicity = 1

 SCF Done:  E(UM062X) =  -111.628835427     A.U. after   17 cycles
 SCF Done:  E(UM062X) =  -111.637431815     A.U. after   16 cycles
 SCF Done:  E(UM062X) =  -111.643647635     A.U. after   16 cycles
 SCF Done:  E(UM062X) =  -111.645987589     A.U. after   14 cycles
 SCF Done:  E(UM062X) =  -111.647608439     A.U. after   15 cycles
 SCF Done:  E(UM062X) =  -111.648068015     A.U. after   14 cycles
 SCF Done:  E(UM062X) =  -111.648724544     A.U. after   15 cycles
 SCF Done:  E(UM062X) =  -111.648874335     A.U. after   13 cycles
 SCF Done:  E(UM062X) =  -111.648927928     A.U. after   12 cycles
 SCF Done:  E(UM062X) =  -111.648972804     A.U. after   13 cycles
 SCF Done:  E(UM062X) =  -111.649021844     A.U. after   14 cycles
 SCF Done:  E(UM062X) =  -111.649028593     A.U. after   14 cycles
 SCF Done:  E(UM062X) =  -111.649028745     A.U. after   11 cycles
 SCF Done:  E(UM062X) =  -111.649028818     A.U. after   11 cycles
 Optimization completed.
    -- Stationary point found.

                          Input orientation:
 ---------------------------------------------------------------------
 Center     Atomic      Atomic             Coordinates (Angstroms)
 Number     Number       Type             X           Y           Z
 ---------------------------------------------------------------------
      1          7           0       -1.661540    0.000000    0.000000
      2          7           0        1.661540    0.000000    0.000000
      3          1           0       -1.558130   -0.814355   -0.618218
      4          1           0        1.557939    0.407971   -0.937495
      5          1           0       -1.558050   -0.408253    0.937383
      6          1           0        1.558153    0.814531    0.617990
 ---------------------------------------------------------------------

 Alpha  occ. eigenvalues --  -14.80565 -14.80563  -0.95234  -0.94669  -0.55271
 Alpha  occ. eigenvalues --   -0.54909  -0.40888  -0.40398  -0.29498
 Alpha virt. eigenvalues --   -0.17273   0.04452   0.06336   0.08692   0.11490
 Alpha virt. eigenvalues --    0.12668   0.13768   0.15828   0.16066   0.18549
 Alpha virt. eigenvalues --    0.19458   0.26057   0.27185   0.51318   0.51493

  Beta  occ. eigenvalues --  -14.80565 -14.80563  -0.95234  -0.94669  -0.55271
  Beta  occ. eigenvalues --   -0.54909  -0.40888  -0.40398  -0.29498
  Beta virt. eigenvalues --   -0.17273   0.04452   0.06336   0.08692   0.11490
  Beta virt. eigenvalues --    0.12668   0.13768   0.15828   0.16066   0.18549
  Beta virt. eigenvalues --    0.19458   0.26057   0.27185   0.51318   0.51493

 Mulliken charges and spin densities:
               1          2
     1  N   -0.492038  -0.000000
     2  N   -0.492018   0.000000
     3  H    0.246010   0.000000
     4  H    0.246012  -0.000000
     5  H    0.246019   0.000000
     6  H    0.246016  -0.000000
 Sum of Mulliken charges =  -0.00000   0.00000

 Dipole moment (field-independent basis, Debye):
    X=             -0.0001    Y=             -0.0002    Z=             -0.0006  Tot=              0.0006
 Quadrupole moment (field-independent basis, Debye-Ang):
   XX=            -16.2767   YY=            -14.3134   ZZ=            -11.5050
   XY=              6.9363   XZ=             -1.8114   YZ=              0.7873

 Normal termination of Gaussian 16 at Thu May 15 14:54:54 2025.
