 Gaussian 16, Revision A.03,
 Gaussian 16:  ES64L-G16RevA.03 25-Dec-2016

 --------------------------------------------
 #p opt UM062X/6-311+G** nosymm int=superfine
 --------------------------------------------

 -------------------
 Title Card Required
 -------------------
 Symbolic Z-matrix:
 Charge = -1 Multiplicity = 2

 SCF Done:  E(UM062X) =  -50.6194921914     A.U. after   22 cycles
 SCF Done:  E(UM062X) =  -50.6194922032     A.U. after   14 cycles
 SCF Done:  E(UM062X) =  -50.6194923792     A.U. after   17 cycles
 SCF Done:  E(UM062X) =  -50.6194924917     A.U. after   18 cycles
 Optimization completed.
    -- Stationary point found.

                          Input orientation:
 ---------------------------------------------------------------------
 Center     Atomic      Atomic             Coordinates (Angstroms)
 Number     Number       Type             X           Y           Z
 ---------------------------------------------------------------------
      1          5           0       -1.416404    0.000000    0.000000
      2          5           0        1.416404    0.000000    0.000000
      3          1           0       -1.576481   -0.470624   -1.131276
      4          1           0        1.575934    1.221063   -0.102304
 ---------------------------------------------------------------------

 Alpha  occ. eigenvalues --   -6.89662  -6.89658  -0.34706  -0.32341  -0.09109
 Alpha  occ. eigenvalues --   -0.07156  -0.00678
 Alpha virt. eigenvalues --    0.13408   0.14157   0.15806   0.17508   0.18915
 Alpha virt. eigenvalues --    0.20233   0.21826   0.22130   0.22398   0.23779
 Alpha virt. eigenvalues --    0.25372   0.33920   0.36415   0.52281   0.52603

  Beta  occ. eigenvalues --   -6.89521  -6.89520  -0.33234  -0.31035  -0.08180
  Beta  occ. eigenvalues --   -0.04977
  Beta virt. eigenvalues --    0.11420   0.12844   0.12849   0.14461   0.16286
  Beta virt. eigenvalues --    0.18544   0.20092   0.21290   0.22138   0.22542
  Beta virt. eigenvalues --    0.24431   0.27557   0.33678   0.36104   0.52326

 Mulliken charges and spin densities:
               1          2
     1  B   -0.425422   0.517399
     2  B   -0.425319   0.517176
     3  H   -0.074635  -0.017290
     4  H   -0.074624  -0.017285
 Sum of Mulliken charges =  -1.00000   1.00000

 Dipole moment (field-independent basis, Debye):
    X=             -0.0004    Y=              0.8290    Z=             -1.3628  Tot=              1.5952
 Quadrupole moment (field-independent basis, Debye-Ang):
   XX=            -36.1495   YY=            -23.1449   ZZ=            -21.9148
   XY=              3.3064   XZ=              2.0106   YZ=             -1.1881

 Normal termination of Gaussian 16 at Mon Apr 21 18:54:07 2025.
