 Gaussian 16, Revision A.03,
 Gaussian 16:  ES64L-G16RevA.03 25-Dec-2016

 --------------------------------------------
 #p opt UM062X/6-311+G** nosymm int=superfine
 --------------------------------------------

 -------------------
 Title Card Required
 -------------------
 Symbolic Z-matrix:
 Charge =  0 Multiplicity = 1

 SCF Done:  E(UM062X) =  -80.4180506190     A.U. after   17 cycles
 SCF Done:  E(UM062X) =  -80.4255481694     A.U. after   12 cycles
 SCF Done:  E(UM062X) =  -80.4297727784     A.U. after   12 cycles
 SCF Done:  E(UM062X) =  -80.4328219045     A.U. after   12 cycles
 SCF Done:  E(UM062X) =  -80.4339270726     A.U. after   11 cycles
 SCF Done:  E(UM062X) =  -80.4348552535     A.U. after   11 cycles
 SCF Done:  E(UM062X) =  -80.4351897351     A.U. after   13 cycles
 SCF Done:  E(UM062X) =  -80.4352787450     A.U. after   13 cycles
 SCF Done:  E(UM062X) =  -80.4352711545     A.U. after   15 cycles
 SCF Done:  E(UM062X) =  -80.4353423953     A.U. after   15 cycles
 SCF Done:  E(UM062X) =  -80.4353942969     A.U. after   13 cycles
 SCF Done:  E(UM062X) =  -80.4355302457     A.U. after   15 cycles
 SCF Done:  E(UM062X) =  -80.4355832035     A.U. after   13 cycles
 SCF Done:  E(UM062X) =  -80.4356094921     A.U. after   20 cycles
 SCF Done:  E(UM062X) =  -80.4356165679     A.U. after   13 cycles
 SCF Done:  E(UM062X) =  -80.4356181664     A.U. after   12 cycles
 SCF Done:  E(UM062X) =  -80.4356182079     A.U. after   13 cycles
 Optimization completed.
    -- Stationary point found.

                          Input orientation:
 ---------------------------------------------------------------------
 Center     Atomic      Atomic             Coordinates (Angstroms)
 Number     Number       Type             X           Y           Z
 ---------------------------------------------------------------------
      1          5           0       -1.492066   -0.000000    0.000000
      2          7           0        1.492066    0.000000   -0.000000
      3          1           0       -2.663494   -0.330715    0.012772
      4          1           0        1.350178    1.025305   -0.040853
 ---------------------------------------------------------------------

 Alpha  occ. eigenvalues --  -14.78992  -7.17227  -0.85579  -0.58450  -0.42461
 Alpha  occ. eigenvalues --   -0.31728  -0.29809
 Alpha virt. eigenvalues --   -0.08921  -0.06976  -0.06492   0.01175   0.04221
 Alpha virt. eigenvalues --    0.05370   0.05411   0.11709   0.15408   0.16917
 Alpha virt. eigenvalues --    0.17904   0.20981   0.25267   0.35524   0.39562

  Beta  occ. eigenvalues --  -14.78992  -7.17227  -0.85579  -0.58450  -0.42461
  Beta  occ. eigenvalues --   -0.31728  -0.29809
  Beta virt. eigenvalues --   -0.08921  -0.06976  -0.06492   0.01175   0.04221
  Beta virt. eigenvalues --    0.05370   0.05411   0.11709   0.15408   0.16917
  Beta virt. eigenvalues --    0.17904   0.20981   0.25267   0.35524   0.39562

 Mulliken charges and spin densities:
               1          2
     1  B    0.048747  -0.000000
     2  N   -0.263542   0.000000
     3  H    0.029337  -0.000000
     4  H    0.185458   0.000000
 Sum of Mulliken charges =  -0.00000  -0.00000

 Dipole moment (field-independent basis, Debye):
    X=             -3.5640    Y=              1.1184    Z=             -0.0450  Tot=              3.7356
 Quadrupole moment (field-independent basis, Debye-Ang):
   XX=             -9.8888   YY=            -12.5600   ZZ=            -15.1457
   XY=              2.6808   XZ=             -0.1070   YZ=             -0.1034

 Normal termination of Gaussian 16 at Mon Apr 21 21:05:26 2025.
