 Gaussian 16, Revision A.03,
 Gaussian 16:  ES64L-G16RevA.03 25-Dec-2016

 ---------------------------------------
 #p UM062X/6-311+G** force int=superfine
 ---------------------------------------

 -------------------
 Title Card Required
 -------------------
 Symbolic Z-matrix:
 Charge =  0 Multiplicity = 1

                         Standard orientation:
 ---------------------------------------------------------------------
 Center     Atomic      Atomic             Coordinates (Angstroms)
 Number     Number       Type             X           Y           Z
 ---------------------------------------------------------------------
      1          6           0        0.000000    0.404352    0.000000
      2          6           0       -0.000000   -0.404352    0.000000
      3          1           0       -0.854305    1.114394    0.000000
      4          1           0        0.854416    1.114352    0.000000
      5          1           0        0.854305   -1.114394    0.000000
      6          1           0       -0.854416   -1.114352    0.000000
 ---------------------------------------------------------------------

 SCF Done:  E(UM062X) =  -77.6419574755     A.U. after   10 cycles

 The electronic state is 1-AG.
 Alpha  occ. eigenvalues --  -10.52963 -10.45867  -0.94590  -0.62224  -0.60903
 Alpha  occ. eigenvalues --   -0.53476  -0.49642  -0.29736
 Alpha virt. eigenvalues --    0.03043   0.03390   0.04225   0.06002   0.07955
 Alpha virt. eigenvalues --    0.09232   0.09853   0.15659   0.16010   0.18658
 Alpha virt. eigenvalues --    0.24007   0.25328   0.36325   0.41964   0.43391

  Beta  occ. eigenvalues --  -10.52963 -10.45867  -0.94590  -0.62224  -0.60903
  Beta  occ. eigenvalues --   -0.53476  -0.49642  -0.29736
  Beta virt. eigenvalues --    0.03043   0.03390   0.04225   0.06002   0.07955
  Beta virt. eigenvalues --    0.09232   0.09853   0.15659   0.16010   0.18658
  Beta virt. eigenvalues --    0.24007   0.25328   0.36325   0.41964   0.43391

 Mulliken charges and spin densities:
               1          2
     1  C   -0.243476  -0.000000
     2  C   -0.243476  -0.000000
     3  H    0.121748   0.000000
     4  H    0.121728   0.000000
     5  H    0.121748   0.000000
     6  H    0.121728   0.000000
 Sum of Mulliken charges =  -0.00000   0.00000

 Dipole moment (field-independent basis, Debye):
    X=              0.0000    Y=             -0.0000    Z=              0.0000  Tot=              0.0000
 Quadrupole moment (field-independent basis, Debye-Ang):
   XX=            -12.5336   YY=            -12.6582   ZZ=            -13.3921
   XY=             -0.0003   XZ=              0.0000   YZ=              0.0000

 Normal termination of Gaussian 16 at Tue Nov 19 11:39:53 2024.
