 Gaussian 16, Revision A.03,
 Gaussian 16:  ES64L-G16RevA.03 25-Dec-2016

 --------------------------------------------
 #p opt UM062X/6-311+G** nosymm int=superfine
 --------------------------------------------

 -------------------
 Title Card Required
 -------------------
 Symbolic Z-matrix:
 Charge = -1 Multiplicity = 2

 SCF Done:  E(UM062X) =  -50.5611281751     A.U. after   12 cycles
 SCF Done:  E(UM062X) =  -50.5647286697     A.U. after   15 cycles
 SCF Done:  E(UM062X) =  -50.5649326754     A.U. after   15 cycles
 Optimization completed.
    -- Stationary point found.

                          Input orientation:
 ---------------------------------------------------------------------
 Center     Atomic      Atomic             Coordinates (Angstroms)
 Number     Number       Type             X           Y           Z
 ---------------------------------------------------------------------
      1          5           0       -2.216404    0.000000    0.000000
      2          5           0        2.216404    0.000000    0.000000
      3          1           0       -3.475809   -0.000955    0.000000
      4          1           0        3.475809    0.000955   -0.000000
 ---------------------------------------------------------------------

 Alpha  occ. eigenvalues --   -6.91794  -6.91794  -0.35472  -0.35385  -0.09778
 Alpha  occ. eigenvalues --   -0.08054   0.02630
 Alpha virt. eigenvalues --    0.09290   0.12123   0.12951   0.15286   0.15957
 Alpha virt. eigenvalues --    0.21150   0.21472   0.21613   0.22355   0.22888
 Alpha virt. eigenvalues --    0.25216   0.31627   0.36548   0.49836   0.55090

  Beta  occ. eigenvalues --   -6.91699  -6.91698  -0.34386  -0.34357  -0.08684
  Beta  occ. eigenvalues --   -0.07007
  Beta virt. eigenvalues --    0.10575   0.11310   0.11885   0.12215   0.13359
  Beta virt. eigenvalues --    0.13541   0.19187   0.19996   0.20191   0.21044
  Beta virt. eigenvalues --    0.21486   0.21580   0.31401   0.36601   0.49395

 Mulliken charges and spin densities:
               1          2
     1  B   -0.411264   0.513174
     2  B   -0.411264   0.513174
     3  H   -0.088736  -0.013174
     4  H   -0.088736  -0.013174
 Sum of Mulliken charges =  -1.00000   1.00000

 Dipole moment (field-independent basis, Debye):
    X=             -0.0000    Y=              0.0000    Z=             -0.0000  Tot=              0.0000
 Quadrupole moment (field-independent basis, Debye-Ang):
   XX=            -41.5331   YY=            -18.9435   ZZ=            -26.1119
   XY=             -0.0008   XZ=              0.0000   YZ=             -0.0000

 Normal termination of Gaussian 16 at Mon Apr 21 17:34:33 2025.
