 Gaussian 16, Revision A.03,
 Gaussian 16:  ES64L-G16RevA.03 25-Dec-2016

 --------------------------------------------
 #p opt UM062X/6-311+G** nosymm int=superfine
 --------------------------------------------

 -------------------
 Title Card Required
 -------------------
 Symbolic Z-matrix:
 Charge =  0 Multiplicity = 1

 SCF Done:  E(UM062X) =  -77.3082888925     A.U. after   11 cycles
 SCF Done:  E(UM062X) =  -77.3808338896     A.U. after    8 cycles
 SCF Done:  E(UM062X) =  -77.4593906288     A.U. after    9 cycles
 SCF Done:  E(UM062X) =  -77.4739916538     A.U. after    8 cycles
 SCF Done:  E(UM062X) =  -77.4740867613     A.U. after    7 cycles
 Optimization completed.
    -- Stationary point found.

                          Input orientation:
 ---------------------------------------------------------------------
 Center     Atomic      Atomic             Coordinates (Angstroms)
 Number     Number       Type             X           Y           Z
 ---------------------------------------------------------------------
      1          6           0       -0.391094    0.000000    0.000000
      2          6           0        0.391094    0.000000    0.000000
      3          1           0       -1.113849   -0.846882    0.000000
      4          1           0       -1.113778    0.847114    0.000000
      5          1           0        1.113849    0.846882    0.000000
      6          1           0        1.113778   -0.847114    0.000000
 ---------------------------------------------------------------------

 Alpha  occ. eigenvalues --  -10.54899 -10.45930  -0.93929  -0.63040  -0.60679
 Alpha  occ. eigenvalues --   -0.53206  -0.51092  -0.28973
 Alpha virt. eigenvalues --    0.02980   0.03189   0.04206   0.05880   0.08029
 Alpha virt. eigenvalues --    0.09302   0.09849   0.15256   0.15984   0.18719
 Alpha virt. eigenvalues --    0.24710   0.25345   0.36602   0.41842   0.43625

  Beta  occ. eigenvalues --  -10.54899 -10.45930  -0.93929  -0.63040  -0.60679
  Beta  occ. eigenvalues --   -0.53206  -0.51092  -0.28973
  Beta virt. eigenvalues --    0.02980   0.03189   0.04206   0.05880   0.08029
  Beta virt. eigenvalues --    0.09302   0.09849   0.15256   0.15984   0.18719
  Beta virt. eigenvalues --    0.24710   0.25345   0.36602   0.41842   0.43625

 Mulliken charges and spin densities:
               1          2
     1  C   -0.242787   0.000000
     2  C   -0.242787  -0.000000
     3  H    0.121416  -0.000000
     4  H    0.121371  -0.000000
     5  H    0.121416  -0.000000
     6  H    0.121371  -0.000000
 Sum of Mulliken charges =  -0.00000  -0.00000

 Dipole moment (field-independent basis, Debye):
    X=              0.0000    Y=              0.0000    Z=              0.0000  Tot=              0.0000
 Quadrupole moment (field-independent basis, Debye-Ang):
   XX=            -12.6843   YY=            -12.5755   ZZ=            -13.2572
   XY=              0.0007   XZ=              0.0000   YZ=             -0.0000

 Normal termination of Gaussian 16 at Tue Nov 19 10:15:36 2024.
