 Gaussian 16, Revision A.03,
 Gaussian 16:  ES64L-G16RevA.03 25-Dec-2016

 ---------------------------------------------------
 #p UM062X/6-311+G** force int=superfine pop=saveNBO
 ---------------------------------------------------

 -------------------
 Title Card Required
 -------------------
 Symbolic Z-matrix:
 Charge =  0 Multiplicity = 1

                         Standard orientation:
 ---------------------------------------------------------------------
 Center     Atomic      Atomic             Coordinates (Angstroms)
 Number     Number       Type             X           Y           Z
 ---------------------------------------------------------------------
      1          6           0        0.000000    0.000000   -2.057158
      2         16           0        0.000000    0.000000    0.771434
 ---------------------------------------------------------------------

 SCF Done:  E(UM062X) =  -435.880564648     A.U. after   16 cycles

 The electronic state is 1-SG.
 Alpha  occ. eigenvalues --  -89.93882 -10.81331  -8.29642  -6.21954  -6.21129
 Alpha  occ. eigenvalues --   -6.21129  -0.74792  -0.69768  -0.34703  -0.30628
 Alpha  occ. eigenvalues --   -0.30628
 Alpha virt. eigenvalues --   -0.17122  -0.17122  -0.13815   0.03217   0.05345
 Alpha virt. eigenvalues --    0.06007   0.06007   0.08759   0.08805   0.08805
 Alpha virt. eigenvalues --    0.14825   0.36152   0.36152   0.36943   0.52505

  Beta  occ. eigenvalues --  -89.93882 -10.81331  -8.29642  -6.21954  -6.21129
  Beta  occ. eigenvalues --   -6.21129  -0.74792  -0.69768  -0.34703  -0.30628
  Beta  occ. eigenvalues --   -0.30628
  Beta virt. eigenvalues --   -0.17122  -0.17122  -0.13815   0.03217   0.05345
  Beta virt. eigenvalues --    0.06007   0.06007   0.08759   0.08805   0.08805
  Beta virt. eigenvalues --    0.14825   0.36152   0.36152   0.36943   0.52505

 Mulliken charges and spin densities:
               1          2
     1  C    0.186953  -0.000000
     2  S   -0.186953   0.000000
 Sum of Mulliken charges =  -0.00000   0.00000

 Dipole moment (field-independent basis, Debye):
    X=              0.0000    Y=              0.0000    Z=             -2.4906  Tot=              2.4906
 Quadrupole moment (field-independent basis, Debye-Ang):
   XX=            -20.8370   YY=            -20.8370   ZZ=            -14.8356
   XY=              0.0000   XZ=              0.0000   YZ=              0.0000

 Summary of Natural Population Analysis:

                                       Natural Population
                Natural  -----------------------------------------------
    Atom  No    Charge         Core      Valence    Rydberg      Total
 -----------------------------------------------------------------------
      C    1    0.15055      1.00000     1.84869    0.00076     2.84945
      S    2   -0.15055      4.99999     3.14982    0.00074     8.15055
 =======================================================================
   * Total *   -0.00000      5.99999     4.99851    0.00150    11.00000

 Normal termination of Gaussian 16 at Mon Apr 21 19:45:53 2025.
