 Gaussian 16, Revision A.03,
 Gaussian 16:  ES64L-G16RevA.03 25-Dec-2016

 ---------------------------------------------------
 #p UM062X/6-311+G** force int=superfine pop=saveNBO
 ---------------------------------------------------

 -------------------
 Title Card Required
 -------------------
 Symbolic Z-matrix:
 Charge =  0 Multiplicity = 1

                         Standard orientation:
 ---------------------------------------------------------------------
 Center     Atomic      Atomic             Coordinates (Angstroms)
 Number     Number       Type             X           Y           Z
 ---------------------------------------------------------------------
      1          8           0        0.000000    0.000000   -1.960091
      2         16           0        0.000000    0.000000    0.980045
 ---------------------------------------------------------------------

 SCF Done:  E(UM062X) =  -472.981416243     A.U. after   22 cycles

 Unable to determine electronic state:  an orbital has unidentified symmetry.
 Alpha  occ. eigenvalues --  -90.03601 -19.75699  -8.39201  -6.31233  -6.31231
 Alpha  occ. eigenvalues --   -6.30317  -1.04254  -0.81327  -0.42768  -0.38397
 Alpha  occ. eigenvalues --   -0.37739  -0.35694
 Alpha virt. eigenvalues --   -0.25096  -0.22081   0.02608   0.04721   0.05210
 Alpha virt. eigenvalues --    0.05640   0.17556   0.19696   0.19906   0.25139
 Alpha virt. eigenvalues --    0.32332   0.33284   0.34379   0.56991   0.73850

  Beta  occ. eigenvalues --  -90.03601 -19.75699  -8.39201  -6.31233  -6.31231
  Beta  occ. eigenvalues --   -6.30317  -1.04254  -0.81327  -0.42768  -0.38397
  Beta  occ. eigenvalues --   -0.37739  -0.35694
  Beta virt. eigenvalues --   -0.25096  -0.22081   0.02608   0.04721   0.05210
  Beta virt. eigenvalues --    0.05640   0.17556   0.19696   0.19906   0.25139
  Beta virt. eigenvalues --    0.32332   0.33284   0.34379   0.56991   0.73850

 Mulliken charges and spin densities:
               1          2
     1  O   -0.200487  -0.000000
     2  S    0.200487   0.000000
 Sum of Mulliken charges =  -0.00000   0.00000

 Dipole moment (field-independent basis, Debye):
    X=              0.0000    Y=              0.0000    Z=              2.8229  Tot=              2.8229
 Quadrupole moment (field-independent basis, Debye-Ang):
   XX=            -20.8402   YY=            -17.3709   ZZ=            -18.6270
   XY=              0.0000   XZ=              0.0000   YZ=              0.0000

 Summary of Natural Population Analysis:

                                       Natural Population
                Natural  -----------------------------------------------
    Atom  No    Charge         Core      Valence    Rydberg      Total
 -----------------------------------------------------------------------
      O    1   -0.12098      1.00000     3.11993    0.00105     4.12098
      S    2    0.12098      5.00000     2.87833    0.00070     7.87902
 =======================================================================
   * Total *   -0.00000      6.00000     5.99826    0.00175    12.00000

 Normal termination of Gaussian 16 at Mon Apr 21 20:00:14 2025.
