 Gaussian 16, Revision A.03,
 Gaussian 16:  ES64L-G16RevA.03 25-Dec-2016

 --------------------------------
 #p UM062X/6-311+G** Pop=NBO Read
 --------------------------------

 ------------
 NBO Analysis
 ------------
 Symbolic Z-matrix:
 Charge =  0 Multiplicity = 1

                         Standard orientation:
 ---------------------------------------------------------------------
 Center     Atomic      Atomic             Coordinates (Angstroms)
 Number     Number       Type             X           Y           Z
 ---------------------------------------------------------------------
      1          6           0        0.000000    0.000000   -0.496134
      2          7           0        0.000000    0.000000    0.648655
      3          1           0        0.000000    0.000000   -1.563777
 ---------------------------------------------------------------------

 SCF Done:  E(UM062X) =  -93.3908434403     A.U. after    9 cycles

 The electronic state is 1-SG.
 Alpha  occ. eigenvalues --  -14.79312 -10.60764  -1.03774  -0.68704  -0.46492
 Alpha  occ. eigenvalues --   -0.43500  -0.43500
 Alpha virt. eigenvalues --    0.02278   0.03006   0.03006   0.04031   0.09356
 Alpha virt. eigenvalues --    0.09356   0.14927   0.20107   0.20107   0.20699
 Alpha virt. eigenvalues --    0.28362   0.59014   0.69224   0.69224   0.75760

  Beta  occ. eigenvalues --  -14.79312 -10.60764  -1.03774  -0.68704  -0.46492
  Beta  occ. eigenvalues --   -0.43500  -0.43500
  Beta virt. eigenvalues --    0.02278   0.03006   0.03006   0.04031   0.09356
  Beta virt. eigenvalues --    0.09356   0.14927   0.20107   0.20107   0.20699
  Beta virt. eigenvalues --    0.28362   0.59014   0.69224   0.69224   0.75760

 Mulliken charges and spin densities:
               1          2
     1  C    0.041041   0.000000
     2  N   -0.257415   0.000000
     3  H    0.216374   0.000000
 Sum of Mulliken charges =   0.00000   0.00000

 Dipole moment (field-independent basis, Debye):
    X=              0.0000    Y=              0.0000    Z=             -3.0490  Tot=              3.0490
 Quadrupole moment (field-independent basis, Debye-Ang):
   XX=            -11.8058   YY=            -11.8058   ZZ=             -9.7588
   XY=              0.0000   XZ=              0.0000   YZ=              0.0000

 Summary of Natural Population Analysis:

                                       Natural Population
                Natural  -----------------------------------------------
    Atom  No    Charge         Core      Valence    Rydberg      Total
 -----------------------------------------------------------------------
      C    1    0.03030      0.99970     1.95551    0.01449     2.96970
      N    2   -0.15268      0.99984     2.63988    0.01296     3.65268
      H    3    0.12238      0.00000     0.37708    0.00054     0.37762
 =======================================================================
   * Total *   -0.00000      1.99954     4.97247    0.02799     7.00000

 Normal termination of Gaussian 16 at Wed Apr 16 02:26:23 2025.
