 Gaussian 16, Revision A.03,
 Gaussian 16:  ES64L-G16RevA.03 25-Dec-2016

 --------------------------------------------
 #p opt UM062X/6-311+G** nosymm int=superfine
 --------------------------------------------

 -------------------
 Title Card Required
 -------------------
 Symbolic Z-matrix:
 Charge =  0 Multiplicity = 1

 SCF Done:  E(UM062X) =  -94.2492867167     A.U. after   12 cycles
 SCF Done:  E(UM062X) =  -94.2529037140     A.U. after   11 cycles
 SCF Done:  E(UM062X) =  -94.2541325263     A.U. after   11 cycles
 SCF Done:  E(UM062X) =  -94.2542094848     A.U. after    9 cycles
 SCF Done:  E(UM062X) =  -94.2545289680     A.U. after   19 cycles
 SCF Done:  E(UM062X) =  -94.2553295381     A.U. after   18 cycles
 SCF Done:  E(UM062X) =  -94.2562040978     A.U. after   22 cycles
 SCF Done:  E(UM062X) =  -94.2568790426     A.U. after   20 cycles
 SCF Done:  E(UM062X) =  -94.2571324906     A.U. after   66 cycles
 SCF Done:  E(UM062X) =  -94.2571852511     A.U. after  127 cycles
 SCF Done:  E(UM062X) =  -94.2572477431     A.U. after   30 cycles
 SCF Done:  E(UM062X) =  -94.2572843319     A.U. after   17 cycles
 SCF Done:  E(UM062X) =  -94.2573897762     A.U. after   12 cycles
 SCF Done:  E(UM062X) =  -94.2574881870     A.U. after   39 cycles
 SCF Done:  E(UM062X) =  -94.2574920218     A.U. after   10 cycles
 SCF Done:  E(UM062X) =  -94.2575308450     A.U. after   12 cycles
 SCF Done:  E(UM062X) =  -94.2575951316     A.U. after   13 cycles
 SCF Done:  E(UM062X) =  -94.2576219470     A.U. after   12 cycles
 SCF Done:  E(UM062X) =  -94.2576234860     A.U. after   12 cycles
 SCF Done:  E(UM062X) =  -94.2576240266     A.U. after   10 cycles
 Optimization completed.
    -- Stationary point found.

                          Input orientation:
 ---------------------------------------------------------------------
 Center     Atomic      Atomic             Coordinates (Angstroms)
 Number     Number       Type             X           Y           Z
 ---------------------------------------------------------------------
      1          6           0       -2.131637    0.000000   -0.000000
      2          7           0        2.131637   -0.000000   -0.000000
      3          1           0       -2.825524   -0.794010    0.338561
      4          1           0        1.091426   -0.000000    0.000000
      5          1           0       -2.824166    0.795061   -0.338919
 ---------------------------------------------------------------------

 Alpha  occ. eigenvalues --  -14.81934 -10.62351  -0.88314  -0.77100  -0.49127
 Alpha  occ. eigenvalues --   -0.45158  -0.33126  -0.32758
 Alpha virt. eigenvalues --   -0.11654  -0.09667   0.01296   0.05370   0.05830
 Alpha virt. eigenvalues --    0.07430   0.13449   0.13475   0.15189   0.16760
 Alpha virt. eigenvalues --    0.17790   0.18204   0.20742   0.43271   0.47724

  Beta  occ. eigenvalues --  -14.81934 -10.62351  -0.88314  -0.77100  -0.49127
  Beta  occ. eigenvalues --   -0.45158  -0.33126  -0.32758
  Beta virt. eigenvalues --   -0.11654  -0.09667   0.01296   0.05370   0.05830
  Beta virt. eigenvalues --    0.07430   0.13449   0.13475   0.15189   0.16760
  Beta virt. eigenvalues --    0.17790   0.18204   0.20742   0.43271   0.47724

 Mulliken charges and spin densities:
               1          2
     1  C   -0.286103   0.000000
     2  N   -0.235525  -0.000000
     3  H    0.139273  -0.000000
     4  H    0.243105  -0.000000
     5  H    0.139250   0.000000
 Sum of Mulliken charges =  -0.00000  -0.00000

 Dipole moment (field-independent basis, Debye):
    X=             -4.0650    Y=              0.0015    Z=             -0.0005  Tot=              4.0650
 Quadrupole moment (field-independent basis, Debye-Ang):
   XX=            -13.3046   YY=            -12.6758   ZZ=            -14.4543
   XY=             -0.0018   XZ=              0.0006   YZ=             -0.9459

 Normal termination of Gaussian 16 at Mon Apr 21 18:32:06 2025.
