 Gaussian 16, Revision A.03,
 Gaussian 16:  ES64L-G16RevA.03 25-Dec-2016

 --------------------------------------------
 #p opt UM062X/6-311+G** nosymm int=superfine
 --------------------------------------------

 -------------------
 Title Card Required
 -------------------
 Symbolic Z-matrix:
 Charge =  0 Multiplicity = 1

 SCF Done:  E(UM062X) =  -437.251669726     A.U. after   13 cycles
 SCF Done:  E(UM062X) =  -437.252245081     A.U. after   12 cycles
 SCF Done:  E(UM062X) =  -437.252554417     A.U. after   13 cycles
 SCF Done:  E(UM062X) =  -437.252511417     A.U. after   12 cycles
 SCF Done:  E(UM062X) =  -437.252555656     A.U. after   15 cycles
 Optimization completed.
    -- Stationary point found.

                          Input orientation:
 ---------------------------------------------------------------------
 Center     Atomic      Atomic             Coordinates (Angstroms)
 Number     Number       Type             X           Y           Z
 ---------------------------------------------------------------------
      1          6           0       -1.252140    0.000000    0.000000
      2         16           0        1.252140    0.000000    0.000000
      3          1           0       -1.761696   -0.958759    0.000174
      4          1           0       -1.761956    0.958622   -0.000028
 ---------------------------------------------------------------------

 Alpha  occ. eigenvalues --  -89.92334 -10.69361  -8.28067  -6.20342  -6.19795
 Alpha  occ. eigenvalues --   -6.19373  -0.81215  -0.72214  -0.56778  -0.37973
 Alpha  occ. eigenvalues --   -0.29645  -0.29479
 Alpha virt. eigenvalues --   -0.14326  -0.08747   0.01509   0.04937   0.05953
 Alpha virt. eigenvalues --    0.06590   0.08518   0.08529   0.09223   0.13861
 Alpha virt. eigenvalues --    0.16143   0.19141   0.35888   0.35910   0.37177

  Beta  occ. eigenvalues --  -89.92334 -10.69361  -8.28067  -6.20342  -6.19795
  Beta  occ. eigenvalues --   -6.19373  -0.81215  -0.72214  -0.56778  -0.37973
  Beta  occ. eigenvalues --   -0.29645  -0.29479
  Beta virt. eigenvalues --   -0.14326  -0.08747   0.01509   0.04937   0.05953
  Beta virt. eigenvalues --    0.06590   0.08518   0.08529   0.09223   0.13861
  Beta virt. eigenvalues --    0.16143   0.19141   0.35888   0.35910   0.37177

 Mulliken charges and spin densities:
               1          2
     1  C   -0.291993  -0.000000
     2  S   -0.124190   0.000000
     3  H    0.208092   0.000000
     4  H    0.208091   0.000000
 Sum of Mulliken charges =  -0.00000  -0.00000

 Dipole moment (field-independent basis, Debye):
    X=             -3.6000    Y=             -0.0001    Z=              0.0002  Tot=              3.6000
 Quadrupole moment (field-independent basis, Debye-Ang):
   XX=            -15.3408   YY=            -21.4319   ZZ=            -22.0918
   XY=             -0.0003   XZ=              0.0000   YZ=             -0.0001

 Normal termination of Gaussian 16 at Mon Apr 21 19:42:33 2025.
