 Gaussian 16, Revision A.03,
 Gaussian 16:  ES64L-G16RevA.03 25-Dec-2016

 --------------------------------------------
 #p opt UM062X/6-311+G** nosymm int=superfine
 --------------------------------------------

 -------------------
 Title Card Required
 -------------------
 Symbolic Z-matrix:
 Charge =  1 Multiplicity = 2

 SCF Done:  E(UM062X) =  -79.3216952654     A.U. after   10 cycles
 SCF Done:  E(UM062X) =  -79.3224662343     A.U. after    9 cycles
 SCF Done:  E(UM062X) =  -79.3224690859     A.U. after    8 cycles
 Optimization completed.
    -- Stationary point found.

                          Input orientation:
 ---------------------------------------------------------------------
 Center     Atomic      Atomic             Coordinates (Angstroms)
 Number     Number       Type             X           Y           Z
 ---------------------------------------------------------------------
      1          6           0       -1.840407    0.000000    0.000000
      2          6           0        1.840407    0.000000    0.000000
      3          1           0        1.872777   -0.937648    0.542686
      4          1           0       -1.871214   -0.938749   -0.540867
      5          1           0        1.872114    0.938841    0.540657
      6          1           0        1.871240   -0.001165   -1.083413
      7          1           0       -1.872826    0.937748   -0.542510
      8          1           0       -1.872089    0.000941    1.083390
 ---------------------------------------------------------------------

 Alpha  occ. eigenvalues --  -10.84033 -10.84031  -1.02593  -1.02080  -0.73574
 Alpha  occ. eigenvalues --   -0.73574  -0.73373  -0.73373  -0.48790
 Alpha virt. eigenvalues --   -0.37236  -0.13070  -0.10207  -0.09723  -0.09722
 Alpha virt. eigenvalues --   -0.06238  -0.06238  -0.04465  -0.03126  -0.00611
 Alpha virt. eigenvalues --   -0.00608   0.01294   0.01296   0.03224   0.08335

  Beta  occ. eigenvalues --  -10.83820 -10.83820  -0.99924  -0.99584  -0.73065
  Beta  occ. eigenvalues --   -0.73064  -0.72844  -0.72843
  Beta virt. eigenvalues --   -0.32790  -0.26519  -0.16043  -0.11075  -0.11074
  Beta virt. eigenvalues --   -0.10177  -0.06270  -0.06270  -0.05003  -0.02190
  Beta virt. eigenvalues --   -0.00935  -0.00932   0.01569   0.01571   0.03182

 Mulliken charges and spin densities:
               1          2
     1  C   -0.259162   0.558524
     2  C   -0.259162   0.558524
     3  H    0.253071  -0.019508
     4  H    0.253031  -0.019512
     5  H    0.253052  -0.019513
     6  H    0.253038  -0.019503
     7  H    0.253073  -0.019508
     8  H    0.253059  -0.019504
 Sum of Mulliken charges =   1.00000   1.00000

 Dipole moment (field-independent basis, Debye):
    X=             -0.0000    Y=             -0.0000    Z=             -0.0001  Tot=              0.0001
 Quadrupole moment (field-independent basis, Debye-Ang):
   XX=              5.0793   YY=            -11.0995   ZZ=            -11.0996
   XY=             -0.0017   XZ=              0.0009   YZ=              0.0000

 Normal termination of Gaussian 16 at Wed Nov 13 12:51:19 2024.
