 Gaussian 16, Revision A.03,
 Gaussian 16:  ES64L-G16RevA.03 25-Dec-2016

 --------------------------------------------
 #p opt UM062X/6-311+G** nosymm int=superfine
 --------------------------------------------

 -------------------
 Title Card Required
 -------------------
 Symbolic Z-matrix:
 Charge =  0 Multiplicity = 1

 SCF Done:  E(UM062X) =  -95.6739353660     A.U. after   13 cycles
 SCF Done:  E(UM062X) =  -95.6908531286     A.U. after   11 cycles
 SCF Done:  E(UM062X) =  -95.6984595817     A.U. after   11 cycles
 SCF Done:  E(UM062X) =  -95.6985606102     A.U. after   10 cycles
 SCF Done:  E(UM062X) =  -95.6985730177     A.U. after    9 cycles
 SCF Done:  E(UM062X) =  -95.6985802451     A.U. after    9 cycles
 SCF Done:  E(UM062X) =  -95.6985804855     A.U. after    8 cycles
 Optimization completed.
    -- Stationary point found.

                          Input orientation:
 ---------------------------------------------------------------------
 Center     Atomic      Atomic             Coordinates (Angstroms)
 Number     Number       Type             X           Y           Z
 ---------------------------------------------------------------------
      1          6           0       -1.255542    0.000000    0.000000
      2          7           0        1.255542    0.000000    0.000000
      3          1           0        1.293730   -1.014740    0.135327
      4          1           0       -1.369227    1.074413    0.001724
      5          1           0        1.293602    0.370710    0.954254
      6          1           0       -1.369129   -0.515535   -0.942658
      7          1           0       -1.466676   -0.541611    0.911836
 ---------------------------------------------------------------------

 Alpha  occ. eigenvalues --  -14.75072 -10.60294  -0.90535  -0.79026  -0.51711
 Alpha  occ. eigenvalues --   -0.51131  -0.49962  -0.36185  -0.29887
 Alpha virt. eigenvalues --   -0.06701   0.01577   0.05004   0.05594   0.06819
 Alpha virt. eigenvalues --    0.10619   0.13495   0.16005   0.16609   0.17906
 Alpha virt. eigenvalues --    0.20354   0.22023   0.22216   0.31681   0.41526

  Beta  occ. eigenvalues --  -14.75072 -10.60294  -0.90535  -0.79026  -0.51711
  Beta  occ. eigenvalues --   -0.51131  -0.49962  -0.36185  -0.29887
  Beta virt. eigenvalues --   -0.06701   0.01577   0.05004   0.05594   0.06819
  Beta virt. eigenvalues --    0.10619   0.13495   0.16005   0.16609   0.17906
  Beta virt. eigenvalues --    0.20354   0.22023   0.22216   0.31681   0.41526

 Mulliken charges and spin densities:
               1          2
     1  C   -0.427893  -0.000000
     2  N   -0.592168   0.000000
     3  H    0.228451  -0.000000
     4  H    0.193083   0.000000
     5  H    0.228443  -0.000000
     6  H    0.193154   0.000000
     7  H    0.176930   0.000000
 Sum of Mulliken charges =  -0.00000  -0.00000

 Dipole moment (field-independent basis, Debye):
    X=             -2.2225    Y=             -0.9300    Z=              1.5735  Tot=              2.8776
 Quadrupole moment (field-independent basis, Debye-Ang):
   XX=            -15.2287   YY=            -13.3045   ZZ=            -14.1349
   XY=             -1.4116   XZ=              2.3880   YZ=              0.7547

 Normal termination of Gaussian 16 at Mon Apr 21 18:07:56 2025.
