 Gaussian 16, Revision A.03,
 Gaussian 16:  ES64L-G16RevA.03 25-Dec-2016

 ----------------------------------------------------------------------
 #p opt UM062X/6-311+G** nosymm int=superfine SCF=(MaxCycle=200,NoVarAc
 c,noincfock) guess=read
 ----------------------------------------------------------------------

 -------------------
 Title Card Required
 -------------------
 Symbolic Z-matrix:
 Charge =  1 Multiplicity = 2

 SCF Done:  E(UM062X) =  -379.337431579     A.U. after   95 cycles
 SCF Done:  E(UM062X) =  -379.337754580     A.U. after   17 cycles
 Optimization completed.
    -- Stationary point found.

                          Input orientation:
 ---------------------------------------------------------------------
 Center     Atomic      Atomic             Coordinates (Angstroms)
 Number     Number       Type             X           Y           Z
 ---------------------------------------------------------------------
      1          6           0       -1.394427    0.000000    0.000000
      2         15           0        1.394427    0.000000    0.000000
      3          1           0       -2.501786    0.000000    0.000002
 ---------------------------------------------------------------------

 Alpha  occ. eigenvalues --  -78.40317 -10.93537  -7.21656  -5.33488  -5.33137
 Alpha  occ. eigenvalues --   -5.31837  -0.98927  -0.89387  -0.66134  -0.52535
 Alpha  occ. eigenvalues --   -0.50221
 Alpha virt. eigenvalues --   -0.40075  -0.37668  -0.35999  -0.12812  -0.10452
 Alpha virt. eigenvalues --   -0.08971  -0.08522  -0.07545  -0.05112  -0.04922
 Alpha virt. eigenvalues --   -0.00447   0.03211   0.13100   0.14104   0.14323

  Beta  occ. eigenvalues --  -78.40396 -10.92824  -7.21736  -5.33275  -5.32870
  Beta  occ. eigenvalues --   -5.32719  -0.94093  -0.89196  -0.63180  -0.53444
  Beta virt. eigenvalues --   -0.37067  -0.35719  -0.29785  -0.28772  -0.14212
  Beta virt. eigenvalues --   -0.10803  -0.08761  -0.08744  -0.08003  -0.04816
  Beta virt. eigenvalues --   -0.04535  -0.02670   0.05487   0.11974   0.12695

 Mulliken charges and spin densities:
               1          2
     1  C   -0.043760   1.035041
     2  P    0.752882  -0.007510
     3  H    0.290879  -0.027531
 Sum of Mulliken charges =   1.00000   1.00000

 Dipole moment (field-independent basis, Debye):
    X=              0.8569    Y=             -0.0000    Z=              0.0000  Tot=              0.8569
 Quadrupole moment (field-independent basis, Debye-Ang):
   XX=              2.3393   YY=            -18.7551   ZZ=            -16.7862
   XY=             -0.0000   XZ=              0.0000   YZ=              1.4131

 Normal termination of Gaussian 16 at Tue Apr 22 00:15:12 2025.
