 Gaussian 16, Revision A.03,
 Gaussian 16:  ES64L-G16RevA.03 25-Dec-2016

 --------------------------------------------
 #p opt UM062X/6-311+G** nosymm int=superfine
 --------------------------------------------

 -------------------
 Title Card Required
 -------------------
 Symbolic Z-matrix:
 Charge =  0 Multiplicity = 2

 SCF Done:  E(UM062X) =  -342.482331624     A.U. after   10 cycles
 SCF Done:  E(UM062X) =  -342.482456468     A.U. after    8 cycles
 SCF Done:  E(UM062X) =  -342.482457114     A.U. after    7 cycles
 Optimization completed.
    -- Stationary point found.

                          Input orientation:
 ---------------------------------------------------------------------
 Center     Atomic      Atomic             Coordinates (Angstroms)
 Number     Number       Type             X           Y           Z
 ---------------------------------------------------------------------
      1         15           0       -1.114592   -0.008590    0.011188
      2          1           0       -1.236344    1.389910   -0.191189
      3          1           0       -1.357615   -0.274261   -1.360605
 ---------------------------------------------------------------------

 Alpha  occ. eigenvalues --  -78.03372  -6.85700  -4.98109  -4.97177  -4.96992
 Alpha  occ. eigenvalues --   -0.71845  -0.44798  -0.36479  -0.29455
 Alpha virt. eigenvalues --    0.02831   0.04254   0.04901   0.05279   0.06083
 Alpha virt. eigenvalues --    0.12224   0.30221   0.30918   0.32695   0.38131
 Alpha virt. eigenvalues --    0.42448   0.55167   0.63149   0.65270   0.66117

  Beta  occ. eigenvalues --  -78.02639  -6.85487  -4.96909  -4.96755  -4.96141
  Beta  occ. eigenvalues --   -0.68073  -0.44204  -0.34504
  Beta virt. eigenvalues --   -0.09197   0.00690   0.03735   0.04678   0.06481
  Beta virt. eigenvalues --    0.06542   0.12530   0.29313   0.30240   0.30422
  Beta virt. eigenvalues --    0.37919   0.44541   0.56437   0.66085   0.70177

 Mulliken charges and spin densities:
               1          2
     1  P    0.041634   1.079426
     2  H   -0.020816  -0.039715
     3  H   -0.020818  -0.039711
 Sum of Mulliken charges =  -0.00000   1.00000

 Dipole moment (field-independent basis, Debye):
    X=             -0.1621    Y=              0.5033    Z=             -0.6995  Tot=              0.8768
 Quadrupole moment (field-independent basis, Debye-Ang):
   XX=            -14.8228   YY=            -14.6400   ZZ=            -15.1180
   XY=             -0.4661   XZ=              0.7514   YZ=              0.6788

 1\1\GINC-NODE02\FOpt\UM062X\6-311+G(d,p)\H2P1(2)\SZHAO\16-Apr-2025\0\\
 #p opt UM062X/6-311+G** nosymm int=superfine\\Title Card Required\\0,2
 \P,-1.114591748,-0.0085896472,0.0111883288\H,-1.2363437352,1.389910445
 8,-0.1911890493\H,-1.3576150068,-0.2742607285,-1.3606046395\\Version=E
 S64L-G16RevA.03\HF=-342.4824571\S2=0.754234\S2-1=0.\S2A=0.750011\RMSD=
 3.731e-09\RMSF=1.586e-05\Dipole=-0.0637769,0.1980133,-0.2751907\Quadru
 pole=0.0278533,0.1637627,-0.191616,-0.3465177,0.5586299,0.5046627\PG=C
 S [SG(H2P1)]\\@

 Normal termination of Gaussian 16 at Wed Apr 16 09:00:02 2025.
