 Gaussian 16, Revision A.03,
 Gaussian 16:  ES64L-G16RevA.03 25-Dec-2016

 --------------------------------------------
 #p opt UM062X/6-311+G** nosymm int=superfine
 --------------------------------------------

 -------------------
 Title Card Required
 -------------------
 Symbolic Z-matrix:
 Charge =  0 Multiplicity = 1

 SCF Done:  E(UM062X) =  -437.191763262     A.U. after   17 cycles
 SCF Done:  E(UM062X) =  -437.192362901     A.U. after   14 cycles
 SCF Done:  E(UM062X) =  -437.192584375     A.U. after   14 cycles
 SCF Done:  E(UM062X) =  -437.192579098     A.U. after   12 cycles
 SCF Done:  E(UM062X) =  -437.192584700     A.U. after   12 cycles
 Optimization completed.
    -- Stationary point found.

                          Input orientation:
 ---------------------------------------------------------------------
 Center     Atomic      Atomic             Coordinates (Angstroms)
 Number     Number       Type             X           Y           Z
 ---------------------------------------------------------------------
      1          6           0       -1.502140    0.000000    0.000000
      2         16           0        1.502140    0.000000    0.000000
      3          1           0       -2.134473   -0.897770    0.000084
      4          1           0       -2.135221    0.897243   -0.000061
 ---------------------------------------------------------------------

 Alpha  occ. eigenvalues --  -89.91256 -10.67694  -8.27223  -6.19890  -6.18517
 Alpha  occ. eigenvalues --   -6.18484  -0.80628  -0.71645  -0.54128  -0.36654
 Alpha  occ. eigenvalues --   -0.29111  -0.29067
 Alpha virt. eigenvalues --   -0.12829  -0.12691   0.00581   0.05137   0.05785
 Alpha virt. eigenvalues --    0.06581   0.08538   0.08981   0.09148   0.14194
 Alpha virt. eigenvalues --    0.16673   0.16787   0.36183   0.37196   0.37441

  Beta  occ. eigenvalues --  -89.91256 -10.67694  -8.27223  -6.19890  -6.18517
  Beta  occ. eigenvalues --   -6.18484  -0.80628  -0.71645  -0.54128  -0.36654
  Beta  occ. eigenvalues --   -0.29111  -0.29067
  Beta virt. eigenvalues --   -0.12829  -0.12691   0.00581   0.05137   0.05785
  Beta virt. eigenvalues --    0.06581   0.08538   0.08981   0.09148   0.14194
  Beta virt. eigenvalues --    0.16673   0.16787   0.36183   0.37196   0.37441

 Mulliken charges and spin densities:
               1          2
     1  C   -0.244802   0.000000
     2  S   -0.110527  -0.000000
     3  H    0.177660   0.000000
     4  H    0.177669  -0.000000
 Sum of Mulliken charges =  -0.00000  -0.00000

 Dipole moment (field-independent basis, Debye):
    X=             -4.2778    Y=             -0.0007    Z=              0.0000  Tot=              4.2778
 Quadrupole moment (field-independent basis, Debye-Ang):
   XX=            -12.7592   YY=            -22.1908   ZZ=            -22.1079
   XY=             -0.0002   XZ=              0.0000   YZ=              0.0000

 Normal termination of Gaussian 16 at Mon Apr 21 19:39:13 2025.
