 Gaussian 16, Revision A.03,
 Gaussian 16:  ES64L-G16RevA.03 25-Dec-2016

 ---------------------------------------
 #p UM062X/6-311+G** force int=superfine
 ---------------------------------------

 -------------------
 Title Card Required
 -------------------
 Symbolic Z-matrix:
 Charge =  1 Multiplicity = 2

                         Standard orientation:
 ---------------------------------------------------------------------
 Center     Atomic      Atomic             Coordinates (Angstroms)
 Number     Number       Type             X           Y           Z
 ---------------------------------------------------------------------
      1          7           0        0.000000    0.000000    1.355391
      2          7           0        0.000000    0.000000   -1.355391
 ---------------------------------------------------------------------

 SCF Done:  E(UM062X) =  -108.414377778     A.U. after   11 cycles

 Unable to determine electronic state:  partially filled degenerate orbitals.
 Alpha  occ. eigenvalues --  -15.34407 -15.34399  -1.23162  -1.20649  -0.69664
 Alpha  occ. eigenvalues --   -0.69386  -0.66771
 Alpha virt. eigenvalues --   -0.58032  -0.55368  -0.52640  -0.12888  -0.08684
 Alpha virt. eigenvalues --   -0.08540  -0.08492  -0.03221  -0.03015  -0.02783
 Alpha virt. eigenvalues --    0.04594   0.41766   0.47420   0.48728   0.53342

  Beta  occ. eigenvalues --  -15.33921 -15.33916  -1.19406  -1.17026  -0.67950
  Beta  occ. eigenvalues --   -0.65013
  Beta virt. eigenvalues --   -0.53538  -0.50675  -0.46796  -0.45268  -0.14110
  Beta virt. eigenvalues --   -0.09123  -0.09044  -0.08672  -0.03739  -0.03131
  Beta virt. eigenvalues --   -0.03035   0.03121   0.42005   0.48732   0.48906

 Mulliken charges and spin densities:
               1          2
     1  N    0.500000   0.500000
     2  N    0.500000   0.500000
 Sum of Mulliken charges =   1.00000   1.00000

 Dipole moment (field-independent basis, Debye):
    X=              0.0000    Y=             -0.0000    Z=              0.0000  Tot=              0.0000
 Quadrupole moment (field-independent basis, Debye-Ang):
   XX=             -8.5621   YY=            -10.0141   ZZ=              0.5663
   XY=              0.0000   XZ=             -0.0000   YZ=              0.0000

 Optimization completed.
    -- Stationary point found.
 Normal termination of Gaussian 16 at Wed Feb 26 13:54:13 2025.
