 Gaussian 16, Revision A.03,
 Gaussian 16:  ES64L-G16RevA.03 25-Dec-2016

 --------------------------------------------
 #p opt UM062X/6-311+G** nosymm int=superfine
 --------------------------------------------

 -------------------
 Title Card Required
 -------------------
 Symbolic Z-matrix:
 Charge =  0 Multiplicity = 1

 SCF Done:  E(UM062X) =  -77.3158114754     A.U. after    9 cycles
 SCF Done:  E(UM062X) =  -77.3159747696     A.U. after    8 cycles
 SCF Done:  E(UM062X) =  -77.3159759218     A.U. after    6 cycles
 Optimization completed.
    -- Stationary point found.

                          Input orientation:
 ---------------------------------------------------------------------
 Center     Atomic      Atomic             Coordinates (Angstroms)
 Number     Number       Type             X           Y           Z
 ---------------------------------------------------------------------
      1          6           0       -0.592530    0.000000    0.000000
      2          6           0        0.592530    0.000000    0.000000
      3          1           0       -1.656719    0.000000    0.000000
      4          1           0        1.656719    0.000000    0.000000
 ---------------------------------------------------------------------

 Alpha  occ. eigenvalues --  -10.54448 -10.54140  -0.85691  -0.64542  -0.56806
 Alpha  occ. eigenvalues --   -0.36040  -0.36040
 Alpha virt. eigenvalues --    0.02633   0.02887   0.04853   0.04853   0.07597
 Alpha virt. eigenvalues --    0.07597   0.09305   0.15117   0.15117   0.15907
 Alpha virt. eigenvalues --    0.20070   0.24457   0.40487   0.44668   0.56647

  Beta  occ. eigenvalues --  -10.54448 -10.54140  -0.85691  -0.64542  -0.56806
  Beta  occ. eigenvalues --   -0.36040  -0.36040
  Beta virt. eigenvalues --    0.02633   0.02887   0.04853   0.04853   0.07597
  Beta virt. eigenvalues --    0.07597   0.09305   0.15117   0.15117   0.15907
  Beta virt. eigenvalues --    0.20070   0.24457   0.40487   0.44668   0.56647

 Mulliken charges and spin densities:
               1          2
     1  C   -0.171849  -0.000000
     2  C   -0.171849  -0.000000
     3  H    0.171849   0.000000
     4  H    0.171849   0.000000
 Sum of Mulliken charges =  -0.00000  -0.00000

 Dipole moment (field-independent basis, Debye):
    X=              0.0000    Y=              0.0000    Z=              0.0000  Tot=              0.0000
 Quadrupole moment (field-independent basis, Debye-Ang):
   XX=             -6.9255   YY=            -13.7344   ZZ=            -13.7344
   XY=              0.0000   XZ=              0.0000   YZ=             -0.0000

 Normal termination of Gaussian 16 at Tue Dec  3 20:02:56 2024.
