 Gaussian 16, Revision A.03,
 Gaussian 16:  ES64L-G16RevA.03 25-Dec-2016

 --------------------------------------------
 #p opt UM062X/6-311+G** nosymm int=superfine
 --------------------------------------------

 -------------------
 Title Card Required
 -------------------
 Symbolic Z-matrix:
 Charge =  1 Multiplicity = 2

 SCF Done:  E(UM062X) =  -582.151082568     A.U. after   11 cycles
 SCF Done:  E(UM062X) =  -582.151592329     A.U. after    9 cycles
 SCF Done:  E(UM062X) =  -582.151663515     A.U. after    8 cycles
 Optimization completed.
    -- Stationary point found.

                          Input orientation:
 ---------------------------------------------------------------------
 Center     Atomic      Atomic             Coordinates (Angstroms)
 Number     Number       Type             X           Y           Z
 ---------------------------------------------------------------------
      1         14           0       -1.951292    0.000000    0.000000
      2         14           0        1.951292    0.000000    0.000000
      3          1           0        2.090971   -1.458185   -0.000001
      4          1           0       -2.090545   -0.728985    1.262929
      5          1           0        2.091048    0.729131   -1.262787
      6          1           0        2.090363    0.729075    1.262897
      7          1           0       -2.090996    1.458182   -0.000113
      8          1           0       -2.090841   -0.729227   -1.262756
 ---------------------------------------------------------------------

 Alpha  occ. eigenvalues --  -67.23204 -67.23204  -5.78029  -5.78027  -4.09707
 Alpha  occ. eigenvalues --   -4.09706  -4.08901  -4.08901  -4.08901  -4.08901
 Alpha  occ. eigenvalues --   -0.82054  -0.81128  -0.62176  -0.62175  -0.61867
 Alpha  occ. eigenvalues --   -0.61867  -0.43824
 Alpha virt. eigenvalues --   -0.28346  -0.13295  -0.12023  -0.10515  -0.10514
 Alpha virt. eigenvalues --   -0.09907  -0.09241  -0.09240  -0.07895  -0.07895
 Alpha virt. eigenvalues --   -0.07836  -0.06342  -0.06341  -0.04340   0.00822

  Beta  occ. eigenvalues --  -67.22944 -67.22944  -5.77953  -5.77951  -4.09093
  Beta  occ. eigenvalues --   -4.09093  -4.08812  -4.08812  -4.08812  -4.08812
  Beta  occ. eigenvalues --   -0.80139  -0.79606  -0.61990  -0.61989  -0.61691
  Beta  occ. eigenvalues --   -0.61691
  Beta virt. eigenvalues --   -0.30279  -0.22279  -0.14371  -0.12506  -0.12504
  Beta virt. eigenvalues --   -0.11025  -0.10360  -0.09660  -0.09659  -0.07433
  Beta virt. eigenvalues --   -0.07433  -0.06934  -0.06047  -0.06047  -0.04758

 Mulliken charges and spin densities:
               1          2
     1  Si   0.496869   0.549554
     2  Si   0.496869   0.549554
     3  H    0.001045  -0.016526
     4  H    0.001039  -0.016514
     5  H    0.001051  -0.016516
     6  H    0.001035  -0.016512
     7  H    0.001046  -0.016526
     8  H    0.001046  -0.016514
 Sum of Mulliken charges =   1.00000   1.00000

 Dipole moment (field-independent basis, Debye):
    X=              0.0000    Y=             -0.0000    Z=              0.0000  Tot=              0.0000
 Quadrupole moment (field-independent basis, Debye-Ang):
   XX=             -2.2668   YY=            -26.1063   ZZ=            -26.1063
   XY=              0.0002   XZ=              0.0001   YZ=              0.0000

 Normal termination of Gaussian 16 at Mon Apr 21 20:15:59 2025.
