 Gaussian 16, Revision A.03,
 Gaussian 16:  ES64L-G16RevA.03 25-Dec-2016

 --------------------------------------------
 #p opt UM062X/6-311+G** nosymm int=superfine
 --------------------------------------------

 -------------------
 Title Card Required
 -------------------
 Symbolic Z-matrix:
 Charge =  0 Multiplicity = 1

 SCF Done:  E(UM062X) =  -94.2632259746     A.U. after   15 cycles
 SCF Done:  E(UM062X) =  -94.2673466343     A.U. after   16 cycles
 SCF Done:  E(UM062X) =  -94.2708811893     A.U. after   16 cycles
 SCF Done:  E(UM062X) =  -94.2715170824     A.U. after   15 cycles
 SCF Done:  E(UM062X) =  -94.2719825102     A.U. after   23 cycles
 SCF Done:  E(UM062X) =  -94.2719075227     A.U. after   16 cycles
 SCF Done:  E(UM062X) =  -94.2720054931     A.U. after   14 cycles
 SCF Done:  E(UM062X) =  -94.2720098773     A.U. after   20 cycles
 SCF Done:  E(UM062X) =  -94.2720117363     A.U. after   13 cycles
 SCF Done:  E(UM062X) =  -94.2720186335     A.U. after   21 cycles
 SCF Done:  E(UM062X) =  -94.2720242862     A.U. after   14 cycles
 SCF Done:  E(UM062X) =  -94.2720243787     A.U. after   15 cycles
 SCF Done:  E(UM062X) =  -94.2720243911     A.U. after   18 cycles
 SCF Done:  E(UM062X) =  -94.2720243950     A.U. after    9 cycles
 Optimization completed.
    -- Stationary point found.

                          Input orientation:
 ---------------------------------------------------------------------
 Center     Atomic      Atomic             Coordinates (Angstroms)
 Number     Number       Type             X           Y           Z
 ---------------------------------------------------------------------
      1          6           0       -1.456637    0.000000    0.000000
      2          7           0        1.456637    0.000000    0.000000
      3          1           0       -2.287404   -0.726362   -0.000890
      4          1           0        1.236486   -1.011537   -0.000180
      5          1           0       -1.929394    0.995425    0.000835
 ---------------------------------------------------------------------

 Alpha  occ. eigenvalues --  -14.79677 -10.64440  -0.86065  -0.78293  -0.51080
 Alpha  occ. eigenvalues --   -0.42917  -0.34366  -0.30321
 Alpha virt. eigenvalues --   -0.10643  -0.08602   0.01390   0.05386   0.06849
 Alpha virt. eigenvalues --    0.07682   0.12638   0.14396   0.16708   0.17575
 Alpha virt. eigenvalues --    0.18873   0.19999   0.26172   0.42823   0.46097

  Beta  occ. eigenvalues --  -14.79677 -10.64440  -0.86065  -0.78293  -0.51080
  Beta  occ. eigenvalues --   -0.42917  -0.34366  -0.30321
  Beta virt. eigenvalues --   -0.10643  -0.08602   0.01390   0.05386   0.06849
  Beta virt. eigenvalues --    0.07682   0.12638   0.14396   0.16708   0.17575
  Beta virt. eigenvalues --    0.18873   0.19999   0.26172   0.42823   0.46097

 Mulliken charges and spin densities:
               1          2
     1  C   -0.293374  -0.000000
     2  N   -0.223452   0.000000
     3  H    0.159896  -0.000000
     4  H    0.196641  -0.000000
     5  H    0.160289   0.000000
 Sum of Mulliken charges =   0.00000  -0.00000

 Dipole moment (field-independent basis, Debye):
    X=             -3.4488    Y=             -1.2005    Z=             -0.0004  Tot=              3.6518
 Quadrupole moment (field-independent basis, Debye-Ang):
   XX=             -9.2657   YY=            -12.6960   ZZ=            -15.0174
   XY=             -2.8070   XZ=             -0.0007   YZ=              0.0002

 Normal termination of Gaussian 16 at Mon Apr 21 18:22:37 2025.
