 Gaussian 16, Revision A.03,
 Gaussian 16:  ES64L-G16RevA.03 25-Dec-2016

 ---------------------------------------
 #p UM062X/6-311+G** force int=superfine
 ---------------------------------------

 -------------------
 Title Card Required
 -------------------
 Symbolic Z-matrix:
 Charge =  0 Multiplicity = 1

                         Standard orientation:
 ---------------------------------------------------------------------
 Center     Atomic      Atomic             Coordinates (Angstroms)
 Number     Number       Type             X           Y           Z
 ---------------------------------------------------------------------
      1          6           0       -0.786493    0.000000    0.000000
      2          6           0        0.786493   -0.000000   -0.000000
      3          1           0        1.171438   -0.883423    0.511187
      4          1           0       -1.171433   -0.884421   -0.509461
      5          1           0        1.171433    0.884421    0.509461
      6          1           0        1.171408   -0.000994   -1.020671
      7          1           0       -1.171438    0.883423   -0.511187
      8          1           0       -1.171408    0.000994    1.020671
 ---------------------------------------------------------------------

 SCF Done:  E(UM062X) =  -79.7961026472     A.U. after    8 cycles

 The electronic state is 1-AG.
 Alpha  occ. eigenvalues --  -10.52445 -10.52414  -0.84023  -0.70284  -0.49940
 Alpha  occ. eigenvalues --   -0.49940  -0.41695  -0.40768  -0.40768
 Alpha virt. eigenvalues --    0.02193   0.04051   0.05519   0.05519   0.08749
 Alpha virt. eigenvalues --    0.08749   0.08969   0.13870   0.18663   0.18664
 Alpha virt. eigenvalues --    0.21227   0.21227   0.24151   0.26219   0.28311

  Beta  occ. eigenvalues --  -10.52445 -10.52414  -0.84023  -0.70284  -0.49940
  Beta  occ. eigenvalues --   -0.49940  -0.41695  -0.40768  -0.40768
  Beta virt. eigenvalues --    0.02193   0.04051   0.05519   0.05519   0.08749
  Beta virt. eigenvalues --    0.08749   0.08969   0.13870   0.18663   0.18664
  Beta virt. eigenvalues --    0.21227   0.21227   0.24151   0.26219   0.28311

 Mulliken charges and spin densities:
               1          2
     1  C   -0.473710  -0.000000
     2  C   -0.473710  -0.000000
     3  H    0.157903   0.000000
     4  H    0.157903   0.000000
     5  H    0.157903   0.000000
     6  H    0.157904  -0.000000
     7  H    0.157903   0.000000
     8  H    0.157904  -0.000000
 Sum of Mulliken charges =  -0.00000   0.00000

 Dipole moment (field-independent basis, Debye):
    X=             -0.0000    Y=              0.0000    Z=              0.0000  Tot=              0.0000
 Quadrupole moment (field-independent basis, Debye-Ang):
   XX=            -15.6289   YY=            -14.9639   ZZ=            -14.9640
   XY=             -0.0000   XZ=              0.0001   YZ=             -0.0000

 Normal termination of Gaussian 16 at Tue Nov 19 12:44:18 2024.
