 Gaussian 16, Revision A.03,
 Gaussian 16:  ES64L-G16RevA.03 25-Dec-2016

 --------------------------------------------
 #p opt UM062X/6-311+G** nosymm int=superfine
 --------------------------------------------

 -------------------
 Title Card Required
 -------------------
 Symbolic Z-matrix:
 Charge =  0 Multiplicity = 1

 SCF Done:  E(UM062X) =  -78.2024723562     A.U. after    9 cycles
 SCF Done:  E(UM062X) =  -78.2192478194     A.U. after    9 cycles
 SCF Done:  E(UM062X) =  -78.2342671472     A.U. after    8 cycles
 SCF Done:  E(UM062X) =  -78.2345890560     A.U. after    8 cycles
 SCF Done:  E(UM062X) =  -78.2345903498     A.U. after    7 cycles
 Optimization completed.
    -- Stationary point found.

                          Input orientation:
 ---------------------------------------------------------------------
 Center     Atomic      Atomic             Coordinates (Angstroms)
 Number     Number       Type             X           Y           Z
 ---------------------------------------------------------------------
      1          6           0       -2.235595    0.000000    0.000000
      2          6           0        2.235595    0.000000    0.000000
      3          1           0       -2.939645   -0.859190   -0.000000
      4          1           0       -2.939615    0.859216    0.000000
      5          1           0        2.939645    0.859190    0.000000
      6          1           0        2.939615   -0.859216    0.000000
 ---------------------------------------------------------------------

 Alpha  occ. eigenvalues --  -10.59731 -10.59731  -0.74700  -0.74686  -0.46456
 Alpha  occ. eigenvalues --   -0.46440  -0.30641  -0.29792
 Alpha virt. eigenvalues --   -0.07352  -0.07100   0.02512   0.02970   0.06460
 Alpha virt. eigenvalues --    0.08509   0.08563   0.10309   0.11672   0.15526
 Alpha virt. eigenvalues --    0.17484   0.19950   0.20529   0.20836   0.45107

  Beta  occ. eigenvalues --  -10.59731 -10.59731  -0.74700  -0.74686  -0.46456
  Beta  occ. eigenvalues --   -0.46440  -0.30641  -0.29792
  Beta virt. eigenvalues --   -0.07352  -0.07100   0.02512   0.02970   0.06460
  Beta virt. eigenvalues --    0.08509   0.08563   0.10309   0.11672   0.15526
  Beta virt. eigenvalues --    0.17484   0.19950   0.20529   0.20836   0.45107

 Mulliken charges and spin densities:
               1          2
     1  C   -0.240996   0.000000
     2  C   -0.240996   0.000000
     3  H    0.120498  -0.000000
     4  H    0.120498  -0.000000
     5  H    0.120498  -0.000000
     6  H    0.120498  -0.000000
 Sum of Mulliken charges =  -0.00000  -0.00000

 Dipole moment (field-independent basis, Debye):
    X=              0.0000    Y=             -0.0000    Z=              0.0000  Tot=              0.0000
 Quadrupole moment (field-independent basis, Debye-Ang):
   XX=             -0.8203   YY=            -14.5903   ZZ=            -12.8992
   XY=             -0.0001   XZ=              0.0000   YZ=              0.0000

 Normal termination of Gaussian 16 at Tue Dec  3 11:22:37 2024.
