 Gaussian 16, Revision A.03,
 Gaussian 16:  ES64L-G16RevA.03 25-Dec-2016

 --------------------------------------------
 #p opt UM062X/6-311+G** nosymm int=superfine
 --------------------------------------------

 -------------------
 Title Card Required
 -------------------
 Symbolic Z-matrix:
 Charge =  1 Multiplicity = 2

 SCF Done:  E(UM062X) =  -579.684715449     A.U. after   15 cycles
 SCF Done:  E(UM062X) =  -579.687582863     A.U. after   14 cycles
 SCF Done:  E(UM062X) =  -579.692286253     A.U. after   15 cycles
 SCF Done:  E(UM062X) =  -579.692716749     A.U. after   13 cycles
 SCF Done:  E(UM062X) =  -579.692828072     A.U. after   13 cycles
 SCF Done:  E(UM062X) =  -579.692848799     A.U. after   12 cycles
 SCF Done:  E(UM062X) =  -579.692891373     A.U. after   13 cycles
 SCF Done:  E(UM062X) =  -579.692911702     A.U. after   11 cycles
 SCF Done:  E(UM062X) =  -579.692913272     A.U. after   11 cycles
 Optimization completed.
    -- Stationary point found.

                          Input orientation:
 ---------------------------------------------------------------------
 Center     Atomic      Atomic             Coordinates (Angstroms)
 Number     Number       Type             X           Y           Z
 ---------------------------------------------------------------------
      1         14           0       -1.877975    0.000000    0.000000
      2         14           0        1.877975    0.000000    0.000000
      3          1           0       -2.005141   -1.501539   -0.000000
      4          1           0        2.004822    1.501558   -0.000000
 ---------------------------------------------------------------------

 Alpha  occ. eigenvalues --  -67.26963 -67.26963  -5.81131  -5.81129  -4.12233
 Alpha  occ. eigenvalues --   -4.12232  -4.12155  -4.12155  -4.11499  -4.11499
 Alpha  occ. eigenvalues --   -0.76553  -0.75297  -0.52970  -0.52677  -0.42682
 Alpha virt. eigenvalues --   -0.28604  -0.27669  -0.26834  -0.11366  -0.09960
 Alpha virt. eigenvalues --   -0.08822  -0.08551  -0.08004  -0.07050  -0.05675
 Alpha virt. eigenvalues --   -0.05674  -0.05344  -0.02871   0.12804   0.14374

  Beta  occ. eigenvalues --  -67.26705 -67.26705  -5.81052  -5.81050  -4.12091
  Beta  occ. eigenvalues --   -4.12091  -4.11561  -4.11561  -4.11370  -4.11369
  Beta  occ. eigenvalues --   -0.74572  -0.73628  -0.52414  -0.51694
  Beta virt. eigenvalues --   -0.28621  -0.28220  -0.26336  -0.22579  -0.13193
  Beta virt. eigenvalues --   -0.10371  -0.08943  -0.08817  -0.08311  -0.06808
  Beta virt. eigenvalues --   -0.05608  -0.05407  -0.05342  -0.02750   0.11704

 Mulliken charges and spin densities:
               1          2
     1  Si   0.577080   0.510910
     2  Si   0.577107   0.510878
     3  H   -0.077089  -0.010894
     4  H   -0.077097  -0.010894
 Sum of Mulliken charges =   1.00000   1.00000

 Dipole moment (field-independent basis, Debye):
    X=              0.0000    Y=              0.0000    Z=             -0.0000  Tot=              0.0000
 Quadrupole moment (field-independent basis, Debye-Ang):
   XX=             -2.4679   YY=            -27.4997   ZZ=            -19.8058
   XY=              1.9946   XZ=             -0.0000   YZ=              0.0000

 Normal termination of Gaussian 16 at Mon Apr 21 20:41:01 2025.
