 Gaussian 16, Revision A.03,
 Gaussian 16:  ES64L-G16RevA.03 25-Dec-2016

 ---------------------------------------
 #p UM062X/6-311+G** force int=superfine
 ---------------------------------------

 -------------------
 Title Card Required
 -------------------
 Symbolic Z-matrix:
 Charge =  0 Multiplicity = 1

                         Standard orientation:
 ---------------------------------------------------------------------
 Center     Atomic      Atomic             Coordinates (Angstroms)
 Number     Number       Type             X           Y           Z
 ---------------------------------------------------------------------
      1          6           0        0.633776    0.000007   -0.000004
      2          6           0       -0.633777   -0.000008    0.000002
      3          1           0       -1.090905   -0.965101    0.260746
      4          1           0        1.090898   -0.256729    0.966180
      5          1           0       -1.090900    0.256732   -0.966178
      6          1           0       -1.090931    0.708380    0.705403
      7          1           0        1.090905    0.965102   -0.260742
      8          1           0        1.090934   -0.708380   -0.705400
 ---------------------------------------------------------------------

 SCF Done:  E(UM062X) =  -79.7434098870     A.U. after    8 cycles

 The electronic state is 1-A.
 Alpha  occ. eigenvalues --  -10.50508 -10.50349  -0.91036  -0.68521  -0.52881
 Alpha  occ. eigenvalues --   -0.52880  -0.48676  -0.36967  -0.36966
 Alpha virt. eigenvalues --    0.02111   0.04197   0.05081   0.05081   0.08708
 Alpha virt. eigenvalues --    0.08916   0.08916   0.14192   0.19464   0.19464
 Alpha virt. eigenvalues --    0.19811   0.19812   0.24072   0.27942   0.36690

  Beta  occ. eigenvalues --  -10.50508 -10.50349  -0.91036  -0.68521  -0.52881
  Beta  occ. eigenvalues --   -0.52880  -0.48676  -0.36967  -0.36966
  Beta virt. eigenvalues --    0.02111   0.04197   0.05081   0.05081   0.08708
  Beta virt. eigenvalues --    0.08916   0.08916   0.14192   0.19464   0.19464
  Beta virt. eigenvalues --    0.19811   0.19812   0.24072   0.27942   0.36690

 Mulliken charges and spin densities:
               1          2
     1  C   -0.442060  -0.000000
     2  C   -0.442060   0.000000
     3  H    0.147355  -0.000000
     4  H    0.147352   0.000000
     5  H    0.147352  -0.000000
     6  H    0.147353  -0.000000
     7  H    0.147355   0.000000
     8  H    0.147353   0.000000
 Sum of Mulliken charges =  -0.00000   0.00000

 Dipole moment (field-independent basis, Debye):
    X=              0.0000    Y=              0.0000    Z=              0.0000  Tot=              0.0000
 Quadrupole moment (field-independent basis, Debye-Ang):
   XX=            -15.6243   YY=            -14.9602   ZZ=            -14.9604
   XY=             -0.0000   XZ=             -0.0000   YZ=             -0.0000

 Normal termination of Gaussian 16 at Tue Nov 19 12:39:41 2024.
