 Gaussian 16, Revision A.03,
 Gaussian 16:  ES64L-G16RevA.03 25-Dec-2016

 --------------------------------------------
 #p opt UM062X/6-311+G** nosymm int=superfine
 --------------------------------------------

 -------------------
 Title Card Required
 -------------------
 Symbolic Z-matrix:
 Charge =  1 Multiplicity = 2

 SCF Done:  E(UM062X) =  -80.2188266947     A.U. after   19 cycles
 SCF Done:  E(UM062X) =  -80.2186522835     A.U. after   17 cycles
 SCF Done:  E(UM062X) =  -80.2193668990     A.U. after   15 cycles
 SCF Done:  E(UM062X) =  -80.2194046926     A.U. after   15 cycles
 SCF Done:  E(UM062X) =  -80.2194080866     A.U. after   14 cycles
 SCF Done:  E(UM062X) =  -80.2194082844     A.U. after   13 cycles
 SCF Done:  E(UM062X) =  -80.2194082988     A.U. after   11 cycles
 Optimization completed.
    -- Stationary point found.

                          Input orientation:
 ---------------------------------------------------------------------
 Center     Atomic      Atomic             Coordinates (Angstroms)
 Number     Number       Type             X           Y           Z
 ---------------------------------------------------------------------
      1          5           0       -1.077734    0.000000    0.000000
      2          7           0        1.077734    0.000000    0.000000
      3          1           0       -2.233919    0.017963   -0.284879
      4          1           0        1.235095   -0.065101    1.029939
 ---------------------------------------------------------------------

 Alpha  occ. eigenvalues --  -15.10357  -7.51096  -1.19595  -0.85548  -0.73914
 Alpha  occ. eigenvalues --   -0.66374  -0.66295
 Alpha virt. eigenvalues --   -0.33327  -0.31591  -0.30211  -0.14955  -0.12046
 Alpha virt. eigenvalues --   -0.09837  -0.09361  -0.05734  -0.01852  -0.01295
 Alpha virt. eigenvalues --    0.00184   0.02597   0.06735   0.15975   0.17096

  Beta  occ. eigenvalues --  -15.08772  -7.51586  -1.10891  -0.86801  -0.71150
  Beta  occ. eigenvalues --   -0.62928
  Beta virt. eigenvalues --   -0.35667  -0.33996  -0.28268  -0.27595  -0.14949
  Beta virt. eigenvalues --   -0.12075  -0.09723  -0.09697  -0.06188  -0.01980
  Beta virt. eigenvalues --   -0.01160   0.00546   0.02356   0.03529   0.16160

 Mulliken charges and spin densities:
               1          2
     1  B    0.513892  -0.337835
     2  N    0.028707   1.444965
     3  H    0.193583  -0.055206
     4  H    0.263818  -0.051924
 Sum of Mulliken charges =   1.00000   1.00000

 Dipole moment (field-independent basis, Debye):
    X=             -3.8251    Y=             -0.0961    Z=              1.5206  Tot=              4.1174
 Quadrupole moment (field-independent basis, Debye-Ang):
   XX=             -1.1725   YY=            -10.1439   ZZ=             -9.0588
   XY=             -0.1757   XZ=              2.7801   YZ=             -0.0689

 Normal termination of Gaussian 16 at Mon Apr 21 21:02:21 2025.
