 Gaussian 16, Revision A.03,
 Gaussian 16:  ES64L-G16RevA.03 25-Dec-2016

 --------------------------------------------
 #p opt UM062X/6-311+G** nosymm int=superfine
 --------------------------------------------

 -------------------
 Title Card Required
 -------------------
 Symbolic Z-matrix:
 Charge = -1 Multiplicity = 2

 SCF Done:  E(UM062X) =  -50.5607155758     A.U. after   18 cycles
 SCF Done:  E(UM062X) =  -50.5643928452     A.U. after   15 cycles
 SCF Done:  E(UM062X) =  -50.5646056020     A.U. after   15 cycles
 Optimization completed.
    -- Stationary point found.

                          Input orientation:
 ---------------------------------------------------------------------
 Center     Atomic      Atomic             Coordinates (Angstroms)
 Number     Number       Type             X           Y           Z
 ---------------------------------------------------------------------
      1          5           0       -2.166404    0.000000    0.000000
      2          5           0        2.166404    0.000000    0.000000
      3          1           0       -3.426808   -0.000956    0.000000
      4          1           0        3.426808    0.000956   -0.000000
 ---------------------------------------------------------------------

 Alpha  occ. eigenvalues --   -6.91698  -6.91698  -0.35358  -0.35260  -0.09751
 Alpha  occ. eigenvalues --   -0.07827   0.02644
 Alpha virt. eigenvalues --    0.09478   0.12172   0.13074   0.15316   0.15992
 Alpha virt. eigenvalues --    0.21238   0.21536   0.21679   0.22406   0.22955
 Alpha virt. eigenvalues --    0.25275   0.31816   0.36676   0.49847   0.55517

  Beta  occ. eigenvalues --   -6.91605  -6.91605  -0.34277  -0.34241  -0.08654
  Beta  occ. eigenvalues --   -0.06786
  Beta virt. eigenvalues --    0.10587   0.11345   0.11959   0.12310   0.13375
  Beta virt. eigenvalues --    0.13574   0.19183   0.20027   0.20243   0.21100
  Beta virt. eigenvalues --    0.21481   0.21640   0.31626   0.36739   0.49450

 Mulliken charges and spin densities:
               1          2
     1  B   -0.410877   0.512947
     2  B   -0.410877   0.512947
     3  H   -0.089123  -0.012947
     4  H   -0.089123  -0.012947
 Sum of Mulliken charges =  -1.00000   1.00000

 Dipole moment (field-independent basis, Debye):
    X=              0.0000    Y=              0.0000    Z=             -0.0000  Tot=              0.0000
 Quadrupole moment (field-independent basis, Debye-Ang):
   XX=            -40.9353   YY=            -18.9805   ZZ=            -26.1916
   XY=             -0.0009   XZ=              0.0000   YZ=             -0.0000

 Normal termination of Gaussian 16 at Mon Apr 21 17:29:46 2025.
