 Gaussian 16, Revision A.03,
 Gaussian 16:  ES64L-G16RevA.03 25-Dec-2016

 ---------------------------------------------------
 #p UM062X/6-311+G** force int=superfine pop=saveNBO
 ---------------------------------------------------

 -------------------
 Title Card Required
 -------------------
 Symbolic Z-matrix:
 Charge =  0 Multiplicity = 1

                         Standard orientation:
 ---------------------------------------------------------------------
 Center     Atomic      Atomic             Coordinates (Angstroms)
 Number     Number       Type             X           Y           Z
 ---------------------------------------------------------------------
      1          8           0        0.000000    0.000000   -2.193424
      2         16           0        0.000000    0.000000    1.096712
 ---------------------------------------------------------------------

 SCF Done:  E(UM062X) =  -473.007235666     A.U. after   22 cycles

 Unable to determine electronic state:  an orbital has unidentified symmetry.
 Alpha  occ. eigenvalues --  -89.96491 -19.79340  -8.32516  -6.25302  -6.23731
 Alpha  occ. eigenvalues --   -6.23703  -1.08925  -0.76483  -0.47871  -0.47689
 Alpha  occ. eigenvalues --   -0.33690  -0.33672
 Alpha virt. eigenvalues --   -0.21873  -0.18661   0.03969   0.05346   0.05813
 Alpha virt. eigenvalues --    0.05919   0.15031   0.16597   0.17384   0.22452
 Alpha virt. eigenvalues --    0.34998   0.35074   0.35153   0.59336   0.78272

  Beta  occ. eigenvalues --  -89.96491 -19.79340  -8.32516  -6.25302  -6.23731
  Beta  occ. eigenvalues --   -6.23703  -1.08925  -0.76483  -0.47871  -0.47689
  Beta  occ. eigenvalues --   -0.33690  -0.33672
  Beta virt. eigenvalues --   -0.21873  -0.18661   0.03969   0.05346   0.05813
  Beta virt. eigenvalues --    0.05919   0.15031   0.16597   0.17384   0.22452
  Beta virt. eigenvalues --    0.34998   0.35074   0.35153   0.59336   0.78272

 Mulliken charges and spin densities:
               1          2
     1  O   -0.008362   0.000000
     2  S    0.008362  -0.000000
 Sum of Mulliken charges =  -0.00000  -0.00000

 Dipole moment (field-independent basis, Debye):
    X=              0.0000    Y=              0.0000    Z=              0.1286  Tot=              0.1286
 Quadrupole moment (field-independent basis, Debye-Ang):
   XX=            -21.1576   YY=            -18.9484   ZZ=            -15.6262
   XY=              0.0000   XZ=              0.0000   YZ=              0.0000

 Summary of Natural Population Analysis:

                                       Natural Population
                Natural  -----------------------------------------------
    Atom  No    Charge         Core      Valence    Rydberg      Total
 -----------------------------------------------------------------------
      O    1   -0.00366      1.00000     3.00338    0.00028     4.00366
      S    2    0.00366      4.99999     2.99592    0.00043     7.99634
 =======================================================================
   * Total *   -0.00000      5.99999     5.99930    0.00071    12.00000

 Normal termination of Gaussian 16 at Mon Apr 21 20:00:17 2025.
