 Gaussian 16, Revision A.03,
 Gaussian 16:  ES64L-G16RevA.03 25-Dec-2016

 --------------------------------------------
 #p opt UM062X/6-311+G** nosymm int=superfine
 --------------------------------------------

 -------------------
 Title Card Required
 -------------------
 Symbolic Z-matrix:
 Charge =  0 Multiplicity = 1

 SCF Done:  E(UM062X) =  -76.8540309513     A.U. after   10 cycles
 SCF Done:  E(UM062X) =  -76.8975401726     A.U. after    9 cycles
 SCF Done:  E(UM062X) =  -76.9687294323     A.U. after   10 cycles
 SCF Done:  E(UM062X) =  -77.0193955932     A.U. after    9 cycles
 SCF Done:  E(UM062X) =  -77.0194114170     A.U. after    7 cycles
 Optimization completed.
    -- Stationary point found.

                          Input orientation:
 ---------------------------------------------------------------------
 Center     Atomic      Atomic             Coordinates (Angstroms)
 Number     Number       Type             X           Y           Z
 ---------------------------------------------------------------------
      1          6           0       -0.909744    0.000000    0.000000
      2          6           0        0.909744    0.000000    0.000000
      3          1           0       -1.989781    0.000001    0.000000
      4          1           0        1.989731   -0.000001   -0.000000
 ---------------------------------------------------------------------

 Alpha  occ. eigenvalues --  -10.67390 -10.67366  -0.76842  -0.70452  -0.51546
 Alpha  occ. eigenvalues --   -0.29394  -0.29394
 Alpha virt. eigenvalues --   -0.06414  -0.06414  -0.03167   0.02271   0.04091
 Alpha virt. eigenvalues --    0.08556   0.08556   0.09684   0.10822   0.10822
 Alpha virt. eigenvalues --    0.17325   0.22080   0.25889   0.46907   0.57967

  Beta  occ. eigenvalues --  -10.67390 -10.67366  -0.76842  -0.70452  -0.51546
  Beta  occ. eigenvalues --   -0.29394  -0.29394
  Beta virt. eigenvalues --   -0.06414  -0.06414  -0.03167   0.02271   0.04091
  Beta virt. eigenvalues --    0.08556   0.08556   0.09684   0.10822   0.10822
  Beta virt. eigenvalues --    0.17325   0.22080   0.25889   0.46907   0.57967

 Mulliken charges and spin densities:
               1          2
     1  C   -0.257038   0.000000
     2  C   -0.257038  -0.000000
     3  H    0.257045  -0.000000
     4  H    0.257031   0.000000
 Sum of Mulliken charges =  -0.00000   0.00000

 Dipole moment (field-independent basis, Debye):
    X=             -0.0001    Y=              0.0000    Z=             -0.0000  Tot=              0.0001
 Quadrupole moment (field-independent basis, Debye-Ang):
   XX=             -4.4734   YY=            -16.1188   ZZ=            -16.1188
   XY=             -0.0000   XZ=             -0.0000   YZ=              0.0000

 Normal termination of Gaussian 16 at Tue Dec  3 20:20:48 2024.
