 Gaussian 16, Revision A.03,
 Gaussian 16:  ES64L-G16RevA.03 25-Dec-2016

 ----------------------------------------------------------------------
 #p UM062X/6-311+G** force int=superfine SCF=(MaxCycle=200,NoVarAcc,noi
 ncfock) guess=read
 ----------------------------------------------------------------------

 -------------------
 Title Card Required
 -------------------
 Symbolic Z-matrix:
 Charge =  0 Multiplicity = 1

                         Standard orientation:
 ---------------------------------------------------------------------
 Center     Atomic      Atomic             Coordinates (Angstroms)
 Number     Number       Type             X           Y           Z
 ---------------------------------------------------------------------
      1          6           0        0.000000    0.000000   -2.493521
      2         16           0        0.000000    0.000000    0.935071
 ---------------------------------------------------------------------

 SCF Done:  E(UM062X) =  -435.835501198     A.U. after   11 cycles

 The electronic state is 1-SG.
 Alpha  occ. eigenvalues --  -89.92762 -10.76408  -8.28781  -6.21486  -6.20040
 Alpha  occ. eigenvalues --   -6.20040  -0.73283  -0.68306  -0.32427  -0.30617
 Alpha  occ. eigenvalues --   -0.30617
 Alpha virt. eigenvalues --   -0.15514  -0.14498  -0.14498   0.03235   0.05123
 Alpha virt. eigenvalues --    0.05881   0.05881   0.08681   0.08681   0.08885
 Alpha virt. eigenvalues --    0.13926   0.35877   0.36530   0.36530   0.52930

  Beta  occ. eigenvalues --  -89.92762 -10.76408  -8.28781  -6.21486  -6.20040
  Beta  occ. eigenvalues --   -6.20040  -0.73283  -0.68306  -0.32427  -0.30617
  Beta  occ. eigenvalues --   -0.30617
  Beta virt. eigenvalues --   -0.15514  -0.14498  -0.14498   0.03235   0.05123
  Beta virt. eigenvalues --    0.05881   0.05881   0.08681   0.08681   0.08885
  Beta virt. eigenvalues --    0.13926   0.35877   0.36530   0.36530   0.52930

 Mulliken charges and spin densities:
               1          2
     1  C    0.141320   0.000000
     2  S   -0.141320  -0.000000
 Sum of Mulliken charges =   0.00000  -0.00000

 Dipole moment (field-independent basis, Debye):
    X=              0.0000    Y=              0.0000    Z=             -2.3902  Tot=              2.3902
 Quadrupole moment (field-independent basis, Debye-Ang):
   XX=            -20.6750   YY=            -20.6750   ZZ=            -14.7807
   XY=              0.0000   XZ=              0.0000   YZ=              0.0000

 Normal termination of Gaussian 16 at Tue Apr 22 01:20:47 2025.
