 Gaussian 16, Revision A.03,
 Gaussian 16:  ES64L-G16RevA.03 25-Dec-2016

 --------------------------------------------
 #p opt UM062X/6-311+G** nosymm int=superfine
 --------------------------------------------

 -------------------
 Title Card Required
 -------------------
 Symbolic Z-matrix:
 Charge =  0 Multiplicity = 1

 SCF Done:  E(UM062X) =  -438.479865028     A.U. after   14 cycles
 SCF Done:  E(UM062X) =  -438.493548006     A.U. after   11 cycles
 SCF Done:  E(UM062X) =  -438.500644522     A.U. after   12 cycles
 SCF Done:  E(UM062X) =  -438.500719986     A.U. after   10 cycles
 SCF Done:  E(UM062X) =  -438.500740263     A.U. after   11 cycles
 SCF Done:  E(UM062X) =  -438.500778478     A.U. after   10 cycles
 SCF Done:  E(UM062X) =  -438.500783034     A.U. after   10 cycles
 SCF Done:  E(UM062X) =  -438.500783678     A.U. after    9 cycles
 SCF Done:  E(UM062X) =  -438.500783886     A.U. after   10 cycles
 SCF Done:  E(UM062X) =  -438.500784264     A.U. after   11 cycles
 SCF Done:  E(UM062X) =  -438.500784859     A.U. after   12 cycles
 SCF Done:  E(UM062X) =  -438.500785262     A.U. after   13 cycles
 SCF Done:  E(UM062X) =  -438.500723622     A.U. after   13 cycles
 SCF Done:  E(UM062X) =  -438.500784572     A.U. after   11 cycles
 SCF Done:  E(UM062X) =  -438.500785531     A.U. after   13 cycles
 SCF Done:  E(UM062X) =  -438.500779279     A.U. after   14 cycles
 SCF Done:  E(UM062X) =  -438.500785226     A.U. after   14 cycles
 SCF Done:  E(UM062X) =  -438.500785787     A.U. after   18 cycles
 SCF Done:  E(UM062X) =  -438.500785832     A.U. after   13 cycles
 SCF Done:  E(UM062X) =  -438.500785934     A.U. after   11 cycles
 Optimization completed.
    -- Stationary point found.

                          Input orientation:
 ---------------------------------------------------------------------
 Center     Atomic      Atomic             Coordinates (Angstroms)
 Number     Number       Type             X           Y           Z
 ---------------------------------------------------------------------
      1          6           0       -1.985220    0.000000    0.000000
      2         16           0        1.985220    0.000000    0.000000
      3          1           0        1.942099   -1.342312   -0.068317
      4          1           0       -1.970675    1.080927   -0.013596
      5          1           0       -2.024015   -0.550003   -0.929986
      6          1           0       -2.020898   -0.526635    0.943542
 ---------------------------------------------------------------------

 Alpha  occ. eigenvalues --  -89.87596 -10.65110  -8.23901  -6.15944  -6.15882
 Alpha  occ. eigenvalues --   -6.15331  -0.83448  -0.75443  -0.55504  -0.55427
 Alpha  occ. eigenvalues --   -0.41986  -0.27928  -0.26600
 Alpha virt. eigenvalues --   -0.16389   0.00976   0.03706   0.04090   0.05578
 Alpha virt. eigenvalues --    0.07513   0.08426   0.08447   0.10740   0.13468
 Alpha virt. eigenvalues --    0.15521   0.15699   0.20571   0.34485   0.35360

  Beta  occ. eigenvalues --  -89.87596 -10.65110  -8.23901  -6.15944  -6.15882
  Beta  occ. eigenvalues --   -6.15331  -0.83448  -0.75443  -0.55504  -0.55427
  Beta  occ. eigenvalues --   -0.41986  -0.27928  -0.26600
  Beta virt. eigenvalues --   -0.16389   0.00976   0.03706   0.04090   0.05578
  Beta virt. eigenvalues --    0.07513   0.08426   0.08447   0.10740   0.13468
  Beta virt. eigenvalues --    0.15521   0.15699   0.20571   0.34485   0.35360

 Mulliken charges and spin densities:
               1          2
     1  C   -0.379427  -0.000004
     2  S   -0.292320   0.000004
     3  H    0.050575  -0.000000
     4  H    0.208954   0.000000
     5  H    0.205839   0.000000
     6  H    0.206378   0.000000
 Sum of Mulliken charges =  -0.00000   0.00000

 Dipole moment (field-independent basis, Debye):
    X=             -5.1258    Y=             -0.9531    Z=             -0.0485  Tot=              5.2139
 Quadrupole moment (field-independent basis, Debye-Ang):
   XX=            -20.8692   YY=            -19.6337   ZZ=            -23.6648
   XY=             -1.9402   XZ=             -0.1000   YZ=              0.2056

 Normal termination of Gaussian 16 at Mon Apr 21 19:43:14 2025.
