 Gaussian 16, Revision A.03,
 Gaussian 16:  ES64L-G16RevA.03 25-Dec-2016

 --------------------------------------------
 #p opt UM062X/6-311+G** nosymm int=superfine
 --------------------------------------------

 -------------------
 Title Card Required
 -------------------
 Symbolic Z-matrix:
 Charge =  0 Multiplicity = 3

 SCF Done:  E(UM062X) =  -50.4917349473     A.U. after   13 cycles
 SCF Done:  E(UM062X) =  -50.4926400264     A.U. after   10 cycles
 SCF Done:  E(UM062X) =  -50.4926467133     A.U. after   10 cycles
 Optimization completed.
    -- Stationary point found.

                          Input orientation:
 ---------------------------------------------------------------------
 Center     Atomic      Atomic             Coordinates (Angstroms)
 Number     Number       Type             X           Y           Z
 ---------------------------------------------------------------------
      1          5           0       -1.753410    0.000000    0.000000
      2          5           0        1.753410    0.000000    0.000000
      3          1           0       -2.958639   -0.000082    0.000000
      4          1           0        2.958639    0.000082   -0.000000
 ---------------------------------------------------------------------

 Alpha  occ. eigenvalues --   -7.14228  -7.14227  -0.56814  -0.56497  -0.34131
 Alpha  occ. eigenvalues --   -0.29446  -0.18217
 Alpha virt. eigenvalues --   -0.09331  -0.06543  -0.05031   0.02654   0.02810
 Alpha virt. eigenvalues --    0.05904   0.07154   0.07169   0.08140   0.08224
 Alpha virt. eigenvalues --    0.11789   0.17808   0.22451   0.34206   0.39172

  Beta  occ. eigenvalues --   -7.13309  -7.13308  -0.53483  -0.53267  -0.24977
  Beta virt. eigenvalues --   -0.09693  -0.04690  -0.04189  -0.02694  -0.02213
  Beta virt. eigenvalues --    0.01777   0.02511   0.07001   0.07296   0.07523
  Beta virt. eigenvalues --    0.08195   0.09143   0.09604   0.18722   0.23770

 Mulliken charges and spin densities:
               1          2
     1  B   -0.066129   0.921750
     2  B   -0.066129   0.921750
     3  H    0.066129   0.078250
     4  H    0.066129   0.078250
 Sum of Mulliken charges =  -0.00000   2.00000

 Dipole moment (field-independent basis, Debye):
    X=             -0.0000    Y=              0.0000    Z=             -0.0000  Tot=              0.0000
 Quadrupole moment (field-independent basis, Debye-Ang):
   XX=             -8.8288   YY=            -13.6337   ZZ=            -17.6725
   XY=              0.0000   XZ=             -0.0000   YZ=             -0.0005

 1\1\GINC-NODE03\FOpt\UM062X\6-311+G(d,p)\B2H2(3)\SZHAO\21-Apr-2025\0\\
 #p opt UM062X/6-311+G** nosymm int=superfine\\Title Card Required\\0,3
 \B,-1.75341047,0.,0.\B,1.75341047,0.,0.\H,-2.9586392572,-0.0000822119,
 0.0000000105\H,2.9586392468,0.0000822131,-0.0000000105\\Version=ES64L-
 G16RevA.03\HF=-50.4926467\S2=2.017035\S2-1=0.\S2A=2.000015\RMSD=8.236e
 -09\RMSF=4.633e-07\Dipole=0.,0.,0.\Quadrupole=3.3824811,-0.1898405,-3.
 1926405,0.0000088,0.,-0.0003836\PG=C*V [C*(H1B1B1H1)]\\@

 Normal termination of Gaussian 16 at Mon Apr 21 17:24:28 2025.
