 Gaussian 16, Revision A.03,
 Gaussian 16:  ES64L-G16RevA.03 25-Dec-2016

 --------------------------------------------
 #p opt UM062X/6-311+G** nosymm int=superfine
 --------------------------------------------

 -------------------
 Title Card Required
 -------------------
 Symbolic Z-matrix:
 Charge =  1 Multiplicity = 2

 SCF Done:  E(UM062X) =  -77.1611812009     A.U. after   10 cycles
 SCF Done:  E(UM062X) =  -77.2342348890     A.U. after   10 cycles
 SCF Done:  E(UM062X) =  -77.3147934612     A.U. after   10 cycles
 SCF Done:  E(UM062X) =  -77.3336925105     A.U. after   10 cycles
 SCF Done:  E(UM062X) =  -77.3478034803     A.U. after    9 cycles
 SCF Done:  E(UM062X) =  -77.3541841714     A.U. after    9 cycles
 SCF Done:  E(UM062X) =  -77.3543271148     A.U. after    8 cycles
 Optimization completed.
    -- Stationary point found.

                          Input orientation:
 ---------------------------------------------------------------------
 Center     Atomic      Atomic             Coordinates (Angstroms)
 Number     Number       Type             X           Y           Z
 ---------------------------------------------------------------------
      1          6           0       -0.409997    0.000000    0.000000
      2          6           0        0.409997    0.000000    0.000000
      3          1           0       -1.242986   -0.773624   -0.000000
      4          1           0       -1.239414    0.778812    0.000000
      5          1           0        1.242986    0.773624   -0.000000
      6          1           0        1.239414   -0.778812    0.000000
 ---------------------------------------------------------------------

 Alpha  occ. eigenvalues --  -10.83743 -10.77332  -1.24767  -0.96019  -0.90756
 Alpha  occ. eigenvalues --   -0.88660  -0.78855  -0.60546
 Alpha virt. eigenvalues --   -0.19549  -0.15537  -0.13858  -0.12670  -0.11451
 Alpha virt. eigenvalues --   -0.09126  -0.07695  -0.06325  -0.01848   0.00075
 Alpha virt. eigenvalues --    0.00118   0.03106   0.16340   0.17528   0.19818

  Beta  occ. eigenvalues --  -10.83821 -10.77378  -1.24052  -0.91319  -0.87120
  Beta  occ. eigenvalues --   -0.85812  -0.78733
  Beta virt. eigenvalues --   -0.40008  -0.17585  -0.15344  -0.13477  -0.12600
  Beta virt. eigenvalues --   -0.11154  -0.08984  -0.04668  -0.03303  -0.01499
  Beta virt. eigenvalues --    0.00801   0.01299   0.04029   0.15612   0.17231

 Mulliken charges and spin densities:
               1          2
     1  C   -0.138292   0.083575
     2  C   -0.138292   0.083575
     3  H    0.319047   0.207188
     4  H    0.319245   0.209237
     5  H    0.319047   0.207188
     6  H    0.319245   0.209237
 Sum of Mulliken charges =   1.00000   1.00000

 Dipole moment (field-independent basis, Debye):
    X=             -0.0000    Y=              0.0000    Z=              0.0000  Tot=              0.0000
 Quadrupole moment (field-independent basis, Debye-Ang):
   XX=             -2.6268   YY=             -7.6172   ZZ=            -11.5896
   XY=             -0.0133   XZ=             -0.0000   YZ=             -0.0000

 Normal termination of Gaussian 16 at Tue Nov 19 10:34:31 2024.
