 Gaussian 16, Revision A.03,
 Gaussian 16:  ES64L-G16RevA.03 25-Dec-2016

 --------------------------------------------
 #p opt UM062X/6-311+G** nosymm int=superfine
 --------------------------------------------

 -------------------
 Title Card Required
 -------------------
 Symbolic Z-matrix:
 Charge =  0 Multiplicity = 1

 SCF Done:  E(UM062X) =  -115.518752952     A.U. after   12 cycles
 SCF Done:  E(UM062X) =  -115.534141227     A.U. after   11 cycles
 SCF Done:  E(UM062X) =  -115.541228593     A.U. after   11 cycles
 SCF Done:  E(UM062X) =  -115.541317652     A.U. after    9 cycles
 SCF Done:  E(UM062X) =  -115.541362059     A.U. after   10 cycles
 SCF Done:  E(UM062X) =  -115.541366405     A.U. after    9 cycles
 SCF Done:  E(UM062X) =  -115.541367369     A.U. after   10 cycles
 SCF Done:  E(UM062X) =  -115.541367905     A.U. after    8 cycles
 SCF Done:  E(UM062X) =  -115.541368028     A.U. after    7 cycles
 Optimization completed.
    -- Stationary point found.

                          Input orientation:
 ---------------------------------------------------------------------
 Center     Atomic      Atomic             Coordinates (Angstroms)
 Number     Number       Type             X           Y           Z
 ---------------------------------------------------------------------
      1          6           0       -1.307203    0.000000    0.000000
      2          8           0        1.307203    0.000000    0.000000
      3          1           0        1.360793   -0.964024    0.000252
      4          1           0       -1.421987   -0.528451    0.935862
      5          1           0       -1.314983    1.080393   -0.000777
      6          1           0       -1.422044   -0.529799   -0.935093
 ---------------------------------------------------------------------

 Alpha  occ. eigenvalues --  -19.59945 -10.65424  -1.02214  -0.82952  -0.55012
 Alpha  occ. eigenvalues --   -0.54755  -0.46590  -0.33547  -0.32158
 Alpha virt. eigenvalues --   -0.11626   0.00829   0.04271   0.04743   0.06504
 Alpha virt. eigenvalues --    0.14331   0.16097   0.16339   0.20184   0.22888
 Alpha virt. eigenvalues --    0.23084   0.24515   0.32167   0.40140   0.40703

  Beta  occ. eigenvalues --  -19.59945 -10.65424  -1.02214  -0.82952  -0.55012
  Beta  occ. eigenvalues --   -0.54755  -0.46590  -0.33547  -0.32158
  Beta virt. eigenvalues --   -0.11626   0.00829   0.04271   0.04743   0.06504
  Beta virt. eigenvalues --    0.14331   0.16097   0.16339   0.20184   0.22888
  Beta virt. eigenvalues --    0.23084   0.24515   0.32167   0.40140   0.40703

 Mulliken charges and spin densities:
               1          2
     1  C   -0.292668   0.000003
     2  O   -0.551239  -0.000003
     3  H    0.217503   0.000000
     4  H    0.203079  -0.000000
     5  H    0.220261  -0.000000
     6  H    0.203064  -0.000000
 Sum of Mulliken charges =  -0.00000   0.00000

 Dipole moment (field-independent basis, Debye):
    X=             -4.4915    Y=             -1.5446    Z=              0.0004  Tot=              4.7497
 Quadrupole moment (field-independent basis, Debye-Ang):
   XX=            -13.2738   YY=            -11.4085   ZZ=            -13.8306
   XY=             -2.3394   XZ=              0.0006   YZ=             -0.0006

 Normal termination of Gaussian 16 at Mon Apr 21 18:38:25 2025.
