 Gaussian 16, Revision A.03,
 Gaussian 16:  ES64L-G16RevA.03 25-Dec-2016

 ---------------------------------------------------
 #p UM062X/6-311+G** force int=superfine pop=saveNBO
 ---------------------------------------------------

 -------------------
 Title Card Required
 -------------------
 Symbolic Z-matrix:
 Charge =  0 Multiplicity = 1

                         Standard orientation:
 ---------------------------------------------------------------------
 Center     Atomic      Atomic             Coordinates (Angstroms)
 Number     Number       Type             X           Y           Z
 ---------------------------------------------------------------------
      1          8           0        0.000000    0.000000    1.068562
      2          8           0        0.000000    0.000000   -1.068562
 ---------------------------------------------------------------------

 SCF Done:  E(UM062X) =  -149.946643742     A.U. after   10 cycles

 Unable to determine electronic state:  partially filled degenerate orbitals.
 Alpha  occ. eigenvalues --  -19.84031 -19.84023  -1.13529  -1.08191  -0.50417
 Alpha  occ. eigenvalues --   -0.48376  -0.47460  -0.43757
 Alpha virt. eigenvalues --   -0.27865  -0.22163   0.10316   0.12861   0.15142
 Alpha virt. eigenvalues --    0.15281   0.20484   0.20805   0.21545   0.32049
 Alpha virt. eigenvalues --    0.95861   0.96831   0.98156   1.04943   1.05923

  Beta  occ. eigenvalues --  -19.84031 -19.84023  -1.13529  -1.08191  -0.50417
  Beta  occ. eigenvalues --   -0.48376  -0.47460  -0.43757
  Beta virt. eigenvalues --   -0.27865  -0.22163   0.10316   0.12861   0.15142
  Beta virt. eigenvalues --    0.15281   0.20484   0.20805   0.21545   0.32049
  Beta virt. eigenvalues --    0.95861   0.96831   0.98156   1.04943   1.05923

 Mulliken charges and spin densities:
               1          2
     1  O   -0.000000  -0.000000
     2  O   -0.000000  -0.000000
 Sum of Mulliken charges =  -0.00000  -0.00000

 Dipole moment (field-independent basis, Debye):
    X=             -0.0000    Y=             -0.0000    Z=              0.0000  Tot=              0.0000
 Quadrupole moment (field-independent basis, Debye-Ang):
   XX=            -10.1467   YY=            -11.8887   ZZ=             -9.3207
   XY=              0.0000   XZ=             -0.0000   YZ=              0.0000

 Summary of Natural Population Analysis:

                                       Natural Population
                Natural  -----------------------------------------------
    Atom  No    Charge         Core      Valence    Rydberg      Total
 -----------------------------------------------------------------------
      O    1    0.00000      1.00000     2.99915    0.00085     4.00000
      O    2   -0.00000      1.00000     2.99915    0.00085     4.00000
 =======================================================================
   * Total *    0.00000      2.00000     5.99831    0.00170     8.00000

 Normal termination of Gaussian 16 at Mon Apr 21 19:48:05 2025.
