 Gaussian 16, Revision A.03,
 Gaussian 16:  ES64L-G16RevA.03 25-Dec-2016

 --------------------------------------------
 #p opt UM062X/6-311+G** nosymm int=superfine
 --------------------------------------------

 -------------------
 Title Card Required
 -------------------
 Symbolic Z-matrix:
 Charge =  1 Multiplicity = 2

 SCF Done:  E(UM062X) =  -79.3629888023     A.U. after    9 cycles
 SCF Done:  E(UM062X) =  -79.3690206070     A.U. after    9 cycles
 SCF Done:  E(UM062X) =  -79.3691920678     A.U. after    8 cycles
 Optimization completed.
    -- Stationary point found.

                          Input orientation:
 ---------------------------------------------------------------------
 Center     Atomic      Atomic             Coordinates (Angstroms)
 Number     Number       Type             X           Y           Z
 ---------------------------------------------------------------------
      1          6           0       -0.984404    0.000000    0.000000
      2          6           0        0.984404    0.000000    0.000000
      3          1           0        1.128826   -0.931542    0.539085
      4          1           0       -1.128199   -0.932688   -0.537290
      5          1           0        1.128374    0.932725    0.537179
      6          1           0        1.128218   -0.001078   -1.076374
      7          1           0       -1.128835    0.931575   -0.539026
      8          1           0       -1.128380    0.000969    1.076351
 ---------------------------------------------------------------------

 Alpha  occ. eigenvalues --  -10.86109 -10.86097  -1.11461  -1.01247  -0.79185
 Alpha  occ. eigenvalues --   -0.79183  -0.73491  -0.73491  -0.64204
 Alpha virt. eigenvalues --   -0.22337  -0.16624  -0.11277  -0.11277  -0.09794
 Alpha virt. eigenvalues --   -0.07403  -0.06471  -0.06470  -0.05612  -0.05610
 Alpha virt. eigenvalues --   -0.01775   0.01530   0.01533   0.04143   0.07438

  Beta  occ. eigenvalues --  -10.85888 -10.85888  -1.07863  -0.98191  -0.78154
  Beta  occ. eigenvalues --   -0.78153  -0.72663  -0.72662
  Beta virt. eigenvalues --   -0.40411  -0.16635  -0.16179  -0.11177  -0.11177
  Beta virt. eigenvalues --   -0.07710  -0.07580  -0.06662  -0.06661  -0.05184
  Beta virt. eigenvalues --   -0.05182  -0.00780   0.02218   0.02221   0.04677

 Mulliken charges and spin densities:
               1          2
     1  C   -0.321165   0.543414
     2  C   -0.321165   0.543414
     3  H    0.273729  -0.014500
     4  H    0.273714  -0.014454
     5  H    0.273722  -0.014457
     6  H    0.273714  -0.014456
     7  H    0.273730  -0.014500
     8  H    0.273721  -0.014460
 Sum of Mulliken charges =   1.00000   1.00000

 Dipole moment (field-independent basis, Debye):
    X=              0.0000    Y=             -0.0000    Z=             -0.0000  Tot=              0.0000
 Quadrupole moment (field-independent basis, Debye-Ang):
   XX=             -6.6454   YY=            -10.7402   ZZ=            -10.7401
   XY=             -0.0004   XZ=              0.0002   YZ=              0.0001

 Normal termination of Gaussian 16 at Wed Nov 13 13:28:17 2024.
