 Gaussian 16, Revision A.03,
 Gaussian 16:  ES64L-G16RevA.03 25-Dec-2016

 --------------------------------------------
 #p opt UM062X/6-311+G** nosymm int=superfine
 --------------------------------------------

 -------------------
 Title Card Required
 -------------------
 Symbolic Z-matrix:
 Charge =  1 Multiplicity = 2

 SCF Done:  E(UM062X) =  -79.3630167985     A.U. after   10 cycles
 SCF Done:  E(UM062X) =  -79.3645941356     A.U. after    8 cycles
 SCF Done:  E(UM062X) =  -79.3646114430     A.U. after    8 cycles
 Optimization completed.
    -- Stationary point found.

                          Input orientation:
 ---------------------------------------------------------------------
 Center     Atomic      Atomic             Coordinates (Angstroms)
 Number     Number       Type             X           Y           Z
 ---------------------------------------------------------------------
      1          6           0       -1.127071    0.000000    0.000000
      2          6           0        1.127071    0.000000    0.000000
      3          1           0        1.230629   -0.934513    0.540816
      4          1           0       -1.229972   -0.935630   -0.539014
      5          1           0        1.230319    0.935685    0.538852
      6          1           0        1.229929   -0.001114   -1.079792
      7          1           0       -1.230647    0.934564   -0.540725
      8          1           0       -1.230258    0.000950    1.079760
 ---------------------------------------------------------------------

 Alpha  occ. eigenvalues --  -10.85927 -10.85920  -1.08309  -1.02093  -0.77491
 Alpha  occ. eigenvalues --   -0.77490  -0.74106  -0.74106  -0.59953
 Alpha virt. eigenvalues --   -0.28294  -0.15948  -0.10891  -0.10891  -0.09938
 Alpha virt. eigenvalues --   -0.06814  -0.06292  -0.06292  -0.04819  -0.04817
 Alpha virt. eigenvalues --   -0.02414   0.01678   0.01680   0.04889   0.07313

  Beta  occ. eigenvalues --  -10.85718 -10.85718  -1.04978  -0.99387  -0.76632
  Beta  occ. eigenvalues --   -0.76631  -0.73409  -0.73408
  Beta virt. eigenvalues --   -0.37167  -0.20282  -0.15867  -0.11080  -0.11080
  Beta virt. eigenvalues --   -0.08995  -0.06918  -0.06596  -0.06595  -0.04474
  Beta virt. eigenvalues --   -0.04472  -0.01618   0.02220   0.02222   0.05322

 Mulliken charges and spin densities:
               1          2
     1  C   -0.304867   0.563175
     2  C   -0.304867   0.563175
     3  H    0.268300  -0.021072
     4  H    0.268274  -0.021053
     5  H    0.268287  -0.021060
     6  H    0.268279  -0.021043
     7  H    0.268301  -0.021072
     8  H    0.268293  -0.021050
 Sum of Mulliken charges =   1.00000   1.00000

 Dipole moment (field-independent basis, Debye):
    X=              0.0000    Y=             -0.0000    Z=             -0.0000  Tot=              0.0000
 Quadrupole moment (field-independent basis, Debye-Ang):
   XX=             -5.2515   YY=            -10.8518   ZZ=            -10.8519
   XY=             -0.0007   XZ=              0.0004   YZ=             -0.0000

 Normal termination of Gaussian 16 at Wed Nov 13 13:24:05 2024.
