 Gaussian 16, Revision A.03,
 Gaussian 16:  ES64L-G16RevA.03 25-Dec-2016

 --------------------------------------------
 #p opt UM062X/6-311+G** nosymm int=superfine
 --------------------------------------------

 -------------------
 Title Card Required
 -------------------
 Symbolic Z-matrix:
 Charge =  0 Multiplicity = 3

 SCF Done:  E(UM062X) =  -50.4669249125     A.U. after   11 cycles
 SCF Done:  E(UM062X) =  -50.4678694247     A.U. after   12 cycles
 SCF Done:  E(UM062X) =  -50.4678773450     A.U. after   11 cycles
 Optimization completed.
    -- Stationary point found.

                          Input orientation:
 ---------------------------------------------------------------------
 Center     Atomic      Atomic             Coordinates (Angstroms)
 Number     Number       Type             X           Y           Z
 ---------------------------------------------------------------------
      1          5           0       -2.178410    0.000000    0.000000
      2          5           0        2.178410    0.000000    0.000000
      3          1           0       -3.384479   -0.000082    0.000000
      4          1           0        3.384479    0.000082   -0.000000
 ---------------------------------------------------------------------

 Alpha  occ. eigenvalues --   -7.14508  -7.14508  -0.56952  -0.56848  -0.33109
 Alpha  occ. eigenvalues --   -0.31649  -0.17462
 Alpha virt. eigenvalues --   -0.10747  -0.06360  -0.05752   0.02737   0.02923
 Alpha virt. eigenvalues --    0.05487   0.06774   0.07065   0.07580   0.08050
 Alpha virt. eigenvalues --    0.11193   0.16010   0.21616   0.33208   0.38809

  Beta  occ. eigenvalues --   -7.13614  -7.13613  -0.53660  -0.53563  -0.22961
  Beta virt. eigenvalues --   -0.12812  -0.04434  -0.03910  -0.03495  -0.02922
  Beta virt. eigenvalues --    0.01952   0.02387   0.07041   0.07366   0.08002
  Beta virt. eigenvalues --    0.08176   0.08798   0.09643   0.15709   0.22988

 Mulliken charges and spin densities:
               1          2
     1  B   -0.057039   0.931306
     2  B   -0.057039   0.931306
     3  H    0.057039   0.068694
     4  H    0.057039   0.068694
 Sum of Mulliken charges =  -0.00000   2.00000

 Dipole moment (field-independent basis, Debye):
    X=              0.0000    Y=              0.0000    Z=             -0.0000  Tot=              0.0000
 Quadrupole moment (field-independent basis, Debye-Ang):
   XX=             -6.6741   YY=            -13.6803   ZZ=            -17.6498
   XY=              0.0000   XZ=             -0.0000   YZ=             -0.0000

 1\1\GINC-NODE06\FOpt\UM062X\6-311+G(d,p)\B2H2(3)\SZHAO\21-Apr-2025\0\\
 #p opt UM062X/6-311+G** nosymm int=superfine\\Title Card Required\\0,3
 \B,-2.17841047,0.,0.\B,2.17841047,0.,0.\H,-3.3844785358,-0.0000822983,
 0.0000000003\H,3.3844785328,0.0000822985,-0.0000000004\\Version=ES64L-
 G16RevA.03\HF=-50.4678773\S2=2.025311\S2-1=0.\S2A=2.000021\RMSD=4.866e
 -10\RMSF=4.645e-07\Dipole=0.,0.,0.\Quadrupole=4.4563767,-0.7525917,-3.
 703785,0.0000307,0.,-0.000012\PG=C*V [C*(H1B1B1H1)]\\@

 Normal termination of Gaussian 16 at Mon Apr 21 17:30:05 2025.
