 Gaussian 16, Revision A.03,
 Gaussian 16:  ES64L-G16RevA.03 25-Dec-2016

 --------------------------------------------
 #p opt UM062X/6-311+G** nosymm int=superfine
 --------------------------------------------

 -------------------
 Title Card Required
 -------------------
 Symbolic Z-matrix:
 Charge =  0 Multiplicity = 1

 SCF Done:  E(UM062X) =  -77.0946481613     A.U. after   10 cycles
 SCF Done:  E(UM062X) =  -77.1606112637     A.U. after   10 cycles
 SCF Done:  E(UM062X) =  -77.1701942493     A.U. after    8 cycles
 SCF Done:  E(UM062X) =  -77.1702752654     A.U. after    7 cycles
 Optimization completed.
    -- Stationary point found.

                          Input orientation:
 ---------------------------------------------------------------------
 Center     Atomic      Atomic             Coordinates (Angstroms)
 Number     Number       Type             X           Y           Z
 ---------------------------------------------------------------------
      1          6           0       -0.490783    0.000000    0.000000
      2          6           0        0.490783    0.000000    0.000000
      3          1           0       -1.550822   -0.000000    0.000000
      4          1           0        1.550820   -0.000000    0.000000
 ---------------------------------------------------------------------

 Alpha  occ. eigenvalues --  -10.49081 -10.47500  -0.89265  -0.61469  -0.56483
 Alpha  occ. eigenvalues --   -0.40370  -0.40370
 Alpha virt. eigenvalues --    0.02827   0.03372   0.07176   0.07176   0.07276
 Alpha virt. eigenvalues --    0.07276   0.09477   0.16798   0.20338   0.20338
 Alpha virt. eigenvalues --    0.21967   0.25004   0.44024   0.45836   0.54016

  Beta  occ. eigenvalues --  -10.49081 -10.47500  -0.89265  -0.61469  -0.56483
  Beta  occ. eigenvalues --   -0.40370  -0.40370
  Beta virt. eigenvalues --    0.02827   0.03372   0.07176   0.07176   0.07276
  Beta virt. eigenvalues --    0.07276   0.09477   0.16798   0.20338   0.20338
  Beta virt. eigenvalues --    0.21967   0.25004   0.44024   0.45836   0.54016

 Mulliken charges and spin densities:
               1          2
     1  C   -0.129892  -0.000000
     2  C   -0.129891   0.000000
     3  H    0.129892   0.000000
     4  H    0.129891   0.000000
 Sum of Mulliken charges =  -0.00000   0.00000

 Dipole moment (field-independent basis, Debye):
    X=             -0.0000    Y=             -0.0000    Z=              0.0000  Tot=              0.0000
 Quadrupole moment (field-independent basis, Debye-Ang):
   XX=             -7.5333   YY=            -12.6599   ZZ=            -12.6599
   XY=             -0.0000   XZ=             -0.0000   YZ=             -0.0000

 Normal termination of Gaussian 16 at Tue Dec  3 19:58:56 2024.
