 Gaussian 16, Revision A.03,
 Gaussian 16:  ES64L-G16RevA.03 25-Dec-2016

 ---------------------------------------------------------
 #p opt UM062X/6-311+G** nosymm int=superfine SCF=NoVarAcc
 ---------------------------------------------------------

 -------------------
 Title Card Required
 -------------------
 Symbolic Z-matrix:
 Charge =  0 Multiplicity = 1

 SCF Done:  E(UM062X) =  -78.2065811467     A.U. after    9 cycles
 SCF Done:  E(UM062X) =  -78.2231409125     A.U. after    9 cycles
 SCF Done:  E(UM062X) =  -78.2374487960     A.U. after    8 cycles
 SCF Done:  E(UM062X) =  -78.2377125179     A.U. after    8 cycles
 Optimization completed.
    -- Stationary point found.

                          Input orientation:
 ---------------------------------------------------------------------
 Center     Atomic      Atomic             Coordinates (Angstroms)
 Number     Number       Type             X           Y           Z
 ---------------------------------------------------------------------
      1          6           0       -8.535595    0.000000    0.000000
      2          6           0        8.535595    0.000000    0.000000
      3          1           0       -9.234062   -0.861062    0.000000
      4          1           0       -9.234034    0.861079   -0.000000
      5          1           0        9.234062    0.861062   -0.000000
      6          1           0        9.234034   -0.861079   -0.000000
 ---------------------------------------------------------------------

 Alpha  occ. eigenvalues --  -10.60855 -10.60855  -0.75778  -0.75778  -0.47661
 Alpha  occ. eigenvalues --   -0.47661  -0.31482  -0.31482
 Alpha virt. eigenvalues --   -0.08298  -0.08298   0.02334   0.02334   0.06562
 Alpha virt. eigenvalues --    0.06562   0.08507   0.08507   0.09144   0.09144
 Alpha virt. eigenvalues --    0.17583   0.17583   0.19461   0.19461   0.44081

  Beta  occ. eigenvalues --  -10.60855 -10.60855  -0.75778  -0.75778  -0.47661
  Beta  occ. eigenvalues --   -0.47661  -0.31482  -0.31482
  Beta virt. eigenvalues --   -0.08298  -0.08298   0.02334   0.02334   0.06562
  Beta virt. eigenvalues --    0.06562   0.08507   0.08507   0.09144   0.09144
  Beta virt. eigenvalues --    0.17583   0.17583   0.19461   0.19461   0.44081

 Mulliken charges and spin densities:
               1          2
     1  C   -0.254934  -0.000000
     2  C   -0.254934  -0.000000
     3  H    0.127467  -0.000000
     4  H    0.127467  -0.000000
     5  H    0.127467   0.000000
     6  H    0.127467  -0.000000
 Sum of Mulliken charges =  -0.00000  -0.00000

 Dipole moment (field-independent basis, Debye):
    X=              0.0000    Y=              0.0000    Z=             -0.0000  Tot=              0.0000
 Quadrupole moment (field-independent basis, Debye-Ang):
   XX=             53.1766   YY=            -14.4530   ZZ=            -12.8734
   XY=             -0.0006   XZ=             -0.0000   YZ=             -0.0000

 Normal termination of Gaussian 16 at Tue Dec  3 17:42:07 2024.
