 Gaussian 16, Revision A.03,
 Gaussian 16:  ES64L-G16RevA.03 25-Dec-2016

 ---------------------------------------
 #p UM062X/6-311+G** force int=superfine
 ---------------------------------------

 -------------------
 Title Card Required
 -------------------
 Symbolic Z-matrix:
 Charge =  1 Multiplicity = 2

                         Standard orientation:
 ---------------------------------------------------------------------
 Center     Atomic      Atomic             Coordinates (Angstroms)
 Number     Number       Type             X           Y           Z
 ---------------------------------------------------------------------
      1          6           0        0.000000    0.699823   -0.000000
      2          6           0       -0.000000   -0.699823    0.000000
      3          1           0        0.933783    1.255719   -0.000000
      4          1           0       -0.933631    1.255854   -0.000000
      5          1           0       -0.933783   -1.255719    0.000000
      6          1           0        0.933631   -1.255854    0.000000
 ---------------------------------------------------------------------

 SCF Done:  E(UM062X) =  -78.1840015572     A.U. after    9 cycles

 The electronic state is 2-AU.
 Alpha  occ. eigenvalues --  -10.89502 -10.89419  -1.18930  -0.97665  -0.84921
 Alpha  occ. eigenvalues --   -0.79773  -0.72673  -0.67063
 Alpha virt. eigenvalues --   -0.29207  -0.14702  -0.12601  -0.12524  -0.09760
 Alpha virt. eigenvalues --   -0.07792  -0.06864  -0.04830  -0.04451  -0.02557
 Alpha virt. eigenvalues --   -0.00506   0.02079   0.08037   0.10857   0.20427

  Beta  occ. eigenvalues --  -10.89271 -10.89201  -1.14918  -0.95746  -0.83793
  Beta  occ. eigenvalues --   -0.78834  -0.72356
  Beta virt. eigenvalues --   -0.42343  -0.22183  -0.16453  -0.12634  -0.12556
  Beta virt. eigenvalues --   -0.10275  -0.08668  -0.06925  -0.04782  -0.03633
  Beta virt. eigenvalues --   -0.02071  -0.00812   0.02317   0.09412   0.11315

 Mulliken charges and spin densities:
               1          2
     1  C   -0.051530   0.537635
     2  C   -0.051530   0.537635
     3  H    0.275760  -0.018819
     4  H    0.275770  -0.018816
     5  H    0.275760  -0.018819
     6  H    0.275770  -0.018816
 Sum of Mulliken charges =   1.00000   1.00000

 Dipole moment (field-independent basis, Debye):
    X=              0.0000    Y=              0.0000    Z=              0.0000  Tot=              0.0000
 Quadrupole moment (field-independent basis, Debye-Ang):
   XX=             -8.4661   YY=             -5.6032   ZZ=            -11.4651
   XY=             -0.0002   XZ=              0.0000   YZ=             -0.0000

 Normal termination of Gaussian 16 at Tue Nov 19 11:54:03 2024.
