 Gaussian 16, Revision A.03,
 Gaussian 16:  ES64L-G16RevA.03 25-Dec-2016

 --------------------------------------------
 #p opt UM062X/6-311+G** nosymm int=superfine
 --------------------------------------------

 -------------------
 Title Card Required
 -------------------
 Symbolic Z-matrix:
 Charge =  0 Multiplicity = 1

 SCF Done:  E(UM062X) =  -151.533729904     A.U. after   11 cycles
 SCF Done:  E(UM062X) =  -151.533881080     A.U. after   11 cycles
 SCF Done:  E(UM062X) =  -151.533901116     A.U. after   12 cycles
 SCF Done:  E(UM062X) =  -151.533916133     A.U. after   11 cycles
 SCF Done:  E(UM062X) =  -151.533916153     A.U. after    7 cycles
 Optimization completed.
    -- Stationary point found.

                          Input orientation:
 ---------------------------------------------------------------------
 Center     Atomic      Atomic             Coordinates (Angstroms)
 Number     Number       Type             X           Y           Z
 ---------------------------------------------------------------------
      1          8           0       -0.736938    0.000000    0.000000
      2          8           0        0.736938    0.000000    0.000000
      3          1           0       -0.899715   -0.949561   -0.046375
      4          1           0        0.899715    0.486593    0.816731
 ---------------------------------------------------------------------

 Alpha  occ. eigenvalues --  -19.69319 -19.69304  -1.25278  -1.03032  -0.60877
 Alpha  occ. eigenvalues --   -0.59423  -0.51023  -0.42649  -0.37493
 Alpha virt. eigenvalues --    0.03322   0.06015   0.11436   0.16235   0.17008
 Alpha virt. eigenvalues --    0.18625   0.20735   0.20873   0.22075   0.27160
 Alpha virt. eigenvalues --    0.33621   0.50884   0.52265   0.97648   1.00452

  Beta  occ. eigenvalues --  -19.69319 -19.69304  -1.25278  -1.03032  -0.60877
  Beta  occ. eigenvalues --   -0.59423  -0.51023  -0.42649  -0.37493
  Beta virt. eigenvalues --    0.03322   0.06015   0.11436   0.16235   0.17008
  Beta virt. eigenvalues --    0.18625   0.20735   0.20873   0.22075   0.27160
  Beta virt. eigenvalues --    0.33621   0.50884   0.52265   0.97648   1.00452

 Mulliken charges and spin densities:
               1          2
     1  O   -0.272310  -0.000000
     2  O   -0.272308   0.000000
     3  H    0.272309  -0.000000
     4  H    0.272309  -0.000000
 Sum of Mulliken charges =  -0.00000  -0.00000

 Dipole moment (field-independent basis, Debye):
    X=              0.0000    Y=             -0.8753    Z=              1.4565  Tot=              1.6993
 Quadrupole moment (field-independent basis, Debye-Ang):
   XX=            -11.7313   YY=            -10.0933   ZZ=            -11.3783
   XY=              2.8700   XZ=              1.7248   YZ=              1.2089

 Normal termination of Gaussian 16 at Mon Apr 21 21:33:21 2025.
