 Gaussian 16, Revision A.03,
 Gaussian 16:  ES64L-G16RevA.03 25-Dec-2016

 ---------------------------------------------------
 #p UM062X/6-311+G** force int=superfine pop=saveNBO
 ---------------------------------------------------

 -------------------
 Title Card Required
 -------------------
 Symbolic Z-matrix:
 Charge =  0 Multiplicity = 1

                         Standard orientation:
 ---------------------------------------------------------------------
 Center     Atomic      Atomic             Coordinates (Angstroms)
 Number     Number       Type             X           Y           Z
 ---------------------------------------------------------------------
      1          6           0        0.000000    0.000000   -1.498379
      2          8           0        0.000000    0.000000    1.123785
 ---------------------------------------------------------------------

 SCF Done:  E(UM062X) =  -112.787407502     A.U. after   23 cycles

 The electronic state is 1-SG.
 Alpha  occ. eigenvalues --  -19.68141 -10.79769  -0.99154  -0.70322  -0.37499
 Alpha  occ. eigenvalues --   -0.37499  -0.34359
 Alpha virt. eigenvalues --   -0.16089  -0.16089  -0.12652   0.03172   0.06340
 Alpha virt. eigenvalues --    0.06340   0.07161   0.19166   0.21833   0.21833
 Alpha virt. eigenvalues --    0.30466   0.52696   0.52696   0.55781   0.63778

  Beta  occ. eigenvalues --  -19.68141 -10.79769  -0.99154  -0.70322  -0.37499
  Beta  occ. eigenvalues --   -0.37499  -0.34359
  Beta virt. eigenvalues --   -0.16089  -0.16089  -0.12652   0.03172   0.06340
  Beta virt. eigenvalues --    0.06340   0.07161   0.19166   0.21833   0.21833
  Beta virt. eigenvalues --    0.30466   0.52696   0.52696   0.55781   0.63778

 Mulliken charges and spin densities:
               1          2
     1  C    0.257176  -0.000000
     2  O   -0.257176   0.000000
 Sum of Mulliken charges =   0.00000  -0.00000

 Dipole moment (field-independent basis, Debye):
    X=              0.0000    Y=              0.0000    Z=             -3.3147  Tot=              3.3147
 Quadrupole moment (field-independent basis, Debye-Ang):
   XX=            -11.2211   YY=            -11.2211   ZZ=            -11.1547
   XY=              0.0000   XZ=              0.0000   YZ=              0.0000

 Summary of Natural Population Analysis:

                                       Natural Population
                Natural  -----------------------------------------------
    Atom  No    Charge         Core      Valence    Rydberg      Total
 -----------------------------------------------------------------------
      C    1    0.17609      1.00000     1.82335    0.00057     2.82391
      O    2   -0.17609      1.00000     3.17535    0.00074     4.17609
 =======================================================================
   * Total *   -0.00000      2.00000     4.99870    0.00130     7.00000

 Normal termination of Gaussian 16 at Mon Apr 21 19:31:48 2025.
