 Gaussian 16, Revision A.03,
 Gaussian 16:  ES64L-G16RevA.03 25-Dec-2016

 --------------------------------------------
 #p opt UM062X/6-311+G** nosymm int=superfine
 --------------------------------------------

 -------------------
 Title Card Required
 -------------------
 Symbolic Z-matrix:
 Charge =  0 Multiplicity = 1

 SCF Done:  E(UM062X) =  -77.0901313806     A.U. after    9 cycles
 SCF Done:  E(UM062X) =  -77.1318311069     A.U. after    9 cycles
 SCF Done:  E(UM062X) =  -77.1714360649     A.U. after   10 cycles
 SCF Done:  E(UM062X) =  -77.1717290607     A.U. after    8 cycles
 Optimization completed.
    -- Stationary point found.

                          Input orientation:
 ---------------------------------------------------------------------
 Center     Atomic      Atomic             Coordinates (Angstroms)
 Number     Number       Type             X           Y           Z
 ---------------------------------------------------------------------
      1          6           0       -0.778070    0.000000    0.000000
      2          6           0        0.778070    0.000000    0.000000
      3          1           0       -1.850974   -0.000000    0.000000
      4          1           0        1.850983    0.000000   -0.000000
 ---------------------------------------------------------------------

 Alpha  occ. eigenvalues --  -10.63570 -10.63525  -0.79142  -0.68596  -0.54612
 Alpha  occ. eigenvalues --   -0.31373  -0.31373
 Alpha virt. eigenvalues --   -0.02166  -0.02166   0.01485   0.02368   0.08237
 Alpha virt. eigenvalues --    0.08237   0.09197   0.09429   0.11515   0.11515
 Alpha virt. eigenvalues --    0.17984   0.23085   0.30182   0.46345   0.58737

  Beta  occ. eigenvalues --  -10.63570 -10.63525  -0.79142  -0.68596  -0.54612
  Beta  occ. eigenvalues --   -0.31373  -0.31373
  Beta virt. eigenvalues --   -0.02166  -0.02166   0.01485   0.02368   0.08237
  Beta virt. eigenvalues --    0.08237   0.09197   0.09429   0.11515   0.11515
  Beta virt. eigenvalues --    0.17984   0.23085   0.30182   0.46345   0.58737

 Mulliken charges and spin densities:
               1          2
     1  C   -0.231295   0.000000
     2  C   -0.231294  -0.000000
     3  H    0.231293  -0.000000
     4  H    0.231295  -0.000000
 Sum of Mulliken charges =  -0.00000  -0.00000

 Dipole moment (field-independent basis, Debye):
    X=              0.0000    Y=             -0.0000    Z=              0.0000  Tot=              0.0000
 Quadrupole moment (field-independent basis, Debye-Ang):
   XX=             -5.5445   YY=            -15.3124   ZZ=            -15.3124
   XY=              0.0000   XZ=             -0.0000   YZ=             -0.0000

 Normal termination of Gaussian 16 at Tue Dec  3 20:10:38 2024.
