 Gaussian 16, Revision A.03,
 Gaussian 16:  ES64L-G16RevA.03 25-Dec-2016

 --------------------------------------------
 #p opt UM062X/6-311+G** nosymm int=superfine
 --------------------------------------------

 -------------------
 Title Card Required
 -------------------
 Symbolic Z-matrix:
 Charge =  0 Multiplicity = 1

 SCF Done:  E(UM062X) =  -79.5797188770     A.U. after   10 cycles
 SCF Done:  E(UM062X) =  -79.5831448685     A.U. after    9 cycles
 SCF Done:  E(UM062X) =  -79.5844620926     A.U. after    9 cycles
 SCF Done:  E(UM062X) =  -79.5844688779     A.U. after    8 cycles
 Optimization completed.
    -- Stationary point found.

                          Input orientation:
 ---------------------------------------------------------------------
 Center     Atomic      Atomic             Coordinates (Angstroms)
 Number     Number       Type             X           Y           Z
 ---------------------------------------------------------------------
      1          6           0       -1.846675    0.000000    0.000000
      2          6           0        1.846800    0.000000    0.000000
      3          1           0        1.917712   -0.932760    0.539739
      4          1           0       -1.917573   -0.933812   -0.537918
      5          1           0        1.917702    0.933813    0.537917
      6          1           0        1.917698   -0.001051   -1.077665
      7          1           0       -1.917587    0.932760   -0.539739
      8          1           0       -1.917577    0.001051    1.077665
 ---------------------------------------------------------------------

 Alpha  occ. eigenvalues --  -10.57205 -10.57203  -0.77061  -0.76616  -0.49153
 Alpha  occ. eigenvalues --   -0.49153  -0.48953  -0.48953  -0.22235
 Alpha virt. eigenvalues --   -0.10616   0.03098   0.05123   0.05320   0.05320
 Alpha virt. eigenvalues --    0.07508   0.07508   0.11429   0.12521   0.18583
 Alpha virt. eigenvalues --    0.18583   0.20438   0.20438   0.22766   0.24997

  Beta  occ. eigenvalues --  -10.57205 -10.57203  -0.77061  -0.76616  -0.49153
  Beta  occ. eigenvalues --   -0.49153  -0.48953  -0.48953  -0.22235
  Beta virt. eigenvalues --   -0.10616   0.03098   0.05123   0.05320   0.05320
  Beta virt. eigenvalues --    0.07508   0.07508   0.11429   0.12521   0.18583
  Beta virt. eigenvalues --    0.18583   0.20438   0.20438   0.22766   0.24997

 Mulliken charges and spin densities:
               1          2
     1  C   -0.526072  -0.000001
     2  C   -0.526072   0.000001
     3  H    0.175357  -0.000000
     4  H    0.175358   0.000000
     5  H    0.175358  -0.000000
     6  H    0.175357  -0.000000
     7  H    0.175357   0.000000
     8  H    0.175357   0.000000
 Sum of Mulliken charges =  -0.00000  -0.00000

 Dipole moment (field-independent basis, Debye):
    X=              0.0000    Y=             -0.0000    Z=             -0.0000  Tot=              0.0000
 Quadrupole moment (field-independent basis, Debye-Ang):
   XX=            -15.5603   YY=            -14.8535   ZZ=            -14.8536
   XY=             -0.0000   XZ=              0.0000   YZ=             -0.0000

 Normal termination of Gaussian 16 at Tue Dec  3 10:05:49 2024.
