 Gaussian 16, Revision A.03,
 Gaussian 16:  ES64L-G16RevA.03 25-Dec-2016

 --------------------------------------------
 #p opt UM062X/6-311+G** nosymm int=superfine
 --------------------------------------------

 -------------------
 Title Card Required
 -------------------
 Symbolic Z-matrix:
 Charge =  0 Multiplicity = 1

 SCF Done:  E(UM062X) =  -684.991115840     A.U. after   11 cycles
 SCF Done:  E(UM062X) =  -684.993144031     A.U. after   10 cycles
 SCF Done:  E(UM062X) =  -684.993956534     A.U. after   10 cycles
 SCF Done:  E(UM062X) =  -684.994011941     A.U. after    9 cycles
 SCF Done:  E(UM062X) =  -684.994035981     A.U. after   10 cycles
 SCF Done:  E(UM062X) =  -684.994049331     A.U. after    9 cycles
 SCF Done:  E(UM062X) =  -684.994076980     A.U. after   10 cycles
 SCF Done:  E(UM062X) =  -684.994132341     A.U. after   11 cycles
 SCF Done:  E(UM062X) =  -684.994192125     A.U. after   12 cycles
 SCF Done:  E(UM062X) =  -684.994220228     A.U. after   10 cycles
 SCF Done:  E(UM062X) =  -684.994273992     A.U. after    8 cycles
 SCF Done:  E(UM062X) =  -684.993836036     A.U. after   11 cycles
 SCF Done:  E(UM062X) =  -684.994259773     A.U. after    9 cycles
 SCF Done:  E(UM062X) =  -684.994274521     A.U. after    6 cycles
 SCF Done:  E(UM062X) =  -684.994263441     A.U. after    9 cycles
 SCF Done:  E(UM062X) =  -684.994276043     A.U. after    9 cycles
 SCF Done:  E(UM062X) =  -684.994275872     A.U. after    9 cycles
 SCF Done:  E(UM062X) =  -684.994276555     A.U. after    8 cycles
 SCF Done:  E(UM062X) =  -684.994276738     A.U. after    8 cycles
 SCF Done:  E(UM062X) =  -684.994276744     A.U. after    7 cycles
 Optimization completed.
    -- Stationary point found.

                          Input orientation:
 ---------------------------------------------------------------------
 Center     Atomic      Atomic             Coordinates (Angstroms)
 Number     Number       Type             X           Y           Z
 ---------------------------------------------------------------------
      1         15           0       -1.567217    0.000000    0.000000
      2         15           0        1.567217    0.000000    0.000000
      3          1           0        1.542340   -0.953415    1.049478
      4          1           0       -1.543234    1.014201    0.991028
      5          1           0        1.543362   -1.014621   -0.990598
      6          1           0       -1.542155    0.953870   -1.049060
 ---------------------------------------------------------------------

 Alpha  occ. eigenvalues --  -78.04514 -78.04514  -6.86860  -6.86860  -4.98407
 Alpha  occ. eigenvalues --   -4.98407  -4.98310  -4.98310  -4.98121  -4.98121
 Alpha  occ. eigenvalues --   -0.71900  -0.69573  -0.45298  -0.44120  -0.36426
 Alpha  occ. eigenvalues --   -0.35621  -0.28358
 Alpha virt. eigenvalues --   -0.09224   0.01539   0.03140   0.03337   0.04165
 Alpha virt. eigenvalues --    0.04712   0.05385   0.06171   0.06319   0.06780
 Alpha virt. eigenvalues --    0.08882   0.16448   0.18740   0.28253   0.28451

  Beta  occ. eigenvalues --  -78.04514 -78.04514  -6.86860  -6.86860  -4.98407
  Beta  occ. eigenvalues --   -4.98407  -4.98310  -4.98310  -4.98121  -4.98121
  Beta  occ. eigenvalues --   -0.71900  -0.69573  -0.45298  -0.44120  -0.36426
  Beta  occ. eigenvalues --   -0.35621  -0.28358
  Beta virt. eigenvalues --   -0.09224   0.01539   0.03140   0.03337   0.04165
  Beta virt. eigenvalues --    0.04712   0.05385   0.06171   0.06319   0.06780
  Beta virt. eigenvalues --    0.08882   0.16448   0.18740   0.28253   0.28451

 Mulliken charges and spin densities:
               1          2
     1  P   -0.040091  -0.000000
     2  P   -0.040121   0.000000
     3  H    0.020052  -0.000000
     4  H    0.020050   0.000000
     5  H    0.020054   0.000000
     6  H    0.020057  -0.000000
 Sum of Mulliken charges =  -0.00000  -0.00000

 Dipole moment (field-independent basis, Debye):
    X=              0.0000    Y=              0.0000    Z=              0.0003  Tot=              0.0003
 Quadrupole moment (field-independent basis, Debye-Ang):
   XX=            -29.7955   YY=            -31.0573   ZZ=            -28.2690
   XY=             -3.6520   XZ=              0.1069   YZ=              0.0826

 Normal termination of Gaussian 16 at Mon Apr 21 20:52:45 2025.
