 Gaussian 16, Revision A.03,
 Gaussian 16:  ES64L-G16RevA.03 25-Dec-2016

 --------------------------------------------
 #p opt UM062X/6-311+G** nosymm int=superfine
 --------------------------------------------

 -------------------
 Title Card Required
 -------------------
 Symbolic Z-matrix:
 Charge =  0 Multiplicity = 1

 SCF Done:  E(UM062X) =  -76.9580525552     A.U. after   13 cycles
 SCF Done:  E(UM062X) =  -76.9588586372     A.U. after   13 cycles
 SCF Done:  E(UM062X) =  -76.9591252623     A.U. after   13 cycles
 SCF Done:  E(UM062X) =  -76.9593733562     A.U. after   12 cycles
 SCF Done:  E(UM062X) =  -76.9593736105     A.U. after   10 cycles
 Optimization completed.
    -- Stationary point found.

                          Input orientation:
 ---------------------------------------------------------------------
 Center     Atomic      Atomic             Coordinates (Angstroms)
 Number     Number       Type             X           Y           Z
 ---------------------------------------------------------------------
      1          6           0       -1.257625    0.000000    0.000000
      2          6           0        1.257625    0.000000    0.000000
      3          1           0       -1.230680    0.274654    1.083345
      4          1           0        1.230748    1.000379   -0.498319
 ---------------------------------------------------------------------

 Alpha  occ. eigenvalues --  -10.66753 -10.66747  -0.74255  -0.70162  -0.39056
 Alpha  occ. eigenvalues --   -0.38284  -0.28078
 Alpha virt. eigenvalues --   -0.09715  -0.08882  -0.04858   0.02820   0.05878
 Alpha virt. eigenvalues --    0.07557   0.07635   0.09965   0.10025   0.10413
 Alpha virt. eigenvalues --    0.15364   0.16847   0.20642   0.44920   0.46955

  Beta  occ. eigenvalues --  -10.66753 -10.66747  -0.74255  -0.70162  -0.39056
  Beta  occ. eigenvalues --   -0.38284  -0.28078
  Beta virt. eigenvalues --   -0.09715  -0.08882  -0.04858   0.02820   0.05878
  Beta virt. eigenvalues --    0.07557   0.07635   0.09965   0.10025   0.10413
  Beta virt. eigenvalues --    0.15364   0.16847   0.20642   0.44920   0.46955

 Mulliken charges and spin densities:
               1          2
     1  C   -0.136394  -0.000000
     2  C   -0.136409   0.000000
     3  H    0.136401   0.000000
     4  H    0.136401  -0.000000
 Sum of Mulliken charges =  -0.00000  -0.00000

 Dipole moment (field-independent basis, Debye):
    X=              0.0000    Y=              1.7740    Z=              0.8140  Tot=              1.9518
 Quadrupole moment (field-independent basis, Debye-Ang):
   XX=            -17.1469   YY=            -12.9234   ZZ=            -13.2882
   XY=              1.3809   XZ=             -3.0094   YZ=              0.2121

 Normal termination of Gaussian 16 at Tue Dec  3 21:41:08 2024.
