 Gaussian 16, Revision A.03,
 Gaussian 16:  ES64L-G16RevA.03 25-Dec-2016

 ---------------------------------------------------
 #p UM062X/6-311+G** force int=superfine pop=saveNBO
 ---------------------------------------------------

 -------------------
 Title Card Required
 -------------------
 Symbolic Z-matrix:
 Charge =  0 Multiplicity = 1

                         Standard orientation:
 ---------------------------------------------------------------------
 Center     Atomic      Atomic             Coordinates (Angstroms)
 Number     Number       Type             X           Y           Z
 ---------------------------------------------------------------------
      1          6           0        0.000000    0.000000   -2.298379
      2          8           0        0.000000    0.000000    1.723785
 ---------------------------------------------------------------------

 SCF Done:  E(UM062X) =  -112.630663382     A.U. after   18 cycles

 The electronic state is 1-SG.
 Alpha  occ. eigenvalues --  -19.69175 -10.82873  -0.99114  -0.72377  -0.37920
 Alpha  occ. eigenvalues --   -0.29862  -0.29862
 Alpha virt. eigenvalues --   -0.22735  -0.22735  -0.18233   0.02270   0.05889
 Alpha virt. eigenvalues --    0.05889   0.07148   0.18404   0.21175   0.21175
 Alpha virt. eigenvalues --    0.24787   0.50941   0.50941   0.51739   0.60977

  Beta  occ. eigenvalues --  -19.69175 -10.82873  -0.99114  -0.72377  -0.37920
  Beta  occ. eigenvalues --   -0.29862  -0.29862
  Beta virt. eigenvalues --   -0.22735  -0.22735  -0.18233   0.02270   0.05889
  Beta virt. eigenvalues --    0.05889   0.07148   0.18404   0.21175   0.21175
  Beta virt. eigenvalues --    0.24787   0.50941   0.50941   0.51739   0.60977

 Mulliken charges and spin densities:
               1          2
     1  C    0.289955   0.000002
     2  O   -0.289955  -0.000002
 Sum of Mulliken charges =   0.00000   0.00000

 Dipole moment (field-independent basis, Debye):
    X=              0.0000    Y=              0.0000    Z=             -5.5710  Tot=              5.5710
 Quadrupole moment (field-independent basis, Debye-Ang):
   XX=            -12.3681   YY=            -12.3681   ZZ=             -7.8480
   XY=              0.0000   XZ=              0.0000   YZ=              0.0000

 Summary of Natural Population Analysis:

                                       Natural Population
                Natural  -----------------------------------------------
    Atom  No    Charge         Core      Valence    Rydberg      Total
 -----------------------------------------------------------------------
      C    1    0.14829      1.00000     1.85162    0.00009     2.85171
      O    2   -0.14829      1.00000     3.14755    0.00074     4.14829
 =======================================================================
   * Total *    0.00000      2.00000     4.99917    0.00083     7.00000

 Normal termination of Gaussian 16 at Mon Apr 21 19:31:21 2025.
