 Gaussian 16, Revision A.03,
 Gaussian 16:  ES64L-G16RevA.03 25-Dec-2016

 ---------------------------------------
 #p UM062X/6-311+G** force int=superfine
 ---------------------------------------

 -------------------
 Title Card Required
 -------------------
 Symbolic Z-matrix:
 Charge =  1 Multiplicity = 2

                         Standard orientation:
 ---------------------------------------------------------------------
 Center     Atomic      Atomic             Coordinates (Angstroms)
 Number     Number       Type             X           Y           Z
 ---------------------------------------------------------------------
      1          6           0       -0.011917    0.128448   -1.406502
      2          6           0        0.011904   -0.128443    1.406502
      3          1           0       -0.441866   -1.112593    1.381176
      4          1           0        0.611347   -0.746590   -1.551242
      5          1           0       -0.611140    0.746639    1.551923
      6          1           0        1.090342   -0.035655    1.465340
      7          1           0        0.441700    1.112671   -1.381203
      8          1           0       -1.090306    0.035497   -1.465992
 ---------------------------------------------------------------------

 SCF Done:  E(UM062X) =  -79.3459749109     A.U. after   10 cycles

 The electronic state is 2-A.
 Alpha  occ. eigenvalues --  -10.85325 -10.85322  -1.04878  -1.02638  -0.75305
 Alpha  occ. eigenvalues --   -0.75305  -0.74174  -0.74173  -0.54276
 Alpha virt. eigenvalues --   -0.34202  -0.14531  -0.10413  -0.10412  -0.10088
 Alpha virt. eigenvalues --   -0.06210  -0.06210  -0.05723  -0.03133  -0.02851
 Alpha virt. eigenvalues --   -0.02848   0.01447   0.01449   0.05349   0.07508

  Beta  occ. eigenvalues --  -10.85129 -10.85129  -1.01837  -1.00253  -0.74694
  Beta  occ. eigenvalues --   -0.74693  -0.73661  -0.73660
  Beta virt. eigenvalues --   -0.33019  -0.24718  -0.15467  -0.11121  -0.11121
  Beta virt. eigenvalues --   -0.09800  -0.06501  -0.06500  -0.05755  -0.02956
  Beta virt. eigenvalues --   -0.02953  -0.02326   0.01791   0.01793   0.06084

 Mulliken charges and spin densities:
               1          2
     1  C   -0.276313   0.571981
     2  C   -0.276313   0.571982
     3  H    0.258781  -0.024013
     4  H    0.258743  -0.023996
     5  H    0.258770  -0.024000
     6  H    0.258762  -0.023970
     7  H    0.258783  -0.024013
     8  H    0.258788  -0.023973
 Sum of Mulliken charges =   1.00000   1.00000

 Dipole moment (field-independent basis, Debye):
    X=              0.0000    Y=             -0.0000    Z=             -0.0000  Tot=              0.0000
 Quadrupole moment (field-independent basis, Debye-Ang):
   XX=            -10.9952   YY=            -10.9181   ZZ=             -1.6991
   XY=             -0.0071   XZ=              0.0781   YZ=             -0.8503

 Normal termination of Gaussian 16 at Wed Nov 13 13:02:50 2024.
