 Gaussian 16, Revision A.03,
 Gaussian 16:  ES64L-G16RevA.03 25-Dec-2016

 --------------------------------------------
 #p opt UM062X/6-311+G** nosymm int=superfine
 --------------------------------------------

 -------------------
 Title Card Required
 -------------------
 Symbolic Z-matrix:
 Charge =  0 Multiplicity = 1

 SCF Done:  E(UM062X) =  -80.4088566696     A.U. after   16 cycles
 SCF Done:  E(UM062X) =  -80.4122046558     A.U. after    9 cycles
 SCF Done:  E(UM062X) =  -80.4122528861     A.U. after    9 cycles
 Optimization completed.
    -- Stationary point found.

                          Input orientation:
 ---------------------------------------------------------------------
 Center     Atomic      Atomic             Coordinates (Angstroms)
 Number     Number       Type             X           Y           Z
 ---------------------------------------------------------------------
      1          5           0       -1.942066    0.000000    0.000000
      2          7           0        1.942066    0.000000    0.000000
      3          1           0       -3.175156   -0.000569    0.000000
      4          1           0        2.981429    0.000537   -0.000000
 ---------------------------------------------------------------------

 Alpha  occ. eigenvalues --  -14.82552  -7.12013  -0.89023  -0.54222  -0.45539
 Alpha  occ. eigenvalues --   -0.33201  -0.27206
 Alpha virt. eigenvalues --   -0.12075  -0.03966  -0.03920   0.02602   0.03988
 Alpha virt. eigenvalues --    0.06654   0.06758   0.09576   0.13872   0.14901
 Alpha virt. eigenvalues --    0.17094   0.19486   0.25349   0.38719   0.42488

  Beta  occ. eigenvalues --  -14.82552  -7.12013  -0.89023  -0.54222  -0.45539
  Beta  occ. eigenvalues --   -0.33201  -0.27206
  Beta virt. eigenvalues --   -0.12075  -0.03966  -0.03920   0.02602   0.03988
  Beta virt. eigenvalues --    0.06654   0.06758   0.09576   0.13872   0.14901
  Beta virt. eigenvalues --    0.17094   0.19486   0.25349   0.38719   0.42488

 Mulliken charges and spin densities:
               1          2
     1  B   -0.011497   0.000000
     2  N   -0.193171  -0.000000
     3  H   -0.008586   0.000000
     4  H    0.213255   0.000000
 Sum of Mulliken charges =  -0.00000   0.00000

 Dipole moment (field-independent basis, Debye):
    X=              0.2035    Y=              0.0000    Z=              0.0000  Tot=              0.2035
 Quadrupole moment (field-independent basis, Debye-Ang):
   XX=             -3.4309   YY=            -11.8624   ZZ=            -15.1430
   XY=              0.0016   XZ=              0.0000   YZ=             -0.0000

 Normal termination of Gaussian 16 at Mon Apr 21 18:08:27 2025.
