 Gaussian 16, Revision A.03,
 Gaussian 16:  ES64L-G16RevA.03 25-Dec-2016

 ---------------------------------------------------------
 #p opt UM062X/6-311+G** nosymm int=superfine SCF=NoVarAcc
 ---------------------------------------------------------

 -------------------
 Title Card Required
 -------------------
 Symbolic Z-matrix:
 Charge =  1 Multiplicity = 2

 SCF Done:  E(UM062X) =  -76.5848760373     A.U. after   12 cycles
 SCF Done:  E(UM062X) =  -76.5852144660     A.U. after   10 cycles
 Optimization completed.
    -- Stationary point found.

                          Input orientation:
 ---------------------------------------------------------------------
 Center     Atomic      Atomic             Coordinates (Angstroms)
 Number     Number       Type             X           Y           Z
 ---------------------------------------------------------------------
      1          6           0       -1.882160    0.000000    0.000000
      2          6           0        1.882160    0.000000    0.000000
      3          1           0       -2.999822    0.000000   -0.000000
      4          1           0        2.999821   -0.000000   -0.000000
 ---------------------------------------------------------------------

 Alpha  occ. eigenvalues --  -10.94498 -10.94498  -0.98183  -0.98036  -0.64119
 Alpha  occ. eigenvalues --   -0.62696  -0.48151
 Alpha virt. eigenvalues --   -0.40562  -0.33372  -0.32995  -0.12326  -0.11362
 Alpha virt. eigenvalues --   -0.07714  -0.07262  -0.05387  -0.04771  -0.04421
 Alpha virt. eigenvalues --   -0.01585  -0.00517   0.05873   0.25217   0.29849

  Beta  occ. eigenvalues --  -10.94087 -10.94087  -0.95788  -0.95721  -0.62785
  Beta  occ. eigenvalues --   -0.61283
  Beta virt. eigenvalues --   -0.31549  -0.31071  -0.29961  -0.29416  -0.12804
  Beta virt. eigenvalues --   -0.11285  -0.07117  -0.06346  -0.06078  -0.04035
  Beta virt. eigenvalues --   -0.03105  -0.02080   0.01054   0.07478   0.24418

 Mulliken charges and spin densities:
               1          2
     1  C    0.268142   0.516472
     2  C    0.268142   0.516473
     3  H    0.231858  -0.016472
     4  H    0.231858  -0.016472
 Sum of Mulliken charges =   1.00000   1.00000

 Dipole moment (field-independent basis, Debye):
    X=             -0.0000    Y=              0.0000    Z=             -0.0000  Tot=              0.0000
 Quadrupole moment (field-independent basis, Debye-Ang):
   XX=             21.7732   YY=            -10.2083   ZZ=            -10.7782
   XY=              0.0000   XZ=              0.0000   YZ=             -0.9633

 Normal termination of Gaussian 16 at Tue Dec  3 17:42:41 2024.
