 Gaussian 16, Revision A.03,
 Gaussian 16:  ES64L-G16RevA.03 25-Dec-2016

 --------------------------------------------
 #p opt UM062X/6-311+G** nosymm int=superfine
 --------------------------------------------

 -------------------
 Title Card Required
 -------------------
 Symbolic Z-matrix:
 Charge =  0 Multiplicity = 1

 SCF Done:  E(UM062X) =  -78.1999043571     A.U. after    9 cycles
 SCF Done:  E(UM062X) =  -78.2168812680     A.U. after    9 cycles
 SCF Done:  E(UM062X) =  -78.2323847112     A.U. after    8 cycles
 SCF Done:  E(UM062X) =  -78.2327385129     A.U. after    8 cycles
 SCF Done:  E(UM062X) =  -78.2327399682     A.U. after    7 cycles
 Optimization completed.
    -- Stationary point found.

                          Input orientation:
 ---------------------------------------------------------------------
 Center     Atomic      Atomic             Coordinates (Angstroms)
 Number     Number       Type             X           Y           Z
 ---------------------------------------------------------------------
      1          6           0       -1.935595    0.000000    0.000000
      2          6           0        1.935595    0.000000    0.000000
      3          1           0       -2.642327   -0.858105    0.000000
      4          1           0       -2.642294    0.858134    0.000000
      5          1           0        2.642327    0.858105   -0.000000
      6          1           0        2.642294   -0.858134   -0.000000
 ---------------------------------------------------------------------

 Alpha  occ. eigenvalues --  -10.59387 -10.59387  -0.74401  -0.74348  -0.46094
 Alpha  occ. eigenvalues --   -0.46045  -0.30819  -0.28843
 Alpha virt. eigenvalues --   -0.07219  -0.06690   0.02526   0.03246   0.06628
 Alpha virt. eigenvalues --    0.08622   0.08726   0.10418   0.12412   0.15459
 Alpha virt. eigenvalues --    0.17549   0.19948   0.20849   0.22092   0.45541

  Beta  occ. eigenvalues --  -10.59387 -10.59387  -0.74401  -0.74348  -0.46094
  Beta  occ. eigenvalues --   -0.46045  -0.30819  -0.28843
  Beta virt. eigenvalues --   -0.07219  -0.06690   0.02526   0.03246   0.06628
  Beta virt. eigenvalues --    0.08622   0.08726   0.10418   0.12412   0.15459
  Beta virt. eigenvalues --    0.17549   0.19948   0.20849   0.22092   0.45541

 Mulliken charges and spin densities:
               1          2
     1  C   -0.237964   0.000000
     2  C   -0.237964   0.000000
     3  H    0.118982   0.000000
     4  H    0.118982  -0.000000
     5  H    0.118982  -0.000000
     6  H    0.118982   0.000000
 Sum of Mulliken charges =  -0.00000   0.00000

 Dipole moment (field-independent basis, Debye):
    X=              0.0000    Y=              0.0000    Z=             -0.0000  Tot=              0.0000
 Quadrupole moment (field-independent basis, Debye-Ang):
   XX=             -3.8608   YY=            -14.6742   ZZ=            -12.9414
   XY=             -0.0001   XZ=             -0.0000   YZ=             -0.0000

 Normal termination of Gaussian 16 at Tue Dec  3 11:17:23 2024.
