 Gaussian 16, Revision A.03,
 Gaussian 16:  ES64L-G16RevA.03 25-Dec-2016

 -------------------------------------------------------------------
 #p opt UM062X/6-311+G** nosymm int=superfine SCF=NoVarAcc SCF=tight
 -------------------------------------------------------------------

 -------------------
 Title Card Required
 -------------------
 Symbolic Z-matrix:
 Charge =  1 Multiplicity = 2

 SCF Done:  E(UM062X) =  -77.8886755633     A.U. after   11 cycles
 SCF Done:  E(UM062X) =  -77.8926712335     A.U. after   10 cycles
 SCF Done:  E(UM062X) =  -77.8954790929     A.U. after   10 cycles
 SCF Done:  E(UM062X) =  -77.8954834965     A.U. after    9 cycles
 Optimization completed.
    -- Stationary point found.

                          Input orientation:
 ---------------------------------------------------------------------
 Center     Atomic      Atomic             Coordinates (Angstroms)
 Number     Number       Type             X           Y           Z
 ---------------------------------------------------------------------
      1          6           0       -5.606027    0.000000    0.000000
      2          6           0        5.606027    0.000000    0.000000
      3          1           0       -6.169192   -0.941340    0.000000
      4          1           0       -6.169126    0.941378    0.000000
      5          1           0        6.169192    0.941340   -0.000000
      6          1           0        6.169126   -0.941378   -0.000000
 ---------------------------------------------------------------------

 Alpha  occ. eigenvalues --  -10.85091 -10.85091  -0.96696  -0.96696  -0.71327
 Alpha  occ. eigenvalues --   -0.71327  -0.54099  -0.54099
 Alpha virt. eigenvalues --   -0.28375  -0.28375  -0.09191  -0.09190  -0.04894
 Alpha virt. eigenvalues --   -0.04889  -0.03103  -0.03098  -0.03054  -0.02953
 Alpha virt. eigenvalues --    0.03198   0.03199   0.03859   0.03864   0.30223

  Beta  occ. eigenvalues --  -10.84364 -10.84364  -0.94568  -0.94561  -0.70327
  Beta  occ. eigenvalues --   -0.70327  -0.39808
  Beta virt. eigenvalues --   -0.37122  -0.26784  -0.26782  -0.09492  -0.09489
  Beta virt. eigenvalues --   -0.05409  -0.05402  -0.03594  -0.03588  -0.03344
  Beta virt. eigenvalues --   -0.03237   0.03254   0.03255   0.04338   0.04348

 Mulliken charges and spin densities:
               1          2
     1  C    0.040863   0.486188
     2  C    0.040863   0.486188
     3  H    0.229569   0.006906
     4  H    0.229569   0.006906
     5  H    0.229569   0.006906
     6  H    0.229569   0.006906
 Sum of Mulliken charges =   1.00000   1.00000

 Dipole moment (field-independent basis, Debye):
    X=             -0.0000    Y=              0.0000    Z=              0.0000  Tot=              0.0000
 Quadrupole moment (field-independent basis, Debye-Ang):
   XX=            175.3493   YY=             -9.5102   ZZ=            -10.6552
   XY=             -0.0005   XZ=             -0.0000   YZ=             -0.0000

 Normal termination of Gaussian 16 at Tue Dec  3 15:42:19 2024.
