 Gaussian 16, Revision A.03,
 Gaussian 16:  ES64L-G16RevA.03 25-Dec-2016

 --------------------------------------------
 #p opt UM062X/6-311+G** nosymm int=superfine
 --------------------------------------------

 -------------------
 Title Card Required
 -------------------
 Symbolic Z-matrix:
 Charge =  0 Multiplicity = 1

 SCF Done:  E(UM062X) =  -78.2552314192     A.U. after    8 cycles
 SCF Done:  E(UM062X) =  -78.2556212020     A.U. after    8 cycles
 SCF Done:  E(UM062X) =  -78.2558013215     A.U. after    9 cycles
 Optimization completed.
    -- Stationary point found.

                          Input orientation:
 ---------------------------------------------------------------------
 Center     Atomic      Atomic             Coordinates (Angstroms)
 Number     Number       Type             X           Y           Z
 ---------------------------------------------------------------------
      1          6           0       -1.235595    0.000000    0.000000
      2          6           0        1.235595    0.000000    0.000000
      3          1           0       -1.650454   -0.994432   -0.000000
      4          1           0       -1.650451    0.994433   -0.000000
      5          1           0        1.650454    0.994432   -0.000000
      6          1           0        1.650451   -0.994433   -0.000000
 ---------------------------------------------------------------------

 Alpha  occ. eigenvalues --  -10.62668 -10.62661  -0.76121  -0.73364  -0.53467
 Alpha  occ. eigenvalues --   -0.52226  -0.32622  -0.24069
 Alpha virt. eigenvalues --   -0.09908  -0.04838   0.03376   0.05314   0.05653
 Alpha virt. eigenvalues --    0.07034   0.09394   0.10175   0.11170   0.14498
 Alpha virt. eigenvalues --    0.16284   0.19086   0.21494   0.27296   0.39293

  Beta  occ. eigenvalues --  -10.62668 -10.62661  -0.76121  -0.73364  -0.53467
  Beta  occ. eigenvalues --   -0.52226  -0.32622  -0.24069
  Beta virt. eigenvalues --   -0.09908  -0.04838   0.03376   0.05314   0.05653
  Beta virt. eigenvalues --    0.07034   0.09394   0.10175   0.11170   0.14498
  Beta virt. eigenvalues --    0.16284   0.19086   0.21494   0.27296   0.39293

 Mulliken charges and spin densities:
               1          2
     1  C   -0.380054   0.000000
     2  C   -0.380054  -0.000000
     3  H    0.190027  -0.000000
     4  H    0.190027   0.000000
     5  H    0.190027  -0.000000
     6  H    0.190027   0.000000
 Sum of Mulliken charges =  -0.00000  -0.00000

 Dipole moment (field-independent basis, Debye):
    X=             -0.0000    Y=              0.0000    Z=             -0.0000  Tot=              0.0000
 Quadrupole moment (field-independent basis, Debye-Ang):
   XX=            -10.3490   YY=            -11.9141   ZZ=            -18.8713
   XY=              0.0000   XZ=              0.0000   YZ=             -0.0000

 Normal termination of Gaussian 16 at Tue Dec  3 11:06:06 2024.
