 Gaussian 16, Revision A.03,
 Gaussian 16:  ES64L-G16RevA.03 25-Dec-2016

 --------------------------------------------
 #p opt UM062X/6-311+G** nosymm int=superfine
 --------------------------------------------

 -------------------
 Title Card Required
 -------------------
 Symbolic Z-matrix:
 Charge =  1 Multiplicity = 2

 SCF Done:  E(UM062X) =  -76.8693263393     A.U. after   19 cycles
 SCF Done:  E(UM062X) =  -76.8805057765     A.U. after    9 cycles
 SCF Done:  E(UM062X) =  -76.8805252180     A.U. after    7 cycles
 Optimization completed.
    -- Stationary point found.

                          Input orientation:
 ---------------------------------------------------------------------
 Center     Atomic      Atomic             Coordinates (Angstroms)
 Number     Number       Type             X           Y           Z
 ---------------------------------------------------------------------
      1          6           0       -0.571635    0.000000    0.000000
      2          6           0        0.571635    0.000000    0.000000
      3          1           0       -1.649755    0.000000   -0.000000
      4          1           0        1.649755    0.000000   -0.000000
 ---------------------------------------------------------------------

 Alpha  occ. eigenvalues --  -10.92489 -10.92046  -1.26618  -0.96426  -0.90337
 Alpha  occ. eigenvalues --   -0.76067  -0.73104
 Alpha virt. eigenvalues --   -0.24526  -0.22567  -0.14620  -0.14582  -0.11744
 Alpha virt. eigenvalues --   -0.10710  -0.10445  -0.04564  -0.04431  -0.03918
 Alpha virt. eigenvalues --    0.02342   0.04535   0.17910   0.17917   0.28021

  Beta  occ. eigenvalues --  -10.92217 -10.91806  -1.21493  -0.94869  -0.89715
  Beta  occ. eigenvalues --   -0.70525
  Beta virt. eigenvalues --   -0.48153  -0.21092  -0.18879  -0.15641  -0.13998
  Beta virt. eigenvalues --   -0.11784  -0.10949  -0.10605  -0.03997  -0.03637
  Beta virt. eigenvalues --   -0.02867   0.02289   0.04843   0.18377   0.18671

 Mulliken charges and spin densities:
               1          2
     1  C    0.207764   0.519473
     2  C    0.207765   0.519473
     3  H    0.292235  -0.019473
     4  H    0.292235  -0.019473
 Sum of Mulliken charges =   1.00000   1.00000

 Dipole moment (field-independent basis, Debye):
    X=              0.0000    Y=              0.0000    Z=             -0.0000  Tot=              0.0000
 Quadrupole moment (field-independent basis, Debye-Ang):
   XX=             -1.1822   YY=            -11.0063   ZZ=             -9.3585
   XY=              0.0000   XZ=             -0.0000   YZ=              0.2355

 Normal termination of Gaussian 16 at Tue Nov 19 12:59:26 2024.
