 Gaussian 16, Revision A.03,
 Gaussian 16:  ES64L-G16RevA.03 25-Dec-2016

 ---------------------------------------------------------
 #p opt UM062X/6-311+G** nosymm int=superfine SCF=NoVarAcc
 ---------------------------------------------------------

 -------------------
 Title Card Required
 -------------------
 Symbolic Z-matrix:
 Charge =  1 Multiplicity = 2

 SCF Done:  E(UM062X) =  -77.9009787294     A.U. after   10 cycles
 SCF Done:  E(UM062X) =  -77.9049071239     A.U. after    9 cycles
 SCF Done:  E(UM062X) =  -77.9074638855     A.U. after   10 cycles
 SCF Done:  E(UM062X) =  -77.9074672502     A.U. after    7 cycles
 Optimization completed.
    -- Stationary point found.

                          Input orientation:
 ---------------------------------------------------------------------
 Center     Atomic      Atomic             Coordinates (Angstroms)
 Number     Number       Type             X           Y           Z
 ---------------------------------------------------------------------
      1          6           0       -2.006027    0.000000    0.000000
      2          6           0        2.006027    0.000000    0.000000
      3          1           0       -2.564400   -0.942742    0.000000
      4          1           0       -2.564343    0.942775    0.000000
      5          1           0        2.564400    0.942742    0.000000
      6          1           0        2.564343   -0.942775    0.000000
 ---------------------------------------------------------------------

 Alpha  occ. eigenvalues --  -10.88443 -10.88443  -0.99755  -0.99700  -0.74441
 Alpha  occ. eigenvalues --   -0.74411  -0.57989  -0.56740
 Alpha virt. eigenvalues --   -0.31667  -0.31351  -0.12638  -0.10819  -0.08995
 Alpha virt. eigenvalues --   -0.07069  -0.06365  -0.05659  -0.04177  -0.01469
 Alpha virt. eigenvalues --   -0.00312   0.00368   0.02276   0.05440   0.27388

  Beta  occ. eigenvalues --  -10.87649 -10.87648  -0.97573  -0.97399  -0.73411
  Beta  occ. eigenvalues --   -0.73371  -0.46633
  Beta virt. eigenvalues --   -0.36227  -0.29849  -0.29436  -0.12413  -0.10935
  Beta virt. eigenvalues --   -0.08823  -0.06872  -0.06471  -0.04449  -0.03897
  Beta virt. eigenvalues --   -0.01237   0.00410   0.00743   0.02378   0.06176

 Mulliken charges and spin densities:
               1          2
     1  C    0.023231   0.486295
     2  C    0.023231   0.486295
     3  H    0.238385   0.006852
     4  H    0.238384   0.006852
     5  H    0.238385   0.006853
     6  H    0.238384   0.006852
 Sum of Mulliken charges =   1.00000   1.00000

 Dipole moment (field-independent basis, Debye):
    X=              0.0000    Y=              0.0000    Z=              0.0000  Tot=              0.0000
 Quadrupole moment (field-independent basis, Debye-Ang):
   XX=             20.3119   YY=             -9.4368   ZZ=            -10.7383
   XY=             -0.0001   XZ=             -0.0000   YZ=             -0.0000

 Normal termination of Gaussian 16 at Tue Dec  3 13:33:38 2024.
