 Gaussian 16, Revision A.03,
 Gaussian 16:  ES64L-G16RevA.03 25-Dec-2016

 --------------------------------------------
 #p opt UM062X/6-311+G** nosymm int=superfine
 --------------------------------------------

 -------------------
 Title Card Required
 -------------------
 Symbolic Z-matrix:
 Charge =  0 Multiplicity = 1

 SCF Done:  E(UM062X) =  -382.233530086     A.U. after   15 cycles
 SCF Done:  E(UM062X) =  -382.244099783     A.U. after   11 cycles
 SCF Done:  E(UM062X) =  -382.250520818     A.U. after   13 cycles
 SCF Done:  E(UM062X) =  -382.250635698     A.U. after   10 cycles
 SCF Done:  E(UM062X) =  -382.250694108     A.U. after   11 cycles
 SCF Done:  E(UM062X) =  -382.250746684     A.U. after   12 cycles
 SCF Done:  E(UM062X) =  -382.250763603     A.U. after   12 cycles
 SCF Done:  E(UM062X) =  -382.250765930     A.U. after    9 cycles
 SCF Done:  E(UM062X) =  -382.250766733     A.U. after   13 cycles
 SCF Done:  E(UM062X) =  -382.250767968     A.U. after    9 cycles
 SCF Done:  E(UM062X) =  -382.250768616     A.U. after   10 cycles
 SCF Done:  E(UM062X) =  -382.250768811     A.U. after    8 cycles
 Optimization completed.
    -- Stationary point found.

                          Input orientation:
 ---------------------------------------------------------------------
 Center     Atomic      Atomic             Coordinates (Angstroms)
 Number     Number       Type             X           Y           Z
 ---------------------------------------------------------------------
      1          6           0       -2.056264    0.000000    0.000000
      2         15           0        2.056264    0.000000    0.000000
      3          1           0        1.980442   -1.417316    0.024679
      4          1           0       -2.087433    1.053950    0.234709
      5          1           0        1.980194    0.074773    1.415516
      6          1           0       -2.087442   -0.321635   -1.030753
      7          1           0       -2.121459   -0.730108    0.793627
 ---------------------------------------------------------------------

 Alpha  occ. eigenvalues --  -78.03084 -10.59744  -6.85492  -4.97017  -4.96940
 Alpha  occ. eigenvalues --   -4.96758  -0.79066  -0.69379  -0.51249  -0.51204
 Alpha  occ. eigenvalues --   -0.43543  -0.34639  -0.23313
 Alpha virt. eigenvalues --   -0.13209   0.02139   0.03810   0.03979   0.04513
 Alpha virt. eigenvalues --    0.06197   0.06689   0.07240   0.07313   0.11195
 Alpha virt. eigenvalues --    0.16798   0.18099   0.18155   0.22754   0.30451

  Beta  occ. eigenvalues --  -78.03084 -10.59744  -6.85492  -4.97017  -4.96940
  Beta  occ. eigenvalues --   -4.96758  -0.79066  -0.69379  -0.51249  -0.51204
  Beta  occ. eigenvalues --   -0.43543  -0.34639  -0.23313
  Beta virt. eigenvalues --   -0.13209   0.02139   0.03810   0.03979   0.04513
  Beta virt. eigenvalues --    0.06197   0.06689   0.07240   0.07313   0.11195
  Beta virt. eigenvalues --    0.16798   0.18099   0.18155   0.22754   0.30451

 Mulliken charges and spin densities:
               1          2
     1  C   -0.496045  -0.000004
     2  P   -0.049426   0.000003
     3  H   -0.005472  -0.000000
     4  H    0.186250   0.000000
     5  H   -0.005473  -0.000000
     6  H    0.186223   0.000000
     7  H    0.183944   0.000000
 Sum of Mulliken charges =  -0.00000   0.00000

 Dipole moment (field-independent basis, Debye):
    X=             -1.6717    Y=             -0.5760    Z=              0.6179  Tot=              1.8731
 Quadrupole moment (field-independent basis, Debye-Ang):
   XX=            -22.3725   YY=            -22.4309   ZZ=            -22.5299
   XY=             -1.3016   XZ=              1.3957   YZ=              0.7037

 Normal termination of Gaussian 16 at Mon Apr 21 19:09:55 2025.
