 Gaussian 16, Revision A.03,
 Gaussian 16:  ES64L-G16RevA.03 25-Dec-2016

 ---------------------------------------
 #p UM062X/6-311+G** force int=superfine
 ---------------------------------------

 -------------------
 Title Card Required
 -------------------
 Symbolic Z-matrix:
 Charge =  1 Multiplicity = 2

                         Standard orientation:
 ---------------------------------------------------------------------
 Center     Atomic      Atomic             Coordinates (Angstroms)
 Number     Number       Type             X           Y           Z
 ---------------------------------------------------------------------
      1          6           0        0.569966   -0.665645    1.249952
      2          6           0       -0.569960    0.665654   -1.249948
      3          1           0        0.322544    0.457305   -1.829054
      4          1           0        0.677190   -1.622257    0.751221
      5          1           0       -0.677680    1.622504   -0.751780
      6          1           0       -1.410275   -0.018124   -1.290573
      7          1           0       -0.322452   -0.457148    1.829138
      8          1           0        1.410637    0.017667    1.291021
 ---------------------------------------------------------------------

 SCF Done:  E(UM062X) =  -79.3384619047     A.U. after   10 cycles

 The electronic state is 2-A.
 Alpha  occ. eigenvalues --  -10.85034 -10.85031  -1.04075  -1.02583  -0.74730
 Alpha  occ. eigenvalues --   -0.74729  -0.74012  -0.74012  -0.52559
 Alpha virt. eigenvalues --   -0.35418  -0.14067  -0.10282  -0.10282  -0.10155
 Alpha virt. eigenvalues --   -0.06230  -0.06230  -0.05305  -0.03252  -0.02157
 Alpha virt. eigenvalues --   -0.02155   0.01342   0.01344   0.04954   0.07645

  Beta  occ. eigenvalues --  -10.84836 -10.84836  -1.01193  -1.00183  -0.74181
  Beta  occ. eigenvalues --   -0.74181  -0.73506  -0.73506
  Beta virt. eigenvalues --   -0.32652  -0.25539  -0.15431  -0.11130  -0.11130
  Beta virt. eigenvalues --   -0.09945  -0.06433  -0.06433  -0.05473  -0.02405
  Beta virt. eigenvalues --   -0.02403  -0.02385   0.01656   0.01658   0.05897

 Mulliken charges and spin densities:
               1          2
     1  C   -0.272552   0.567795
     2  C   -0.272553   0.567796
     3  H    0.257544  -0.022595
     4  H    0.257492  -0.022597
     5  H    0.257519  -0.022598
     6  H    0.257489  -0.022603
     7  H    0.257545  -0.022595
     8  H    0.257515  -0.022603
 Sum of Mulliken charges =   1.00000   1.00000

 Dipole moment (field-independent basis, Debye):
    X=             -0.0000    Y=             -0.0001    Z=             -0.0000  Tot=              0.0001
 Quadrupole moment (field-independent basis, Debye-Ang):
   XX=             -9.4858   YY=             -8.9221   ZZ=             -3.5908
   XY=             -1.8058   XZ=              3.3914   YZ=             -3.9618

 Normal termination of Gaussian 16 at Wed Nov 13 12:58:27 2024.
