 Gaussian 16, Revision A.03,
 Gaussian 16:  ES64L-G16RevA.03 25-Dec-2016

 ----------------------------------------------------------------------
 #p opt UM062X/6-311+G** nosymm int=superfine SCF=(MaxCycle=200,NoVarAc
 c,noincfock) guess=read
 ----------------------------------------------------------------------

 -------------------
 Title Card Required
 -------------------
 Symbolic Z-matrix:
 Charge =  1 Multiplicity = 2

 SCF Done:  E(UM062X) =  -80.1677375852     A.U. after   64 cycles
 SCF Done:  E(UM062X) =  -80.1681555243     A.U. after   81 cycles
 SCF Done:  E(UM062X) =  -80.1831279732     A.U. after   22 cycles
 SCF Done:  E(UM062X) =  -80.1850179617     A.U. after   18 cycles
 SCF Done:  E(UM062X) =  -80.2156633889     A.U. after   16 cycles
 SCF Done:  E(UM062X) =  -80.2183252931     A.U. after   17 cycles
 SCF Done:  E(UM062X) =  -80.2073910108     A.U. after   16 cycles
 SCF Done:  E(UM062X) =  -80.2235666779     A.U. after   14 cycles
 SCF Done:  E(UM062X) =  -80.2269949121     A.U. after   15 cycles
 SCF Done:  E(UM062X) =  -80.2326527974     A.U. after   17 cycles
 SCF Done:  E(UM062X) =  -80.2313817225     A.U. after   17 cycles
 SCF Done:  E(UM062X) =  -80.2346002065     A.U. after   17 cycles
 SCF Done:  E(UM062X) =  -80.2329469971     A.U. after   16 cycles
 SCF Done:  E(UM062X) =  -80.2348421479     A.U. after   16 cycles
 SCF Done:  E(UM062X) =  -80.2349618939     A.U. after   15 cycles
 SCF Done:  E(UM062X) =  -80.2349621844     A.U. after   13 cycles
 Optimization completed.
    -- Stationary point found.

                          Input orientation:
 ---------------------------------------------------------------------
 Center     Atomic      Atomic             Coordinates (Angstroms)
 Number     Number       Type             X           Y           Z
 ---------------------------------------------------------------------
      1          5           0       -1.027734    0.000000    0.000000
      2          7           0        1.027734    0.000000    0.000000
      3          1           0       -2.192536   -0.183307    0.153634
      4          1           0        1.187721    0.790352   -0.661953
 ---------------------------------------------------------------------

 Alpha  occ. eigenvalues --  -15.10496  -7.51498  -1.19834  -0.86169  -0.74634
 Alpha  occ. eigenvalues --   -0.66914  -0.66356
 Alpha virt. eigenvalues --   -0.32985  -0.32022  -0.29330  -0.15074  -0.12084
 Alpha virt. eigenvalues --   -0.10047  -0.09499  -0.05570  -0.02033  -0.01209
 Alpha virt. eigenvalues --    0.00113   0.03090   0.06579   0.16234   0.16975

  Beta  occ. eigenvalues --  -15.09079  -7.51817  -1.11877  -0.86913  -0.72150
  Beta  occ. eigenvalues --   -0.63358
  Beta virt. eigenvalues --   -0.36274  -0.33763  -0.28055  -0.26891  -0.15071
  Beta virt. eigenvalues --   -0.12059  -0.09741  -0.09738  -0.05912  -0.02136
  Beta virt. eigenvalues --   -0.01191   0.00303   0.02547   0.03838   0.16316

 Mulliken charges and spin densities:
               1          2
     1  B    0.525182  -0.219839
     2  N    0.011858   1.303175
     3  H    0.194954  -0.036837
     4  H    0.268006  -0.046498
 Sum of Mulliken charges =   1.00000   1.00000

 Dipole moment (field-independent basis, Debye):
    X=             -3.8521    Y=              1.1946    Z=             -1.0005  Tot=              4.1553
 Quadrupole moment (field-independent basis, Debye-Ang):
   XX=             -1.9400   YY=             -9.4443   ZZ=             -9.6379
   XY=              2.0716   XZ=             -1.7351   YZ=             -0.5432

 Normal termination of Gaussian 16 at Mon Apr 21 23:23:03 2025.
