 Gaussian 16, Revision A.03,
 Gaussian 16:  ES64L-G16RevA.03 25-Dec-2016

 --------------------------------------------
 #p opt UM062X/6-311+G** nosymm int=superfine
 --------------------------------------------

 -------------------
 Title Card Required
 -------------------
 Symbolic Z-matrix:
 Charge =  0 Multiplicity = 1

 SCF Done:  E(UM062X) =  -79.2446441195     A.U. after   10 cycles
 SCF Done:  E(UM062X) =  -79.3014732832     A.U. after    8 cycles
 SCF Done:  E(UM062X) =  -79.3457213205     A.U. after    9 cycles
 SCF Done:  E(UM062X) =  -79.3467150857     A.U. after    8 cycles
 SCF Done:  E(UM062X) =  -79.3467237778     A.U. after    7 cycles
 Optimization completed.
    -- Stationary point found.

                          Input orientation:
 ---------------------------------------------------------------------
 Center     Atomic      Atomic             Coordinates (Angstroms)
 Number     Number       Type             X           Y           Z
 ---------------------------------------------------------------------
      1          6           0       -0.488670    0.000000    0.000000
      2          6           0        0.488720    0.000000    0.000000
      3          1           0        1.031132   -0.846290    0.489704
      4          1           0       -1.031066   -0.847290   -0.488034
      5          1           0        1.031116    0.847291    0.488029
      6          1           0        1.031122   -0.000915   -0.977787
      7          1           0       -1.031082    0.846287   -0.489709
      8          1           0       -1.031072    0.000912    0.977786
 ---------------------------------------------------------------------

 Alpha  occ. eigenvalues --  -10.50551 -10.48951  -0.99365  -0.66762  -0.58568
 Alpha  occ. eigenvalues --   -0.58567  -0.54734  -0.31961  -0.31960
 Alpha virt. eigenvalues --    0.01891   0.04006   0.04006   0.04103   0.08537
 Alpha virt. eigenvalues --    0.09058   0.09058   0.14269   0.16965   0.16965
 Alpha virt. eigenvalues --    0.20876   0.20877   0.23712   0.27447   0.41310

  Beta  occ. eigenvalues --  -10.50551 -10.48951  -0.99365  -0.66762  -0.58568
  Beta  occ. eigenvalues --   -0.58567  -0.54734  -0.31961  -0.31960
  Beta virt. eigenvalues --    0.01891   0.04006   0.04006   0.04103   0.08537
  Beta virt. eigenvalues --    0.09058   0.09058   0.14269   0.16965   0.16965
  Beta virt. eigenvalues --    0.20876   0.20877   0.23712   0.27447   0.41310

 Mulliken charges and spin densities:
               1          2
     1  C   -0.405331  -0.000000
     2  C   -0.405331   0.000000
     3  H    0.135113  -0.000000
     4  H    0.135108   0.000000
     5  H    0.135108  -0.000000
     6  H    0.135110  -0.000000
     7  H    0.135113   0.000000
     8  H    0.135110   0.000000
 Sum of Mulliken charges =  -0.00000  -0.00000

 Dipole moment (field-independent basis, Debye):
    X=              0.0000    Y=             -0.0000    Z=             -0.0000  Tot=              0.0000
 Quadrupole moment (field-independent basis, Debye-Ang):
   XX=            -15.7221   YY=            -14.9569   ZZ=            -14.9571
   XY=             -0.0001   XZ=             -0.0000   YZ=             -0.0002

 Normal termination of Gaussian 16 at Tue Nov 19 11:35:41 2024.
