 Gaussian 16, Revision A.03,
 Gaussian 16:  ES64L-G16RevA.03 25-Dec-2016

 --------------------------------------------
 #p opt UM062X/6-311+G** nosymm int=superfine
 --------------------------------------------

 -------------------
 Title Card Required
 -------------------
 Symbolic Z-matrix:
 Charge =  1 Multiplicity = 2

 SCF Done:  E(UM062X) =  -80.1530030111     A.U. after   18 cycles
 SCF Done:  E(UM062X) =  -80.1538787569     A.U. after   17 cycles
 SCF Done:  E(UM062X) =  -80.1538817500     A.U. after   15 cycles
 Optimization completed.
    -- Stationary point found.

                          Input orientation:
 ---------------------------------------------------------------------
 Center     Atomic      Atomic             Coordinates (Angstroms)
 Number     Number       Type             X           Y           Z
 ---------------------------------------------------------------------
      1          5           0       -2.052734    0.000000    0.000000
      2          7           0        2.052734    0.000000    0.000000
      3          1           0       -3.259289   -0.000273   -0.000000
      4          1           0        3.088375   -0.000005   -0.000000
 ---------------------------------------------------------------------

 Alpha  occ. eigenvalues --  -14.93974  -7.54179  -1.07174  -0.86516  -0.60956
 Alpha  occ. eigenvalues --   -0.53579  -0.53579
 Alpha virt. eigenvalues --   -0.45979  -0.35264  -0.35264  -0.16405  -0.12228
 Alpha virt. eigenvalues --   -0.09948  -0.09948  -0.09684  -0.03767   0.02057
 Alpha virt. eigenvalues --    0.02057   0.03477   0.07777   0.12285   0.12597

  Beta  occ. eigenvalues --  -14.91482  -7.55409  -0.94314  -0.90173  -0.68662
  Beta  occ. eigenvalues --   -0.55244
  Beta virt. eigenvalues --   -0.36297  -0.36297  -0.18434  -0.18434  -0.14777
  Beta virt. eigenvalues --   -0.10697  -0.09907  -0.09907  -0.06959  -0.03234
  Beta virt. eigenvalues --    0.04095   0.04095   0.06404   0.08727   0.15818

 Mulliken charges and spin densities:
               1          2
     1  B    0.766360  -0.850851
     2  N   -0.240420   2.059427
     3  H    0.221989  -0.142290
     4  H    0.252071  -0.066285
 Sum of Mulliken charges =   1.00000   1.00000

 Dipole moment (field-independent basis, Debye):
    X=             -8.4829    Y=             -0.0002    Z=             -0.0000  Tot=              8.4829
 Quadrupole moment (field-independent basis, Debye-Ang):
   XX=             22.9520   YY=            -10.2754   ZZ=            -10.2754
   XY=              0.0005   XZ=             -0.0000   YZ=             -0.0000

 Normal termination of Gaussian 16 at Mon Apr 21 18:00:10 2025.
