 Gaussian 16, Revision A.03,
 Gaussian 16:  ES64L-G16RevA.03 25-Dec-2016

 ----------------------------------------------------------------------
 #p opt UM062X/6-311+G** nosymm int=superfine SCF=(MaxCycle=200,NoVarAc
 c,noincfock) guess=read
 ----------------------------------------------------------------------

 -------------------
 Title Card Required
 -------------------
 Symbolic Z-matrix:
 Charge = -1 Multiplicity = 2

 SCF Done:  E(UM062X) =  -51.8721767800     A.U. after   22 cycles
 SCF Done:  E(UM062X) =  -51.8800663645     A.U. after   21 cycles
 SCF Done:  E(UM062X) =  -51.8829661593     A.U. after   18 cycles
 SCF Done:  E(UM062X) =  -51.8839454858     A.U. after   17 cycles
 SCF Done:  E(UM062X) =  -51.8840584121     A.U. after   16 cycles
 SCF Done:  E(UM062X) =  -51.8841106023     A.U. after   16 cycles
 SCF Done:  E(UM062X) =  -51.8841215445     A.U. after   16 cycles
 SCF Done:  E(UM062X) =  -51.8841298522     A.U. after   16 cycles
 SCF Done:  E(UM062X) =  -51.8841447405     A.U. after   15 cycles
 SCF Done:  E(UM062X) =  -51.8841677313     A.U. after   16 cycles
 SCF Done:  E(UM062X) =  -51.8842241355     A.U. after   16 cycles
 SCF Done:  E(UM062X) =  -51.8838392206     A.U. after   17 cycles
 SCF Done:  E(UM062X) =  -51.8842799672     A.U. after   14 cycles
 SCF Done:  E(UM062X) =  -51.8842840129     A.U. after   14 cycles
 SCF Done:  E(UM062X) =  -51.8842857610     A.U. after   14 cycles
 SCF Done:  E(UM062X) =  -51.8842860240     A.U. after   13 cycles
 SCF Done:  E(UM062X) =  -51.8842860777     A.U. after   12 cycles
 SCF Done:  E(UM062X) =  -51.8842861190     A.U. after   11 cycles
 Optimization completed.
    -- Stationary point found.

                          Input orientation:
 ---------------------------------------------------------------------
 Center     Atomic      Atomic             Coordinates (Angstroms)
 Number     Number       Type             X           Y           Z
 ---------------------------------------------------------------------
      1          5           0       -1.647274    0.000000    0.000000
      2          5           0        1.647274    0.000000    0.000000
      3          1           0       -2.056202   -1.038438    0.443149
      4          1           0        1.749405    1.075339    0.509221
      5          1           0       -2.056812    1.041499    0.435336
      6          1           0        1.751373   -1.073969    0.511713
 ---------------------------------------------------------------------

 Alpha  occ. eigenvalues --   -6.87274  -6.85769  -0.37256  -0.35904  -0.22747
 Alpha  occ. eigenvalues --   -0.22085  -0.04507  -0.00910
 Alpha virt. eigenvalues --    0.11387   0.14117   0.16070   0.17154   0.19049
 Alpha virt. eigenvalues --    0.20204   0.21288   0.22303   0.22528   0.24018
 Alpha virt. eigenvalues --    0.33421   0.33506   0.35873   0.36434   0.48491

  Beta  occ. eigenvalues --   -6.87763  -6.85115  -0.37325  -0.32851  -0.22911
  Beta  occ. eigenvalues --   -0.21502  -0.04641
  Beta virt. eigenvalues --    0.09993   0.12614   0.13698   0.14743   0.16340
  Beta virt. eigenvalues --    0.18224   0.20112   0.21446   0.22961   0.23898
  Beta virt. eigenvalues --    0.26773   0.32822   0.33116   0.35277   0.35751

 Mulliken charges and spin densities:
               1          2
     1  B   -0.390939  -0.460909
     2  B   -0.437904   1.525952
     3  H   -0.049387  -0.005608
     4  H   -0.036151  -0.026897
     5  H   -0.049427  -0.005637
     6  H   -0.036191  -0.026900
 Sum of Mulliken charges =  -1.00000   1.00000

 Dipole moment (field-independent basis, Debye):
    X=             -1.0469    Y=              0.0026    Z=              1.0176  Tot=              1.4600
 Quadrupole moment (field-independent basis, Debye-Ang):
   XX=            -35.7660   YY=            -22.9959   ZZ=            -24.8742
   XY=              0.0029   XZ=              1.6561   YZ=             -0.0029

 Normal termination of Gaussian 16 at Mon Apr 21 21:20:59 2025.
