 Gaussian 16, Revision A.03,
 Gaussian 16:  ES64L-G16RevA.03 25-Dec-2016

 --------------------------------------------
 #p opt UM062X/6-311+G** nosymm int=superfine
 --------------------------------------------

 -------------------
 Title Card Required
 -------------------
 Symbolic Z-matrix:
 Charge =  0 Multiplicity = 1

 SCF Done:  E(UM062X) =  -438.465290725     A.U. after   15 cycles
 SCF Done:  E(UM062X) =  -438.479059415     A.U. after   13 cycles
 SCF Done:  E(UM062X) =  -438.486509716     A.U. after   13 cycles
 SCF Done:  E(UM062X) =  -438.486580670     A.U. after   10 cycles
 SCF Done:  E(UM062X) =  -438.486591023     A.U. after   11 cycles
 SCF Done:  E(UM062X) =  -438.486637043     A.U. after   10 cycles
 SCF Done:  E(UM062X) =  -438.486640342     A.U. after   10 cycles
 SCF Done:  E(UM062X) =  -438.486640761     A.U. after    9 cycles
 Optimization completed.
    -- Stationary point found.

                          Input orientation:
 ---------------------------------------------------------------------
 Center     Atomic      Atomic             Coordinates (Angstroms)
 Number     Number       Type             X           Y           Z
 ---------------------------------------------------------------------
      1          6           0       -2.210220    0.000000    0.000000
      2         16           0        2.210220    0.000000    0.000000
      3          1           0        2.179723   -1.344276   -0.000950
      4          1           0       -2.167578    1.080255    0.002675
      5          1           0       -2.248112   -0.535948   -0.938126
      6          1           0       -2.248345   -0.540584    0.935452
 ---------------------------------------------------------------------

 Alpha  occ. eigenvalues --  -89.87330 -10.65170  -8.23659  -6.15697  -6.15642
 Alpha  occ. eigenvalues --   -6.15088  -0.83680  -0.75275  -0.55745  -0.55673
 Alpha  occ. eigenvalues --   -0.41824  -0.27763  -0.25712
 Alpha virt. eigenvalues --   -0.17412   0.00802   0.03587   0.03863   0.05475
 Alpha virt. eigenvalues --    0.07453   0.08312   0.08410   0.10654   0.13261
 Alpha virt. eigenvalues --    0.15298   0.15355   0.19923   0.34977   0.36933

  Beta  occ. eigenvalues --  -89.87330 -10.65170  -8.23659  -6.15697  -6.15642
  Beta  occ. eigenvalues --   -6.15088  -0.83680  -0.75275  -0.55745  -0.55673
  Beta  occ. eigenvalues --   -0.41824  -0.27763  -0.25712
  Beta virt. eigenvalues --   -0.17412   0.00802   0.03587   0.03863   0.05475
  Beta virt. eigenvalues --    0.07453   0.08312   0.08410   0.10654   0.13261
  Beta virt. eigenvalues --    0.15298   0.15355   0.19923   0.34977   0.36933

 Mulliken charges and spin densities:
               1          2
     1  C   -0.363092   0.000002
     2  S   -0.298359  -0.000002
     3  H    0.050177   0.000000
     4  H    0.205836  -0.000000
     5  H    0.202725  -0.000000
     6  H    0.202712  -0.000000
 Sum of Mulliken charges =  -0.00000   0.00000

 Dipole moment (field-independent basis, Debye):
    X=             -5.6232    Y=             -0.9571    Z=             -0.0007  Tot=              5.7041
 Quadrupole moment (field-independent basis, Debye-Ang):
   XX=            -21.0971   YY=            -19.6245   ZZ=            -23.6733
   XY=             -2.1318   XZ=             -0.0016   YZ=              0.0029

 Normal termination of Gaussian 16 at Mon Apr 21 19:34:37 2025.
