 Gaussian 16, Revision A.03,
 Gaussian 16:  ES64L-G16RevA.03 25-Dec-2016

 ---------------------------------------
 #p UM062X/6-311+G** force int=superfine
 ---------------------------------------

 -------------------
 Title Card Required
 -------------------
 Symbolic Z-matrix:
 Charge =  0 Multiplicity = 1

                         Standard orientation:
 ---------------------------------------------------------------------
 Center     Atomic      Atomic             Coordinates (Angstroms)
 Number     Number       Type             X           Y           Z
 ---------------------------------------------------------------------
      1          6           0        0.717771    0.000002   -0.000001
      2          6           0       -0.717771   -0.000003    0.000001
      3          1           0       -1.133733   -0.923418    0.413372
      4          1           0        1.133726   -0.103708    1.006392
      5          1           0       -1.133726    0.103710   -1.006392
      6          1           0       -1.133750    0.819707    0.593001
      7          1           0        1.133733    0.923419   -0.413370
      8          1           0        1.133752   -0.819707   -0.593000
 ---------------------------------------------------------------------

 SCF Done:  E(UM062X) =  -79.7922060879     A.U. after    8 cycles

 The electronic state is 1-A.
 Alpha  occ. eigenvalues --  -10.51580 -10.51522  -0.86741  -0.69496  -0.50992
 Alpha  occ. eigenvalues --   -0.50991  -0.44785  -0.39233  -0.39232
 Alpha virt. eigenvalues --    0.02162   0.04158   0.05375   0.05375   0.08826
 Alpha virt. eigenvalues --    0.08826   0.08840   0.14041   0.18950   0.18950
 Alpha virt. eigenvalues --    0.20726   0.20726   0.24111   0.27780   0.31994

  Beta  occ. eigenvalues --  -10.51580 -10.51522  -0.86741  -0.69496  -0.50992
  Beta  occ. eigenvalues --   -0.50991  -0.44785  -0.39233  -0.39232
  Beta virt. eigenvalues --    0.02162   0.04158   0.05375   0.05375   0.08826
  Beta virt. eigenvalues --    0.08826   0.08840   0.14041   0.18950   0.18950
  Beta virt. eigenvalues --    0.20726   0.20726   0.24111   0.27780   0.31994

 Mulliken charges and spin densities:
               1          2
     1  C   -0.461020  -0.000000
     2  C   -0.461020   0.000000
     3  H    0.153674   0.000000
     4  H    0.153672  -0.000000
     5  H    0.153672   0.000000
     6  H    0.153674   0.000000
     7  H    0.153674   0.000000
     8  H    0.153674   0.000000
 Sum of Mulliken charges =  -0.00000  -0.00000

 Dipole moment (field-independent basis, Debye):
    X=             -0.0000    Y=              0.0000    Z=              0.0000  Tot=              0.0000
 Quadrupole moment (field-independent basis, Debye-Ang):
   XX=            -15.6321   YY=            -14.9682   ZZ=            -14.9683
   XY=             -0.0000   XZ=             -0.0000   YZ=             -0.0000

 Normal termination of Gaussian 16 at Tue Nov 19 12:42:15 2024.
