 Gaussian 16, Revision A.03,
 Gaussian 16:  ES64L-G16RevA.03 25-Dec-2016

 --------------------------------------------
 #p opt UM062X/6-311+G** nosymm int=superfine
 --------------------------------------------

 -------------------
 Title Card Required
 -------------------
 Symbolic Z-matrix:
 Charge =  0 Multiplicity = 1

 SCF Done:  E(UM062X) =  -579.901228049     A.U. after    9 cycles
 SCF Done:  E(UM062X) =  -579.905841590     A.U. after    9 cycles
 SCF Done:  E(UM062X) =  -579.905883270     A.U. after    9 cycles
 SCF Done:  E(UM062X) =  -579.905883316     A.U. after    7 cycles
 SCF Done:  E(UM062X) =  -579.922208971     A.U. after   13 cycles
 SCF Done:  E(UM062X) =  -579.948641991     A.U. after   12 cycles
 SCF Done:  E(UM062X) =  -579.979950554     A.U. after   11 cycles
 SCF Done:  E(UM062X) =  -579.981863082     A.U. after   10 cycles
 SCF Done:  E(UM062X) =  -579.981875204     A.U. after    8 cycles
 SCF Done:  E(UM062X) =  -579.981875787     A.U. after    7 cycles
 Optimization completed.
    -- Stationary point found.

                          Input orientation:
 ---------------------------------------------------------------------
 Center     Atomic      Atomic             Coordinates (Angstroms)
 Number     Number       Type             X           Y           Z
 ---------------------------------------------------------------------
      1         14           0       -1.478705    0.000000    0.000000
      2         14           0        1.478705    0.000000    0.000000
      3          1           0       -1.513373    1.519556   -0.000000
      4          1           0        1.513525    1.519552   -0.000000
 ---------------------------------------------------------------------

 Alpha  occ. eigenvalues --  -67.02770 -67.02770  -5.57236  -5.57236  -3.88417
 Alpha  occ. eigenvalues --   -3.88416  -3.87900  -3.87897  -3.87786  -3.87785
 Alpha  occ. eigenvalues --   -0.56539  -0.52002  -0.34463  -0.29890  -0.23009
 Alpha virt. eigenvalues --   -0.10597  -0.05872  -0.01451   0.02318   0.03750
 Alpha virt. eigenvalues --    0.04188   0.05197   0.05501   0.06254   0.06637
 Alpha virt. eigenvalues --    0.07988   0.10075   0.12698   0.28184   0.30001

  Beta  occ. eigenvalues --  -67.02770 -67.02770  -5.57236  -5.57236  -3.88417
  Beta  occ. eigenvalues --   -3.88416  -3.87900  -3.87897  -3.87786  -3.87785
  Beta  occ. eigenvalues --   -0.56539  -0.52002  -0.34463  -0.29890  -0.23009
  Beta virt. eigenvalues --   -0.10597  -0.05872  -0.01451   0.02318   0.03750
  Beta virt. eigenvalues --    0.04188   0.05197   0.05501   0.06254   0.06637
  Beta virt. eigenvalues --    0.07988   0.10075   0.12698   0.28184   0.30001

 Mulliken charges and spin densities:
               1          2
     1  Si   0.153185  -0.000000
     2  Si   0.153168  -0.000000
     3  H   -0.153177  -0.000000
     4  H   -0.153176  -0.000000
 Sum of Mulliken charges =   0.00000  -0.00000

 Dipole moment (field-independent basis, Debye):
    X=             -0.0001    Y=              0.5004    Z=             -0.0000  Tot=              0.5004
 Quadrupole moment (field-independent basis, Debye-Ang):
   XX=            -34.7599   YY=            -33.1546   ZZ=            -23.1537
   XY=              0.0002   XZ=             -0.0000   YZ=              0.0000

 Normal termination of Gaussian 16 at Mon Apr 21 21:25:50 2025.
