 Gaussian 16, Revision A.03,
 Gaussian 16:  ES64L-G16RevA.03 25-Dec-2016

 --------------------------------------------
 #p opt UM062X/6-311+G** nosymm int=superfine
 --------------------------------------------

 -------------------
 Title Card Required
 -------------------
 Symbolic Z-matrix:
 Charge =  1 Multiplicity = 2

 SCF Done:  E(UM062X) =  -78.0903634034     A.U. after    9 cycles
 SCF Done:  E(UM062X) =  -78.1065887813     A.U. after    8 cycles
 SCF Done:  E(UM062X) =  -78.1087034107     A.U. after    8 cycles
 SCF Done:  E(UM062X) =  -78.1087086252     A.U. after    6 cycles
 Optimization completed.
    -- Stationary point found.

                          Input orientation:
 ---------------------------------------------------------------------
 Center     Atomic      Atomic             Coordinates (Angstroms)
 Number     Number       Type             X           Y           Z
 ---------------------------------------------------------------------
      1          6           0       -0.586720    0.000000    0.000000
      2          6           0        0.586720    0.000000    0.000000
      3          1           0       -1.186888   -0.910774   -0.000000
      4          1           0       -1.186881    0.910797   -0.000000
      5          1           0        1.186888    0.910774    0.000000
      6          1           0        1.186881   -0.910797    0.000000
 ---------------------------------------------------------------------

 Alpha  occ. eigenvalues --  -10.87925 -10.87585  -1.27262  -0.96535  -0.88510
 Alpha  occ. eigenvalues --   -0.84143  -0.74085  -0.69192
 Alpha virt. eigenvalues --   -0.24416  -0.14897  -0.14080  -0.12469  -0.10641
 Alpha virt. eigenvalues --   -0.08083  -0.06491  -0.04985  -0.04115  -0.03380
 Alpha virt. eigenvalues --    0.00017   0.03300   0.12125   0.15251   0.20933

  Beta  occ. eigenvalues --  -10.87656 -10.87330  -1.22587  -0.94698  -0.87019
  Beta  occ. eigenvalues --   -0.83216  -0.68948
  Beta virt. eigenvalues --   -0.46710  -0.18578  -0.16460  -0.13881  -0.12422
  Beta virt. eigenvalues --   -0.11337  -0.09051  -0.06529  -0.04739  -0.03041
  Beta virt. eigenvalues --   -0.02744  -0.00225   0.03506   0.12579   0.15600

 Mulliken charges and spin densities:
               1          2
     1  C   -0.041102   0.536123
     2  C   -0.041102   0.536123
     3  H    0.270551  -0.018061
     4  H    0.270551  -0.018062
     5  H    0.270551  -0.018061
     6  H    0.270551  -0.018062
 Sum of Mulliken charges =   1.00000   1.00000

 Dipole moment (field-independent basis, Debye):
    X=              0.0000    Y=             -0.0000    Z=              0.0000  Tot=              0.0000
 Quadrupole moment (field-independent basis, Debye-Ang):
   XX=             -6.4302   YY=             -8.5217   ZZ=            -10.9361
   XY=             -0.0000   XZ=              0.0000   YZ=              0.0000

 Normal termination of Gaussian 16 at Tue Nov 19 10:54:03 2024.
