 Gaussian 16, Revision A.03,
 Gaussian 16:  ES64L-G16RevA.03 25-Dec-2016

 ---------------------------------------------------------
 #p opt UM062X/6-311+G** nosymm int=superfine SCF=NoVarAcc
 ---------------------------------------------------------

 -------------------
 Title Card Required
 -------------------
 Symbolic Z-matrix:
 Charge =  0 Multiplicity = 1

 SCF Done:  E(UM062X) =  -76.8214787921     A.U. after   12 cycles
 SCF Done:  E(UM062X) =  -76.8214856952     A.U. after    8 cycles
 Optimization completed.
    -- Stationary point found.

                          Input orientation:
 ---------------------------------------------------------------------
 Center     Atomic      Atomic             Coordinates (Angstroms)
 Number     Number       Type             X           Y           Z
 ---------------------------------------------------------------------
      1          6           0       -3.932625    0.000000    0.000000
      2          6           0        3.932625    0.000000    0.000000
      3          1           0       -5.053063   -0.000008    0.000008
      4          1           0        5.053063    0.000006   -0.000006
 ---------------------------------------------------------------------

 Alpha  occ. eigenvalues --  -10.66565 -10.66565  -0.72357  -0.72347  -0.38517
 Alpha  occ. eigenvalues --   -0.38508  -0.19779
 Alpha virt. eigenvalues --   -0.16199  -0.09555  -0.09548   0.03362   0.03472
 Alpha virt. eigenvalues --    0.06686   0.08038   0.08464   0.08868   0.09300
 Alpha virt. eigenvalues --    0.10537   0.17369   0.17692   0.45107   0.46206

  Beta  occ. eigenvalues --  -10.66565 -10.66565  -0.72357  -0.72347  -0.38517
  Beta  occ. eigenvalues --   -0.38508  -0.19779
  Beta virt. eigenvalues --   -0.16199  -0.09555  -0.09548   0.03362   0.03472
  Beta virt. eigenvalues --    0.06686   0.08038   0.08464   0.08868   0.09300
  Beta virt. eigenvalues --    0.10537   0.17369   0.17692   0.45107   0.46206

 Mulliken charges and spin densities:
               1          2
     1  C   -0.128398  -0.000000
     2  C   -0.128398   0.000000
     3  H    0.128398  -0.000000
     4  H    0.128398   0.000000
 Sum of Mulliken charges =  -0.00000  -0.00000

 Dipole moment (field-independent basis, Debye):
    X=              0.0000    Y=             -0.0000    Z=              0.0000  Tot=              0.0000
 Quadrupole moment (field-independent basis, Debye-Ang):
   XX=             11.1402   YY=            -14.5918   ZZ=            -14.5931
   XY=              0.0001   XZ=             -0.0001   YZ=             -2.7053

 Normal termination of Gaussian 16 at Tue Dec  3 20:20:47 2024.
