 Gaussian 16, Revision A.03,
 Gaussian 16:  ES64L-G16RevA.03 25-Dec-2016

 ---------------------------------------
 #p UM062X/6-311+G** force int=superfine
 ---------------------------------------

 -------------------
 Title Card Required
 -------------------
 Symbolic Z-matrix:
 Charge =  1 Multiplicity = 2

                         Standard orientation:
 ---------------------------------------------------------------------
 Center     Atomic      Atomic             Coordinates (Angstroms)
 Number     Number       Type             X           Y           Z
 ---------------------------------------------------------------------
      1          6           0        0.000000   -0.000000    0.733184
      2          6           0       -0.000000    0.000000   -0.733184
      3          1           0        0.000000   -0.000000    1.821274
      4          1           0        0.000000    0.000000   -1.821271
 ---------------------------------------------------------------------

 SCF Done:  E(UM062X) =  -76.8422743717     A.U. after   10 cycles

 Unable to determine electronic state:  an orbital has unidentified symmetry.
 Alpha  occ. eigenvalues --  -10.97637 -10.97567  -1.15479  -0.98361  -0.87383
 Alpha  occ. eigenvalues --   -0.67517  -0.65185
 Alpha virt. eigenvalues --   -0.32552  -0.30535  -0.19902  -0.14341  -0.11090
 Alpha virt. eigenvalues --   -0.09660  -0.09626  -0.09380  -0.05154  -0.04793
 Alpha virt. eigenvalues --    0.02016   0.04295   0.10997   0.20692   0.31021

  Beta  occ. eigenvalues --  -10.97399 -10.97346  -1.11143  -0.96693  -0.86774
  Beta  occ. eigenvalues --   -0.62944
  Beta virt. eigenvalues --   -0.43133  -0.28841  -0.25131  -0.18066  -0.15473
  Beta virt. eigenvalues --   -0.11372  -0.09948  -0.09730  -0.09697  -0.04887
  Beta virt. eigenvalues --   -0.04463   0.01424   0.04444   0.11542   0.21600

 Mulliken charges and spin densities:
               1          2
     1  C    0.159863   0.520313
     2  C    0.159862   0.520313
     3  H    0.340138  -0.020313
     4  H    0.340137  -0.020313
 Sum of Mulliken charges =   1.00000   1.00000

 Dipole moment (field-independent basis, Debye):
    X=              0.0000    Y=             -0.0000    Z=              0.0000  Tot=              0.0000
 Quadrupole moment (field-independent basis, Debye-Ang):
   XX=            -12.1594   YY=            -10.1933   ZZ=              1.1876
   XY=             -0.0000   XZ=              0.0000   YZ=             -0.0000

 Normal termination of Gaussian 16 at Tue Nov 19 13:33:47 2024.
