 Gaussian 16, Revision A.03,
 Gaussian 16:  ES64L-G16RevA.03 25-Dec-2016

 --------------------------------------------
 #p opt UM062X/6-311+G** nosymm int=superfine
 --------------------------------------------

 -------------------
 Title Card Required
 -------------------
 Symbolic Z-matrix:
 Charge =  0 Multiplicity = 2

 SCF Done:  E(UM062X) =  -291.203911613     A.U. after   11 cycles
 SCF Done:  E(UM062X) =  -291.204334540     A.U. after   10 cycles
 SCF Done:  E(UM062X) =  -291.204340680     A.U. after    8 cycles
 Optimization completed.
    -- Stationary point found.

                          Input orientation:
 ---------------------------------------------------------------------
 Center     Atomic      Atomic             Coordinates (Angstroms)
 Number     Number       Type             X           Y           Z
 ---------------------------------------------------------------------
      1         14           0        1.213530    0.000133    0.000245
      2          1           0        1.667269   -1.407705   -0.000390
      3          1           0        1.667370    0.703609   -1.219206
      4          1           0        1.667072    0.703999    1.219519
 ---------------------------------------------------------------------

 Alpha  occ. eigenvalues --  -67.00193  -5.55137  -3.86864  -3.86117  -3.86117
 Alpha  occ. eigenvalues --   -0.61418  -0.41428  -0.41418  -0.26396
 Alpha virt. eigenvalues --    0.03333   0.03834   0.03835   0.05014   0.07711
 Alpha virt. eigenvalues --    0.07719   0.11490   0.29324   0.29326   0.31010
 Alpha virt. eigenvalues --    0.37840   0.40662   0.40675   0.48648   0.56813

  Beta  occ. eigenvalues --  -66.99624  -5.54813  -3.85908  -3.85908  -3.85464
  Beta  occ. eigenvalues --   -0.58485  -0.40775  -0.40766
  Beta virt. eigenvalues --   -0.08859   0.01460   0.03807   0.03809   0.08203
  Beta virt. eigenvalues --    0.08208   0.08220   0.12191   0.28160   0.28482
  Beta virt. eigenvalues --    0.28484   0.38662   0.40298   0.40313   0.47623

 Mulliken charges and spin densities:
               1          2
     1  Si   0.299559   1.015369
     2  H   -0.099858  -0.005141
     3  H   -0.099863  -0.005137
     4  H   -0.099838  -0.005090
 Sum of Mulliken charges =  -0.00000   1.00000

 Dipole moment (field-independent basis, Debye):
    X=             -0.1696    Y=              0.0004    Z=              0.0010  Tot=              0.1696
 Quadrupole moment (field-independent basis, Debye-Ang):
   XX=            -16.5974   YY=            -15.9590   ZZ=            -15.9586
   XY=              0.0007   XZ=              0.0015   YZ=              0.0004

 Normal termination of Gaussian 16 at Wed Apr 16 08:54:30 2025.
