 Gaussian 16, Revision A.03,
 Gaussian 16:  ES64L-G16RevA.03 25-Dec-2016

 ---------------------------------------
 #p UM062X/6-311+G** force int=superfine
 ---------------------------------------

 -------------------
 Title Card Required
 -------------------
 Symbolic Z-matrix:
 Charge =  0 Multiplicity = 1

                         Standard orientation:
 ---------------------------------------------------------------------
 Center     Atomic      Atomic             Coordinates (Angstroms)
 Number     Number       Type             X           Y           Z
 ---------------------------------------------------------------------
      1          6           0       -0.000000    0.424238    0.000000
      2          6           0       -0.000000   -0.424238    0.000000
      3          1           0        0.863121    1.116777    0.000000
      4          1           0       -0.863100    1.116785    0.000000
      5          1           0       -0.863121   -1.116777    0.000000
      6          1           0        0.863100   -1.116785    0.000000
 ---------------------------------------------------------------------

 SCF Done:  E(UM062X) =  -77.8522285247     A.U. after   10 cycles

 The electronic state is 1-AG.
 Alpha  occ. eigenvalues --  -10.50989 -10.45999  -0.95175  -0.61309  -0.61148
 Alpha  occ. eigenvalues --   -0.53642  -0.47669  -0.30859
 Alpha virt. eigenvalues --    0.03122   0.03660   0.04245   0.06174   0.07816
 Alpha virt. eigenvalues --    0.09134   0.09855   0.16044   0.16246   0.18586
 Alpha virt. eigenvalues --    0.22924   0.25290   0.35904   0.42188   0.43045

  Beta  occ. eigenvalues --  -10.50989 -10.45999  -0.95175  -0.61309  -0.61148
  Beta  occ. eigenvalues --   -0.53642  -0.47669  -0.30859
  Beta virt. eigenvalues --    0.03122   0.03660   0.04245   0.06174   0.07816
  Beta virt. eigenvalues --    0.09134   0.09855   0.16044   0.16246   0.18586
  Beta virt. eigenvalues --    0.22924   0.25290   0.35904   0.42188   0.43045

 Mulliken charges and spin densities:
               1          2
     1  C   -0.245161   0.000000
     2  C   -0.245161   0.000000
     3  H    0.122579  -0.000000
     4  H    0.122582  -0.000000
     5  H    0.122579  -0.000000
     6  H    0.122582  -0.000000
 Sum of Mulliken charges =  -0.00000   0.00000

 Dipole moment (field-independent basis, Debye):
    X=             -0.0000    Y=              0.0000    Z=              0.0000  Tot=              0.0000
 Quadrupole moment (field-independent basis, Debye-Ang):
   XX=            -12.4849   YY=            -12.6214   ZZ=            -13.5907
   XY=             -0.0001   XZ=             -0.0000   YZ=             -0.0000

 Normal termination of Gaussian 16 at Tue Nov 19 11:40:14 2024.
