 Gaussian 16, Revision A.03,
 Gaussian 16:  ES64L-G16RevA.03 25-Dec-2016

 --------------------------------------------
 #p opt UM062X/6-311+G** nosymm int=superfine
 --------------------------------------------

 -------------------
 Title Card Required
 -------------------
 Symbolic Z-matrix:
 Charge = -1 Multiplicity = 2

 SCF Done:  E(UM062X) =  -51.9106391084     A.U. after   11 cycles
 SCF Done:  E(UM062X) =  -51.9141810417     A.U. after   10 cycles
 SCF Done:  E(UM062X) =  -51.9156943484     A.U. after   11 cycles
 SCF Done:  E(UM062X) =  -51.9157075701     A.U. after   11 cycles
 SCF Done:  E(UM062X) =  -51.9156921043     A.U. after   11 cycles
 SCF Done:  E(UM062X) =  -51.9156986442     A.U. after   12 cycles
 SCF Done:  E(UM062X) =  -51.9157070707     A.U. after    9 cycles
 Optimization completed.
    -- Stationary point found.

                          Input orientation:
 ---------------------------------------------------------------------
 Center     Atomic      Atomic             Coordinates (Angstroms)
 Number     Number       Type             X           Y           Z
 ---------------------------------------------------------------------
      1          5           0       -1.372274    0.000000    0.000000
      2          5           0        1.372274    0.000000    0.000000
      3          1           0       -1.921028   -1.061239    0.001495
      4          1           0        1.921028    1.061239    0.000984
      5          1           0       -1.921029    1.061239    0.001051
      6          1           0        1.921029   -1.061239    0.001561
 ---------------------------------------------------------------------

 Alpha  occ. eigenvalues --   -6.87246  -6.87241  -0.37423  -0.35607  -0.22651
 Alpha  occ. eigenvalues --   -0.21714  -0.04922   0.01350
 Alpha virt. eigenvalues --    0.13705   0.15338   0.16633   0.19002   0.19209
 Alpha virt. eigenvalues --    0.22476   0.22525   0.23055   0.24140   0.25969
 Alpha virt. eigenvalues --    0.32760   0.34598   0.35283   0.41930   0.49681

  Beta  occ. eigenvalues --   -6.87214  -6.87211  -0.35805  -0.34337  -0.22523
  Beta  occ. eigenvalues --   -0.21673  -0.03720
  Beta virt. eigenvalues --    0.10795   0.13778   0.14065   0.14387   0.16164
  Beta virt. eigenvalues --    0.17613   0.19204   0.19362   0.21973   0.25097
  Beta virt. eigenvalues --    0.25253   0.31818   0.34103   0.34701   0.41678

 Mulliken charges and spin densities:
               1          2
     1  B   -0.413288   0.545525
     2  B   -0.413288   0.545525
     3  H   -0.043356  -0.022763
     4  H   -0.043356  -0.022763
     5  H   -0.043356  -0.022763
     6  H   -0.043356  -0.022763
 Sum of Mulliken charges =  -1.00000   1.00000

 Dipole moment (field-independent basis, Debye):
    X=             -0.0000    Y=              0.0000    Z=              0.0017  Tot=              0.0017
 Quadrupole moment (field-independent basis, Debye-Ang):
   XX=            -31.8183   YY=            -23.4728   ZZ=            -25.5884
   XY=             -0.0000   XZ=              0.0000   YZ=             -0.0005

 Normal termination of Gaussian 16 at Mon Apr 21 17:23:13 2025.
