 Gaussian 16, Revision A.03,
 Gaussian 16:  ES64L-G16RevA.03 25-Dec-2016

 --------------------------------------------
 #p opt UM062X/6-311+G** nosymm int=superfine
 --------------------------------------------

 -------------------
 Title Card Required
 -------------------
 Symbolic Z-matrix:
 Charge = -1 Multiplicity = 2

 SCF Done:  E(UM062X) =  -51.8992803769     A.U. after   11 cycles
 SCF Done:  E(UM062X) =  -51.9032157781     A.U. after   10 cycles
 SCF Done:  E(UM062X) =  -51.9049719404     A.U. after   11 cycles
 SCF Done:  E(UM062X) =  -51.9049882892     A.U. after   11 cycles
 SCF Done:  E(UM062X) =  -51.9049791770     A.U. after   11 cycles
 SCF Done:  E(UM062X) =  -51.9049789595     A.U. after   12 cycles
 SCF Done:  E(UM062X) =  -51.9049874916     A.U. after   11 cycles
 SCF Done:  E(UM062X) =  -51.9049883617     A.U. after    9 cycles
 Optimization completed.
    -- Stationary point found.

                          Input orientation:
 ---------------------------------------------------------------------
 Center     Atomic      Atomic             Coordinates (Angstroms)
 Number     Number       Type             X           Y           Z
 ---------------------------------------------------------------------
      1          5           0       -1.422274    0.000000    0.000000
      2          5           0        1.422274    0.000000    0.000000
      3          1           0       -1.962936   -1.064041    0.000099
      4          1           0        1.962936    1.064041   -0.000414
      5          1           0       -1.962937    1.064041   -0.000344
      6          1           0        1.962937   -1.064041    0.000169
 ---------------------------------------------------------------------

 Alpha  occ. eigenvalues --   -6.87685  -6.87680  -0.37583  -0.35996  -0.22974
 Alpha  occ. eigenvalues --   -0.22189  -0.04515   0.01398
 Alpha virt. eigenvalues --    0.13209   0.15164   0.16567   0.18897   0.19176
 Alpha virt. eigenvalues --    0.21851   0.22445   0.22484   0.23985   0.25851
 Alpha virt. eigenvalues --    0.32620   0.34433   0.34905   0.41705   0.49501

  Beta  occ. eigenvalues --   -6.87651  -6.87648  -0.35984  -0.34712  -0.22861
  Beta  occ. eigenvalues --   -0.22149  -0.03283
  Beta virt. eigenvalues --    0.10759   0.13733   0.13759   0.14229   0.16117
  Beta virt. eigenvalues --    0.17477   0.19026   0.19391   0.21812   0.24063
  Beta virt. eigenvalues --    0.24690   0.31693   0.33732   0.34532   0.41420

 Mulliken charges and spin densities:
               1          2
     1  B   -0.417387   0.545752
     2  B   -0.417386   0.545752
     3  H   -0.041307  -0.022876
     4  H   -0.041307  -0.022876
     5  H   -0.041307  -0.022876
     6  H   -0.041307  -0.022876
 Sum of Mulliken charges =  -1.00000   1.00000

 Dipole moment (field-independent basis, Debye):
    X=              0.0000    Y=             -0.0000    Z=             -0.0002  Tot=              0.0002
 Quadrupole moment (field-independent basis, Debye-Ang):
   XX=            -32.1695   YY=            -23.5123   ZZ=            -25.7951
   XY=             -0.0000   XZ=             -0.0000   YZ=             -0.0006

 Normal termination of Gaussian 16 at Mon Apr 21 17:22:04 2025.
