 Gaussian 16, Revision A.03,
 Gaussian 16:  ES64L-G16RevA.03 25-Dec-2016

 --------------------------------------------
 #p opt UM062X/6-311+G** nosymm int=superfine
 --------------------------------------------

 -------------------
 Title Card Required
 -------------------
 Symbolic Z-matrix:
 Charge =  0 Multiplicity = 1

 SCF Done:  E(UM062X) =  -797.477245253     A.U. after   13 cycles
 SCF Done:  E(UM062X) =  -797.478772680     A.U. after   12 cycles
 SCF Done:  E(UM062X) =  -797.479333407     A.U. after   12 cycles
 SCF Done:  E(UM062X) =  -797.479375011     A.U. after   11 cycles
 SCF Done:  E(UM062X) =  -797.479378119     A.U. after   10 cycles
 SCF Done:  E(UM062X) =  -797.479378144     A.U. after   10 cycles
 SCF Done:  E(UM062X) =  -797.479378150     A.U. after    9 cycles
 Optimization completed.
    -- Stationary point found.

                          Input orientation:
 ---------------------------------------------------------------------
 Center     Atomic      Atomic             Coordinates (Angstroms)
 Number     Number       Type             X           Y           Z
 ---------------------------------------------------------------------
      1         16           0       -1.468191    0.000000    0.000000
      2         16           0        1.468191    0.000000    0.000000
      3          1           0       -1.434240   -1.342571   -0.078544
      4          1           0        1.434153    0.113200    1.339949
 ---------------------------------------------------------------------

 Alpha  occ. eigenvalues --  -89.94586 -89.94586  -8.30727  -8.30726  -6.22885
 Alpha  occ. eigenvalues --   -6.22885  -6.22620  -6.22620  -6.22072  -6.22071
 Alpha  occ. eigenvalues --   -0.82843  -0.79898  -0.47470  -0.47238  -0.36171
 Alpha  occ. eigenvalues --   -0.33419  -0.33048
 Alpha virt. eigenvalues --   -0.15517   0.01904   0.03234   0.04726   0.05044
 Alpha virt. eigenvalues --    0.06200   0.07369   0.07407   0.07544   0.11615
 Alpha virt. eigenvalues --    0.13251   0.30542   0.31037   0.32217   0.35712

  Beta  occ. eigenvalues --  -89.94586 -89.94586  -8.30727  -8.30726  -6.22885
  Beta  occ. eigenvalues --   -6.22885  -6.22620  -6.22620  -6.22072  -6.22071
  Beta  occ. eigenvalues --   -0.82843  -0.79898  -0.47470  -0.47238  -0.36171
  Beta  occ. eigenvalues --   -0.33419  -0.33048
  Beta virt. eigenvalues --   -0.15517   0.01904   0.03234   0.04726   0.05044
  Beta virt. eigenvalues --    0.06200   0.07369   0.07407   0.07544   0.11615
  Beta virt. eigenvalues --    0.13251   0.30542   0.31037   0.32217   0.35712

 Mulliken charges and spin densities:
               1          2
     1  S   -0.088865   0.000000
     2  S   -0.088891  -0.000000
     3  H    0.088889  -0.000000
     4  H    0.088867   0.000000
 Sum of Mulliken charges =  -0.00000   0.00000

 Dipole moment (field-independent basis, Debye):
    X=             -0.0004    Y=             -0.9769    Z=              1.0025  Tot=              1.3998
 Quadrupole moment (field-independent basis, Debye-Ang):
   XX=            -25.5233   YY=            -27.8872   ZZ=            -27.9178
   XY=              1.9865   XZ=              1.9358   YZ=              0.5882

 Normal termination of Gaussian 16 at Mon Apr 21 21:15:39 2025.
