 Gaussian 16, Revision A.03,
 Gaussian 16:  ES64L-G16RevA.03 25-Dec-2016

 --------------------------------------------
 #p opt UM062X/6-311+G** nosymm int=superfine
 --------------------------------------------

 -------------------
 Title Card Required
 -------------------
 Symbolic Z-matrix:
 Charge =  1 Multiplicity = 2

 SCF Done:  E(UM062X) =  -79.3502213714     A.U. after   10 cycles
 SCF Done:  E(UM062X) =  -79.3640768684     A.U. after   10 cycles
 SCF Done:  E(UM062X) =  -79.3645021799     A.U. after   10 cycles
 SCF Done:  E(UM062X) =  -79.3645054967     A.U. after    9 cycles
 Optimization completed.
    -- Stationary point found.

                          Input orientation:
 ---------------------------------------------------------------------
 Center     Atomic      Atomic             Coordinates (Angstroms)
 Number     Number       Type             X           Y           Z
 ---------------------------------------------------------------------
      1          6           0       -0.884537    0.000000    0.000000
      2          6           0        0.884537    0.000000    0.000000
      3          1           0        1.066542   -0.928538    0.537272
      4          1           0       -1.065187   -0.929865   -0.535524
      5          1           0        1.065221    0.929835    0.535565
      6          1           0        1.065189   -0.000966   -1.073048
      7          1           0       -1.066546    0.928509   -0.537322
      8          1           0       -1.065221    0.001019    1.073042
 ---------------------------------------------------------------------

 Alpha  occ. eigenvalues --  -10.86180 -10.86162  -1.14615  -1.00385  -0.80752
 Alpha  occ. eigenvalues --   -0.80744  -0.72627  -0.72625  -0.67878
 Alpha virt. eigenvalues --   -0.16975  -0.16511  -0.11620  -0.11619  -0.09194
 Alpha virt. eigenvalues --   -0.07800  -0.06737  -0.06730  -0.05867  -0.05865
 Alpha virt. eigenvalues --   -0.01047   0.01182   0.01191   0.03619   0.07717

  Beta  occ. eigenvalues --  -10.85940 -10.85939  -1.11123  -0.96803  -0.79546
  Beta  occ. eigenvalues --   -0.79540  -0.71613  -0.71611
  Beta virt. eigenvalues --   -0.44102  -0.16374  -0.14127  -0.11389  -0.11388
  Beta virt. eigenvalues --   -0.08129  -0.06798  -0.06795  -0.05484  -0.05478
  Beta virt. eigenvalues --   -0.05419   0.00422   0.01940   0.01949   0.04227

 Mulliken charges and spin densities:
               1          2
     1  C   -0.328832   0.521437
     2  C   -0.328832   0.521437
     3  H    0.276254  -0.007331
     4  H    0.276289  -0.007053
     5  H    0.276290  -0.007054
     6  H    0.276289  -0.007052
     7  H    0.276254  -0.007331
     8  H    0.276290  -0.007054
 Sum of Mulliken charges =   1.00000   1.00000

 Dipole moment (field-independent basis, Debye):
    X=             -0.0000    Y=             -0.0000    Z=             -0.0000  Tot=              0.0000
 Quadrupole moment (field-independent basis, Debye-Ang):
   XX=             -7.4326   YY=            -10.6372   ZZ=            -10.6361
   XY=              0.0006   XZ=             -0.0004   YZ=              0.0011

 Normal termination of Gaussian 16 at Wed Nov 13 13:32:07 2024.
