 Gaussian 16, Revision A.03,
 Gaussian 16:  ES64L-G16RevA.03 25-Dec-2016

 -------------------------------------------------------------------
 #p opt UM062X/6-311+G** nosymm int=superfine SCF=NoVarAcc SCF=tight
 -------------------------------------------------------------------

 -------------------
 Title Card Required
 -------------------
 Symbolic Z-matrix:
 Charge =  1 Multiplicity = 2

 SCF Done:  E(UM062X) =  -77.8892908665     A.U. after   12 cycles
 SCF Done:  E(UM062X) =  -77.8932471442     A.U. after   10 cycles
 SCF Done:  E(UM062X) =  -77.8960479954     A.U. after   10 cycles
 SCF Done:  E(UM062X) =  -77.8960524386     A.U. after    8 cycles
 Optimization completed.
    -- Stationary point found.

                          Input orientation:
 ---------------------------------------------------------------------
 Center     Atomic      Atomic             Coordinates (Angstroms)
 Number     Number       Type             X           Y           Z
 ---------------------------------------------------------------------
      1          6           0       -7.606027    0.000000    0.000000
      2          6           0        7.606027    0.000000    0.000000
      3          1           0       -8.168982   -0.941472    0.000000
      4          1           0       -8.168916    0.941510    0.000000
      5          1           0        8.168982    0.941472    0.000000
      6          1           0        8.168916   -0.941510    0.000000
 ---------------------------------------------------------------------

 Alpha  occ. eigenvalues --  -10.84553 -10.84553  -0.96168  -0.96168  -0.70804
 Alpha  occ. eigenvalues --   -0.70804  -0.53539  -0.53539
 Alpha virt. eigenvalues --   -0.27837  -0.27837  -0.08710  -0.08710  -0.04365
 Alpha virt. eigenvalues --   -0.04365  -0.02576  -0.02576  -0.02373  -0.02373
 Alpha virt. eigenvalues --    0.03689   0.03689   0.04394   0.04394   0.30783

  Beta  occ. eigenvalues --  -10.83826 -10.83826  -0.94041  -0.94038  -0.69804
  Beta  occ. eigenvalues --   -0.69804  -0.38879
  Beta virt. eigenvalues --   -0.36929  -0.26248  -0.26248  -0.09011  -0.09010
  Beta virt. eigenvalues --   -0.04872  -0.04872  -0.03064  -0.03064  -0.02671
  Beta virt. eigenvalues --   -0.02670   0.03746   0.03746   0.04870   0.04872

 Mulliken charges and spin densities:
               1          2
     1  C    0.042490   0.486255
     2  C    0.042490   0.486255
     3  H    0.228755   0.006873
     4  H    0.228755   0.006873
     5  H    0.228755   0.006873
     6  H    0.228755   0.006873
 Sum of Mulliken charges =   1.00000   1.00000

 Dipole moment (field-independent basis, Debye):
    X=              0.0000    Y=             -0.0000    Z=              0.0000  Tot=              0.0000
 Quadrupole moment (field-independent basis, Debye-Ang):
   XX=            315.6659   YY=             -9.5131   ZZ=            -10.6518
   XY=             -0.0007   XZ=              0.0000   YZ=              0.0000

 Normal termination of Gaussian 16 at Tue Dec  3 15:48:13 2024.
