 Gaussian 16, Revision A.03,
 Gaussian 16:  ES64L-G16RevA.03 25-Dec-2016

 --------------------------------------------
 #p opt UM062X/6-311+G** nosymm int=superfine
 --------------------------------------------

 -------------------
 Title Card Required
 -------------------
 Symbolic Z-matrix:
 Charge =  1 Multiplicity = 2

 SCF Done:  E(UM062X) =  -582.141335307     A.U. after   11 cycles
 SCF Done:  E(UM062X) =  -582.142018254     A.U. after    9 cycles
 SCF Done:  E(UM062X) =  -582.142164427     A.U. after    9 cycles
 Optimization completed.
    -- Stationary point found.

                          Input orientation:
 ---------------------------------------------------------------------
 Center     Atomic      Atomic             Coordinates (Angstroms)
 Number     Number       Type             X           Y           Z
 ---------------------------------------------------------------------
      1         14           0       -2.176292    0.000000    0.000000
      2         14           0        2.176292    0.000000    0.000000
      3          1           0        2.299906   -1.459396   -0.000005
      4          1           0       -2.299421   -0.729576    1.263987
      5          1           0        2.299952    0.729729   -1.263846
      6          1           0        2.299217    0.729665    1.263957
      7          1           0       -2.299933    1.459394   -0.000123
      8          1           0       -2.299722   -0.729822   -1.263815
 ---------------------------------------------------------------------

 Alpha  occ. eigenvalues --  -67.22755 -67.22754  -5.77586  -5.77584  -4.09266
 Alpha  occ. eigenvalues --   -4.09265  -4.08457  -4.08457  -4.08457  -4.08457
 Alpha  occ. eigenvalues --   -0.81350  -0.80841  -0.61656  -0.61655  -0.61516
 Alpha  occ. eigenvalues --   -0.61515  -0.41550
 Alpha virt. eigenvalues --   -0.29450  -0.12494  -0.11889  -0.09953  -0.09914
 Alpha virt. eigenvalues --   -0.09913  -0.08657  -0.08657  -0.07756  -0.07520
 Alpha virt. eigenvalues --   -0.07519  -0.06225  -0.06224  -0.04638   0.00732

  Beta  occ. eigenvalues --  -67.22489 -67.22489  -5.77507  -5.77504  -4.08646
  Beta  occ. eigenvalues --   -4.08645  -4.08366  -4.08366  -4.08366  -4.08366
  Beta  occ. eigenvalues --   -0.79578  -0.79277  -0.61522  -0.61521  -0.61372
  Beta  occ. eigenvalues --   -0.61371
  Beta virt. eigenvalues --   -0.31579  -0.22934  -0.14797  -0.12789  -0.12787
  Beta virt. eigenvalues --   -0.10941  -0.10879  -0.09128  -0.09127  -0.07222
  Beta virt. eigenvalues --   -0.07103  -0.07103  -0.05880  -0.05880  -0.05458

 Mulliken charges and spin densities:
               1          2
     1  Si   0.498754   0.550067
     2  Si   0.498754   0.550067
     3  H    0.000407  -0.016707
     4  H    0.000417  -0.016680
     5  H    0.000426  -0.016682
     6  H    0.000413  -0.016679
     7  H    0.000407  -0.016707
     8  H    0.000422  -0.016681
 Sum of Mulliken charges =   1.00000   1.00000

 Dipole moment (field-independent basis, Debye):
    X=              0.0000    Y=             -0.0000    Z=              0.0001  Tot=              0.0001
 Quadrupole moment (field-independent basis, Debye-Ang):
   XX=              2.3583   YY=            -26.1970   ZZ=            -26.1967
   XY=              0.0005   XZ=              0.0001   YZ=             -0.0000

 Normal termination of Gaussian 16 at Mon Apr 21 20:15:09 2025.
