 Gaussian 16, Revision A.03,
 Gaussian 16:  ES64L-G16RevA.03 25-Dec-2016

 ---------------------------------------------------
 #p UM062X/6-311+G** force int=superfine pop=saveNBO
 ---------------------------------------------------

 -------------------
 Title Card Required
 -------------------
 Symbolic Z-matrix:
 Charge =  0 Multiplicity = 1

                         Standard orientation:
 ---------------------------------------------------------------------
 Center     Atomic      Atomic             Coordinates (Angstroms)
 Number     Number       Type             X           Y           Z
 ---------------------------------------------------------------------
      1          6           0        0.000000    0.000000   -1.329885
      2         16           0        0.000000    0.000000    0.498707
 ---------------------------------------------------------------------

 SCF Done:  E(UM062X) =  -436.139686262     A.U. after   11 cycles

 The electronic state is 1-SG.
 Alpha  occ. eigenvalues --  -89.95691 -10.72120  -8.31740  -6.23603  -6.23519
 Alpha  occ. eigenvalues --   -6.23519  -0.85705  -0.61976  -0.39120  -0.37252
 Alpha  occ. eigenvalues --   -0.37252
 Alpha virt. eigenvalues --   -0.09325  -0.09325   0.02400   0.03533   0.05375
 Alpha virt. eigenvalues --    0.05375   0.08861   0.10301   0.10357   0.10357
 Alpha virt. eigenvalues --    0.16774   0.34476   0.34730   0.34730   0.55414

  Beta  occ. eigenvalues --  -89.95691 -10.72120  -8.31740  -6.23603  -6.23519
  Beta  occ. eigenvalues --   -6.23519  -0.85705  -0.61976  -0.39120  -0.37252
  Beta  occ. eigenvalues --   -0.37252
  Beta virt. eigenvalues --   -0.09325  -0.09325   0.02400   0.03533   0.05375
  Beta virt. eigenvalues --    0.05375   0.08861   0.10301   0.10357   0.10357
  Beta virt. eigenvalues --    0.16774   0.34476   0.34730   0.34730   0.55414

 Mulliken charges and spin densities:
               1          2
     1  C   -0.008963   0.000000
     2  S    0.008963  -0.000000
 Sum of Mulliken charges =  -0.00000   0.00000

 Dipole moment (field-independent basis, Debye):
    X=              0.0000    Y=              0.0000    Z=              0.5032  Tot=              0.5032
 Quadrupole moment (field-independent basis, Debye-Ang):
   XX=            -19.2836   YY=            -19.2836   ZZ=            -19.8654
   XY=              0.0000   XZ=              0.0000   YZ=              0.0000

 Summary of Natural Population Analysis:

                                       Natural Population
                Natural  -----------------------------------------------
    Atom  No    Charge         Core      Valence    Rydberg      Total
 -----------------------------------------------------------------------
      C    1    0.02024      0.99996     1.97005    0.00975     2.97976
      S    2   -0.02024      4.99980     3.00602    0.01443     8.02024
 =======================================================================
   * Total *    0.00000      5.99976     4.97606    0.02418    11.00000

 Normal termination of Gaussian 16 at Mon Apr 21 19:45:19 2025.
