 Gaussian 16, Revision A.03,
 Gaussian 16:  ES64L-G16RevA.03 25-Dec-2016

 --------------------------------------------
 #p opt UM062X/6-311+G** nosymm int=superfine
 --------------------------------------------

 -------------------
 Title Card Required
 -------------------
 Symbolic Z-matrix:
 Charge =  0 Multiplicity = 1

 SCF Done:  E(UM062X) =  -78.3252154466     A.U. after    8 cycles
 SCF Done:  E(UM062X) =  -78.3659071307     A.U. after    8 cycles
 SCF Done:  E(UM062X) =  -78.3985257033     A.U. after   10 cycles
 SCF Done:  E(UM062X) =  -78.4067255557     A.U. after    8 cycles
 SCF Done:  E(UM062X) =  -78.4074405806     A.U. after    8 cycles
 SCF Done:  E(UM062X) =  -78.4074476631     A.U. after    7 cycles
 Optimization completed.
    -- Stationary point found.

                          Input orientation:
 ---------------------------------------------------------------------
 Center     Atomic      Atomic             Coordinates (Angstroms)
 Number     Number       Type             X           Y           Z
 ---------------------------------------------------------------------
      1          6           0       -0.954536    0.000000    0.000000
      2          6           0        0.954536    0.000000    0.000000
      3          1           0       -1.432848   -0.966638   -0.000000
      4          1           0       -1.432839    0.966633    0.000000
      5          1           0        1.432848    0.966638   -0.000000
      6          1           0        1.432839   -0.966633    0.000000
 ---------------------------------------------------------------------

 Alpha  occ. eigenvalues --  -10.60422 -10.60405  -0.78104  -0.70872  -0.52946
 Alpha  occ. eigenvalues --   -0.49020  -0.39396  -0.26820
 Alpha virt. eigenvalues --   -0.05519   0.02617   0.03363   0.05394   0.07426
 Alpha virt. eigenvalues --    0.08959   0.09827   0.11494   0.12001   0.15510
 Alpha virt. eigenvalues --    0.16530   0.21169   0.21241   0.28441   0.40056

  Beta  occ. eigenvalues --  -10.60422 -10.60405  -0.78104  -0.70872  -0.52946
  Beta  occ. eigenvalues --   -0.49020  -0.39396  -0.26820
  Beta virt. eigenvalues --   -0.05519   0.02617   0.03363   0.05394   0.07426
  Beta virt. eigenvalues --    0.08959   0.09827   0.11494   0.12001   0.15510
  Beta virt. eigenvalues --    0.16530   0.21169   0.21241   0.28441   0.40056

 Mulliken charges and spin densities:
               1          2
     1  C   -0.353509   0.000000
     2  C   -0.353510  -0.000000
     3  H    0.176755  -0.000000
     4  H    0.176755   0.000000
     5  H    0.176755   0.000000
     6  H    0.176755   0.000000
 Sum of Mulliken charges =  -0.00000   0.00000

 Dipole moment (field-independent basis, Debye):
    X=             -0.0000    Y=             -0.0000    Z=             -0.0000  Tot=              0.0000
 Quadrupole moment (field-independent basis, Debye-Ang):
   XX=            -11.4279   YY=            -12.1312   ZZ=            -17.9224
   XY=              0.0000   XZ=             -0.0000   YZ=             -0.0000

 Normal termination of Gaussian 16 at Tue Nov 19 10:58:38 2024.
