 Gaussian 16, Revision A.03,
 Gaussian 16:  ES64L-G16RevA.03 25-Dec-2016

 ---------------------------------------------------
 #p UM062X/6-311+G** force int=superfine pop=saveNBO
 ---------------------------------------------------

 -------------------
 Title Card Required
 -------------------
 Symbolic Z-matrix:
 Charge =  0 Multiplicity = 1

                         Standard orientation:
 ---------------------------------------------------------------------
 Center     Atomic      Atomic             Coordinates (Angstroms)
 Number     Number       Type             X           Y           Z
 ---------------------------------------------------------------------
      1          6           0        0.000000    0.000000   -2.126951
      2          8           0        0.000000    0.000000    1.595213
 ---------------------------------------------------------------------

 SCF Done:  E(UM062X) =  -112.640032208     A.U. after   36 cycles

 The electronic state is 1-SG.
 Alpha  occ. eigenvalues --  -19.69277 -10.83230  -0.99198  -0.72487  -0.38007
 Alpha  occ. eigenvalues --   -0.30289  -0.30289
 Alpha virt. eigenvalues --   -0.22507  -0.22507  -0.18265   0.02317   0.06024
 Alpha virt. eigenvalues --    0.06024   0.07278   0.18713   0.21283   0.21283
 Alpha virt. eigenvalues --    0.25103   0.50885   0.50885   0.51862   0.60889

  Beta  occ. eigenvalues --  -19.69277 -10.83230  -0.99198  -0.72487  -0.38007
  Beta  occ. eigenvalues --   -0.30289  -0.30289
  Beta virt. eigenvalues --   -0.22507  -0.22507  -0.18265   0.02317   0.06024
  Beta virt. eigenvalues --    0.06024   0.07278   0.18713   0.21283   0.21283
  Beta virt. eigenvalues --    0.25103   0.50885   0.50885   0.51862   0.60889

 Mulliken charges and spin densities:
               1          2
     1  C    0.300913  -0.000000
     2  O   -0.300913   0.000000
 Sum of Mulliken charges =   0.00000   0.00000

 Dipole moment (field-independent basis, Debye):
    X=              0.0000    Y=              0.0000    Z=             -5.3408  Tot=              5.3408
 Quadrupole moment (field-independent basis, Debye-Ang):
   XX=            -12.3848   YY=            -12.3848   ZZ=             -8.1033
   XY=              0.0000   XZ=              0.0000   YZ=              0.0000

 Summary of Natural Population Analysis:

                                       Natural Population
                Natural  -----------------------------------------------
    Atom  No    Charge         Core      Valence    Rydberg      Total
 -----------------------------------------------------------------------
      C    1    0.15620      1.00000     1.84370    0.00010     2.84380
      O    2   -0.15620      1.00000     3.15558    0.00062     4.15620
 =======================================================================
   * Total *    0.00000      2.00000     4.99928    0.00072     7.00000

 Normal termination of Gaussian 16 at Mon Apr 21 19:32:06 2025.
