 Gaussian 16, Revision A.03,
 Gaussian 16:  ES64L-G16RevA.03 25-Dec-2016

 --------------------------------------------
 #p opt UM062X/6-311+G** nosymm int=superfine
 --------------------------------------------

 -------------------
 Title Card Required
 -------------------
 Symbolic Z-matrix:
 Charge =  1 Multiplicity = 2

 SCF Done:  E(UM062X) =  -79.3185686668     A.U. after   10 cycles
 SCF Done:  E(UM062X) =  -79.3195930993     A.U. after    9 cycles
 SCF Done:  E(UM062X) =  -79.3195998396     A.U. after    9 cycles
 Optimization completed.
    -- Stationary point found.

                          Input orientation:
 ---------------------------------------------------------------------
 Center     Atomic      Atomic             Coordinates (Angstroms)
 Number     Number       Type             X           Y           Z
 ---------------------------------------------------------------------
      1          6           0       -1.926007    0.000000    0.000000
      2          6           0        1.926007    0.000000    0.000000
      3          1           0        1.954922   -0.937607    0.542665
      4          1           0       -1.953243   -0.938706   -0.540844
      5          1           0        1.954206    0.938799    0.540635
      6          1           0        1.953192   -0.001167   -1.083368
      7          1           0       -1.954973    0.937710   -0.542484
      8          1           0       -1.954104    0.000944    1.083345
 ---------------------------------------------------------------------

 Alpha  occ. eigenvalues --  -10.83728 -10.83726  -1.02285  -1.01891  -0.73313
 Alpha  occ. eigenvalues --   -0.73312  -0.73171  -0.73170  -0.47969
 Alpha virt. eigenvalues --   -0.37483  -0.12866  -0.10181  -0.09541  -0.09541
 Alpha virt. eigenvalues --   -0.06227  -0.06227  -0.04398  -0.03009  -0.00271
 Alpha virt. eigenvalues --   -0.00268   0.01336   0.01337   0.02870   0.08567

  Beta  occ. eigenvalues --  -10.83510 -10.83510  -0.99627  -0.99373  -0.72796
  Beta  occ. eigenvalues --   -0.72795  -0.72634  -0.72634
  Beta virt. eigenvalues --   -0.32697  -0.26612  -0.16395  -0.10969  -0.10968
  Beta virt. eigenvalues --   -0.10208  -0.06233  -0.06233  -0.05125  -0.02062
  Beta virt. eigenvalues --   -0.00548  -0.00545   0.01602   0.01604   0.02665

 Mulliken charges and spin densities:
               1          2
     1  C   -0.253875   0.557356
     2  C   -0.253873   0.557357
     3  H    0.251308  -0.019121
     4  H    0.251268  -0.019123
     5  H    0.251290  -0.019125
     6  H    0.251276  -0.019112
     7  H    0.251309  -0.019120
     8  H    0.251297  -0.019113
 Sum of Mulliken charges =   1.00000   1.00000

 Dipole moment (field-independent basis, Debye):
    X=              0.0000    Y=             -0.0000    Z=             -0.0001  Tot=              0.0001
 Quadrupole moment (field-independent basis, Debye-Ang):
   XX=              6.5190   YY=            -11.1097   ZZ=            -11.1098
   XY=             -0.0018   XZ=              0.0011   YZ=              0.0000

 Normal termination of Gaussian 16 at Wed Nov 13 12:53:52 2024.
