 Gaussian 16, Revision A.03,
 Gaussian 16:  ES64L-G16RevA.03 25-Dec-2016

 ---------------------------------------------------------------------
 #p opt UM062X/6-311+G** nosymm int=superfine SCF=(Tight,MaxCycle=200)
 ---------------------------------------------------------------------

 -------------------
 Title Card Required
 -------------------
 Symbolic Z-matrix:
 Charge =  1 Multiplicity = 2

 SCF Done:  E(UM062X) =  -1614.95660431     A.U. after   21 cycles
 SCF Done:  E(UM062X) =  -1615.18030666     A.U. after   21 cycles
 SCF Done:  E(UM062X) =  -1615.47027502     A.U. after   20 cycles
 SCF Done:  E(UM062X) =  -1615.54711196     A.U. after   20 cycles
 SCF Done:  E(UM062X) =  -1615.55085763     A.U. after   23 cycles
 SCF Done:  E(UM062X) =  -1615.55515311     A.U. after   22 cycles
 SCF Done:  E(UM062X) =  -1615.55603382     A.U. after   22 cycles
 SCF Done:  E(UM062X) =  -1615.52788820     A.U. after   25 cycles
 SCF Done:  E(UM062X) =  -1615.55688138     A.U. after   20 cycles
 SCF Done:  E(UM062X) =  -1615.55672527     A.U. after   18 cycles
 SCF Done:  E(UM062X) =  -1615.55719121     A.U. after   21 cycles
 SCF Done:  E(UM062X) =  -1615.55733051     A.U. after   20 cycles
 SCF Done:  E(UM062X) =  -1615.55732803     A.U. after   19 cycles
 SCF Done:  E(UM062X) =  -1615.55733220     A.U. after   16 cycles
 SCF Done:  E(UM062X) =  -1615.55733370     A.U. after   15 cycles
 SCF Done:  E(UM062X) =  -1615.55733392     A.U. after   13 cycles
 SCF Done:  E(UM062X) =  -1615.55733405     A.U. after   13 cycles
 Optimization completed.
    -- Stationary point found.

                          Input orientation:
 ---------------------------------------------------------------------
 Center     Atomic      Atomic             Coordinates (Angstroms)
 Number     Number       Type             X           Y           Z
 ---------------------------------------------------------------------
      1          6           0       -0.998702    0.000000    0.000000
      2          6           0        0.998702    0.000000    0.000000
      3          6           0       -0.000082   -2.187331    0.000250
      4          6           0       -0.000146   -3.551683    0.000274
      5          6           0       -1.117452   -4.327884    0.350993
      6          6           0       -1.156942   -1.474703    0.336835
      7          6           0        0.647904   -5.725329   -0.204853
      8          1           0        1.243144   -6.606804   -0.396239
      9          6           0       -1.406029    0.916011    1.101719
     10          6           0       -0.648581   -5.725261    0.204897
     11          1           0       -1.243974   -6.606675    0.396093
     12          6           0        1.116993   -4.328001   -0.350709
     13          6           0        1.156749   -1.474785   -0.336647
     14          6           0        1.613070    2.324507   -1.004956
     15          6           0       -1.412361    0.205870   -1.439080
     16          6           0       -1.857519    3.071541    2.186407
     17          1           0       -2.015523    4.139152    2.086367
     18          6           0       -2.257881   -3.637888    0.714937
     19          1           0       -3.166927   -4.154357    1.002119
     20          6           0       -1.535751    1.462146   -2.099361
     21          6           0        2.273978   -2.202554   -0.695981
     22          1           0        3.202173   -1.696280   -0.939477
     23          6           0        1.412688    0.205955    1.438984
     24          6           0        1.536159    1.462265    2.099180
     25          6           0        2.257406   -3.638114   -0.714900
     26          1           0        3.166336   -4.154663   -1.002305
     27          6           0       -1.613457    2.324548    1.004804
     28          6           0       -1.455049    0.359146    2.396372
     29          1           0       -1.277578   -0.698063    2.522999
     30          6           0        1.606435   -0.933416    2.253178
     31          1           0        1.564497   -1.923698    1.829577
     32          6           0       -1.900582    2.490964    3.429291
     33          1           0       -2.089325    3.089589    4.311744
     34          6           0       -2.274327   -2.202330    0.695970
     35          1           0       -3.202507   -1.695942    0.939285
     36          6           0       -1.765088    1.508706   -3.493338
     37          1           0       -1.831969    2.482984   -3.963435
     38          6           0        1.406141    0.915897   -1.101788
     39          6           0       -1.560322    3.120680   -0.185870
     40          1           0       -1.601430    4.190319   -0.003705
     41          6           0       -1.931084    0.373700   -4.251960
     42          1           0       -2.120248    0.441897   -5.315969
     43          6           0       -1.485023    2.760101   -1.486849
     44          1           0       -1.475390    3.583768   -2.194226
     45          6           0        1.765961    1.508926    3.493077
     46          1           0        1.832910    2.483236    3.963101
     47          6           0       -1.692864    1.110931    3.529817
     48          1           0       -1.708508    0.623473    4.497284
     49          6           0       -1.606054   -0.933541   -2.253223
     50          1           0       -1.564449   -1.923796   -1.829532
     51          6           0        1.932208    0.373969    4.251707
     52          1           0        2.121693    0.442223    5.315656
     53          6           0        1.857113    3.071490   -2.186550
     54          1           0        2.014695    4.139171   -2.086579
     55          6           0        1.867921   -0.860263    3.609927
     56          1           0        2.018471   -1.777473    4.166279
     57          6           0        1.900695    2.490803   -3.429374
     58          1           0        2.089463    3.089406   -4.311836
     59          6           0        1.559434    3.120717    0.185660
     60          1           0        1.599798    4.190365    0.003373
     61          6           0       -1.867143   -0.860477   -3.610059
     62          1           0       -2.017671   -1.777721   -4.166363
     63          6           0        1.484636    2.760190    1.486675
     64          1           0        1.474645    3.583870    2.194034
     65          6           0        1.455597    0.358929   -2.396363
     66          1           0        1.278430   -0.698333   -2.522950
     67          6           0        1.693458    1.110703   -3.529820
     68          1           0        1.709521    0.623158   -4.497236
 ---------------------------------------------------------------------

 Alpha  occ. eigenvalues --  -10.71896 -10.71887 -10.68866 -10.68864 -10.68676
 Alpha  occ. eigenvalues --  -10.68674 -10.68479 -10.68478 -10.67729 -10.67729
 Alpha  occ. eigenvalues --  -10.67303 -10.67301 -10.67076 -10.67075 -10.66423
 Alpha  occ. eigenvalues --  -10.66423 -10.66350 -10.66350 -10.66326 -10.66325
 Alpha  occ. eigenvalues --  -10.66014 -10.66013 -10.65827 -10.65827 -10.65624
 Alpha  occ. eigenvalues --  -10.65623 -10.65528 -10.65527 -10.65521 -10.65521
 Alpha  occ. eigenvalues --  -10.65313 -10.65313 -10.65177 -10.65177 -10.65140
 Alpha  occ. eigenvalues --  -10.65139 -10.64808 -10.64807 -10.64186 -10.63984
 Alpha  occ. eigenvalues --  -10.63888 -10.62540  -1.13007  -1.10403  -1.09814
 Alpha  occ. eigenvalues --   -1.08556  -1.07888  -1.06201  -1.04052  -1.02880
 Alpha  occ. eigenvalues --   -1.02429  -1.00652  -0.99892  -0.97961  -0.97834
 Alpha  occ. eigenvalues --   -0.96957  -0.96227  -0.94797  -0.93448  -0.93418
 Alpha  occ. eigenvalues --   -0.92584  -0.91836  -0.87959  -0.86848  -0.84996
 Alpha  occ. eigenvalues --   -0.84805  -0.82651  -0.81641  -0.81097  -0.79994
 Alpha  occ. eigenvalues --   -0.79732  -0.79518  -0.77829  -0.76365  -0.76137
 Alpha  occ. eigenvalues --   -0.75413  -0.75183  -0.73833  -0.70120  -0.70042
 Alpha  occ. eigenvalues --   -0.68942  -0.68141  -0.67803  -0.67595  -0.67132
 Alpha  occ. eigenvalues --   -0.66851  -0.65477  -0.65138  -0.64979  -0.64729
 Alpha  occ. eigenvalues --   -0.63631  -0.63056  -0.62273  -0.62089  -0.61488
 Alpha  occ. eigenvalues --   -0.61357  -0.60651  -0.60265  -0.60129  -0.59881
 Alpha  occ. eigenvalues --   -0.59606  -0.58823  -0.58441  -0.57984  -0.57734
 Alpha  occ. eigenvalues --   -0.57253  -0.55982  -0.55921  -0.55843  -0.55680
 Alpha  occ. eigenvalues --   -0.54871  -0.54680  -0.54036  -0.52924  -0.52794
 Alpha  occ. eigenvalues --   -0.52547  -0.52100  -0.51997  -0.51672  -0.51121
 Alpha  occ. eigenvalues --   -0.50867  -0.50774  -0.50613  -0.49153  -0.48683
 Alpha  occ. eigenvalues --   -0.48540  -0.48443  -0.48082  -0.44221  -0.43693
 Alpha  occ. eigenvalues --   -0.43470  -0.43016  -0.40987  -0.39939  -0.39805
 Alpha  occ. eigenvalues --   -0.38116  -0.37766  -0.37092  -0.35492
 Alpha virt. eigenvalues --   -0.15637  -0.15531  -0.15153  -0.14345  -0.10125
 Alpha virt. eigenvalues --   -0.10035  -0.08795  -0.08747  -0.08338  -0.07737
 Alpha virt. eigenvalues --   -0.07695  -0.07528  -0.07059  -0.06552  -0.06315

  Beta  occ. eigenvalues --  -10.71836 -10.71830 -10.68830 -10.68829 -10.68640
  Beta  occ. eigenvalues --  -10.68639 -10.68466 -10.68465 -10.67709 -10.67708
  Beta  occ. eigenvalues --  -10.67270 -10.67269 -10.67037 -10.67036 -10.66421
  Beta  occ. eigenvalues --  -10.66420 -10.66317 -10.66317 -10.66302 -10.66301
  Beta  occ. eigenvalues --  -10.66012 -10.66011 -10.65828 -10.65828 -10.65623
  Beta  occ. eigenvalues --  -10.65622 -10.65548 -10.65548 -10.65512 -10.65512
  Beta  occ. eigenvalues --  -10.65304 -10.65303 -10.65176 -10.65175 -10.65143
  Beta  occ. eigenvalues --  -10.65142 -10.64805 -10.64804 -10.64183 -10.63984
  Beta  occ. eigenvalues --  -10.63888 -10.62542  -1.12871  -1.10288  -1.09620
  Beta  occ. eigenvalues --   -1.08417  -1.07750  -1.06074  -1.03971  -1.02658
  Beta  occ. eigenvalues --   -1.02229  -1.00532  -0.99771  -0.97807  -0.97699
  Beta  occ. eigenvalues --   -0.96852  -0.96136  -0.94761  -0.93284  -0.93272
  Beta  occ. eigenvalues --   -0.92434  -0.91707  -0.87713  -0.86656  -0.84867
  Beta  occ. eigenvalues --   -0.84682  -0.82590  -0.81524  -0.81022  -0.79870
  Beta  occ. eigenvalues --   -0.79655  -0.79444  -0.77673  -0.76179  -0.75977
  Beta  occ. eigenvalues --   -0.75262  -0.75158  -0.73717  -0.70011  -0.69889
  Beta  occ. eigenvalues --   -0.68856  -0.68056  -0.67681  -0.67481  -0.66995
  Beta  occ. eigenvalues --   -0.66737  -0.65373  -0.65049  -0.64857  -0.64610
  Beta  occ. eigenvalues --   -0.63294  -0.63010  -0.62201  -0.61980  -0.61268
  Beta  occ. eigenvalues --   -0.61183  -0.60516  -0.60192  -0.60025  -0.59791
  Beta  occ. eigenvalues --   -0.59451  -0.58613  -0.58372  -0.57854  -0.57307
  Beta  occ. eigenvalues --   -0.57160  -0.55890  -0.55795  -0.55724  -0.55069
  Beta  occ. eigenvalues --   -0.54759  -0.54247  -0.53680  -0.52808  -0.52697
  Beta  occ. eigenvalues --   -0.52480  -0.52025  -0.51829  -0.51281  -0.51020
  Beta  occ. eigenvalues --   -0.50671  -0.50670  -0.49664  -0.49031  -0.48585
  Beta  occ. eigenvalues --   -0.48408  -0.48221  -0.47652  -0.43627  -0.42962
  Beta  occ. eigenvalues --   -0.42854  -0.42669  -0.40647  -0.39890  -0.39186
  Beta  occ. eigenvalues --   -0.37516  -0.37138  -0.36532
  Beta virt. eigenvalues --   -0.25901  -0.15502  -0.15135  -0.15004  -0.13830
  Beta virt. eigenvalues --   -0.09910  -0.09722  -0.08707  -0.08378  -0.08165
  Beta virt. eigenvalues --   -0.07570  -0.07570  -0.07445  -0.06547  -0.06509

 Mulliken charges and spin densities:
               1          2
     1  C    0.019343   0.018197
     2  C    0.020148   0.018302
     3  C    0.139056   0.002753
     4  C    0.125014  -0.003444
     5  C    0.134313   0.006555
     6  C    0.152882   0.006467
     7  C   -0.300809   0.000966
     8  H    0.175506  -0.000054
     9  C    0.160805   0.077299
    10  C   -0.300835   0.000964
    11  H    0.175506  -0.000054
    12  C    0.134544   0.006552
    13  C    0.153038   0.006480
    14  C   -0.012837   0.036469
    15  C    0.173522   0.049371
    16  C   -0.085339   0.032801
    17  H    0.166250  -0.001220
    18  C   -0.499553   0.001706
    19  H    0.174115   0.000383
    20  C    0.199922   0.039947
    21  C   -0.185163   0.011309
    22  H    0.174035  -0.000396
    23  C    0.173972   0.049347
    24  C    0.199451   0.039931
    25  C   -0.499580   0.001705
    26  H    0.174116   0.000383
    27  C   -0.012892   0.036563
    28  C   -0.099532  -0.041377
    29  H    0.197986   0.001219
    30  C   -0.315600  -0.007392
    31  H    0.215655   0.000453
    32  C   -0.271985   0.014905
    33  H    0.180049  -0.000755
    34  C   -0.185233   0.011308
    35  H    0.174009  -0.000396
    36  C   -0.160346  -0.003489
    37  H    0.163002  -0.000102
    38  C    0.160592   0.077290
    39  C   -0.175735   0.101141
    40  H    0.169244  -0.007211
    41  C   -0.259441   0.010249
    42  H    0.177527  -0.000283
    43  C   -0.158168   0.063893
    44  H    0.162842  -0.003570
    45  C   -0.160231  -0.003504
    46  H    0.163008  -0.000102
    47  C   -0.178657   0.087397
    48  H    0.175911  -0.005498
    49  C   -0.315447  -0.007397
    50  H    0.215641   0.000454
    51  C   -0.259536   0.010269
    52  H    0.177528  -0.000283
    53  C   -0.085918   0.032755
    54  H    0.166240  -0.001220
    55  C   -0.077149   0.011879
    56  H    0.175267  -0.000964
    57  C   -0.272265   0.014875
    58  H    0.180047  -0.000753
    59  C   -0.175074   0.101237
    60  H    0.169203  -0.007217
    61  C   -0.077434   0.011885
    62  H    0.175268  -0.000965
    63  C   -0.157860   0.063840
    64  H    0.162834  -0.003564
    65  C   -0.099964  -0.041368
    66  H    0.197947   0.001217
    67  C   -0.178660   0.087363
    68  H    0.175907  -0.005497
 Sum of Mulliken charges =   1.00000   1.00000

 Dipole moment (field-independent basis, Debye):
    X=             -0.0008    Y=              3.2880    Z=             -0.0005  Tot=              3.2880
 Quadrupole moment (field-independent basis, Debye-Ang):
   XX=           -222.4378   YY=           -173.9999   ZZ=           -177.2480
   XY=             -0.0047   XZ=             -1.9530   YZ=              0.0033

 Normal termination of Gaussian 16 at Fri Mar 21 06:32:45 2025.
