 Gaussian 16, Revision A.03,
 Gaussian 16:  ES64L-G16RevA.03 25-Dec-2016

 --------------------------------------------
 #p opt UM062X/6-311+G** nosymm int=superfine
 --------------------------------------------

 -------------------
 Title Card Required
 -------------------
 Symbolic Z-matrix:
 Charge =  0 Multiplicity = 1

 SCF Done:  E(UM062X) =  -438.658488323     A.U. after   11 cycles
 SCF Done:  E(UM062X) =  -438.660149965     A.U. after    9 cycles
 SCF Done:  E(UM062X) =  -438.660279475     A.U. after    9 cycles
 SCF Done:  E(UM062X) =  -438.660279879     A.U. after    8 cycles
 Optimization completed.
    -- Stationary point found.

                          Input orientation:
 ---------------------------------------------------------------------
 Center     Atomic      Atomic             Coordinates (Angstroms)
 Number     Number       Type             X           Y           Z
 ---------------------------------------------------------------------
      1          6           0       -1.035220    0.000000    0.000000
      2         16           0        1.035220    0.000000    0.000000
      3          1           0        1.122868   -1.338816   -0.001692
      4          1           0       -1.291905    1.053741    0.002381
      5          1           0       -1.349084   -0.500943   -0.908593
      6          1           0       -1.349051   -0.504979    0.906371
 ---------------------------------------------------------------------

 Alpha  occ. eigenvalues --  -89.89409 -10.58408  -8.25781  -6.17897  -6.17722
 Alpha  occ. eigenvalues --   -6.17251  -0.84062  -0.74599  -0.50913  -0.50268
 Alpha  occ. eigenvalues --   -0.44268  -0.37830  -0.29786
 Alpha virt. eigenvalues --   -0.00040   0.02585   0.04654   0.05396   0.06731
 Alpha virt. eigenvalues --    0.07305   0.08024   0.08728   0.11889   0.13756
 Alpha virt. eigenvalues --    0.17873   0.18312   0.25222   0.32816   0.34642

  Beta  occ. eigenvalues --  -89.89409 -10.58408  -8.25781  -6.17897  -6.17722
  Beta  occ. eigenvalues --   -6.17251  -0.84062  -0.74599  -0.50913  -0.50268
  Beta  occ. eigenvalues --   -0.44268  -0.37830  -0.29786
  Beta virt. eigenvalues --   -0.00040   0.02585   0.04654   0.05396   0.06731
  Beta virt. eigenvalues --    0.07305   0.08024   0.08728   0.11889   0.13756
  Beta virt. eigenvalues --    0.17873   0.18312   0.25222   0.32816   0.34642

 Mulliken charges and spin densities:
               1          2
     1  C   -0.583461  -0.000000
     2  S   -0.068666   0.000000
     3  H    0.065764  -0.000000
     4  H    0.193860   0.000000
     5  H    0.196269   0.000000
     6  H    0.196235  -0.000000
 Sum of Mulliken charges =  -0.00000   0.00000

 Dipole moment (field-independent basis, Debye):
    X=             -1.7396    Y=             -0.9269    Z=             -0.0011  Tot=              1.9711
 Quadrupole moment (field-independent basis, Debye-Ang):
   XX=            -21.2123   YY=            -19.2577   ZZ=            -23.0808
   XY=             -1.5313   XZ=             -0.0020   YZ=              0.0049

 Normal termination of Gaussian 16 at Mon Apr 21 19:34:43 2025.
