 Gaussian 16, Revision A.03,
 Gaussian 16:  ES64L-G16RevA.03 25-Dec-2016

 --------------------------------------------
 #p opt UM062X/6-311+G** nosymm int=superfine
 --------------------------------------------

 -------------------
 Title Card Required
 -------------------
 Symbolic Z-matrix:
 Charge =  0 Multiplicity = 1

 SCF Done:  E(UM062X) =  -76.9584075452     A.U. after   10 cycles
 SCF Done:  E(UM062X) =  -77.0032719662     A.U. after    9 cycles
 SCF Done:  E(UM062X) =  -77.0760310034     A.U. after   10 cycles
 SCF Done:  E(UM062X) =  -77.0872617843     A.U. after   10 cycles
 SCF Done:  E(UM062X) =  -77.0873273868     A.U. after    8 cycles
 Optimization completed.
    -- Stationary point found.

                          Input orientation:
 ---------------------------------------------------------------------
 Center     Atomic      Atomic             Coordinates (Angstroms)
 Number     Number       Type             X           Y           Z
 ---------------------------------------------------------------------
      1          6           0       -0.849892    0.000000    0.000000
      2          6           0        0.849892    0.000000    0.000000
      3          1           0       -1.926364    0.000000    0.000000
      4          1           0        1.926314    0.000000    0.000000
 ---------------------------------------------------------------------

 Alpha  occ. eigenvalues --  -10.65908 -10.65877  -0.77694  -0.69709  -0.53027
 Alpha  occ. eigenvalues --   -0.30203  -0.30203
 Alpha virt. eigenvalues --   -0.04641  -0.04641  -0.00265   0.02306   0.05686
 Alpha virt. eigenvalues --    0.08426   0.08426   0.09556   0.11063   0.11063
 Alpha virt. eigenvalues --    0.17604   0.22538   0.27461   0.46778   0.58495

  Beta  occ. eigenvalues --  -10.65908 -10.65877  -0.77694  -0.69709  -0.53027
  Beta  occ. eigenvalues --   -0.30203  -0.30203
  Beta virt. eigenvalues --   -0.04641  -0.04641  -0.00265   0.02306   0.05686
  Beta virt. eigenvalues --    0.08426   0.08426   0.09556   0.11063   0.11063
  Beta virt. eigenvalues --    0.17604   0.22538   0.27461   0.46778   0.58495

 Mulliken charges and spin densities:
               1          2
     1  C   -0.246527   0.000000
     2  C   -0.246529  -0.000000
     3  H    0.246535   0.000000
     4  H    0.246521  -0.000000
 Sum of Mulliken charges =  -0.00000  -0.00000

 Dipole moment (field-independent basis, Debye):
    X=             -0.0001    Y=              0.0000    Z=              0.0000  Tot=              0.0001
 Quadrupole moment (field-independent basis, Debye-Ang):
   XX=             -4.9651   YY=            -15.7837   ZZ=            -15.7837
   XY=              0.0000   XZ=             -0.0000   YZ=              0.0000

 Normal termination of Gaussian 16 at Tue Dec  3 20:14:55 2024.
