 Gaussian 16, Revision A.03,
 Gaussian 16:  ES64L-G16RevA.03 25-Dec-2016

 ---------------------------------------------------
 #p UM062X/6-311+G** force int=superfine pop=saveNBO
 ---------------------------------------------------

 -------------------
 Title Card Required
 -------------------
 Symbolic Z-matrix:
 Charge =  0 Multiplicity = 1

                         Standard orientation:
 ---------------------------------------------------------------------
 Center     Atomic      Atomic             Coordinates (Angstroms)
 Number     Number       Type             X           Y           Z
 ---------------------------------------------------------------------
      1          6           0        0.000000    0.000000   -1.041237
      2          8           0        0.000000    0.000000    0.780927
 ---------------------------------------------------------------------

 SCF Done:  E(UM062X) =  -112.987502715     A.U. after   13 cycles

 The electronic state is 1-SG.
 Alpha  occ. eigenvalues --  -19.72094 -10.82831  -1.04276  -0.70210  -0.42989
 Alpha  occ. eigenvalues --   -0.39872  -0.39872
 Alpha virt. eigenvalues --   -0.14901  -0.14901  -0.02582   0.03501   0.06511
 Alpha virt. eigenvalues --    0.06511   0.07684   0.19972   0.22559   0.22559
 Alpha virt. eigenvalues --    0.31888   0.52544   0.52544   0.53041   0.69808

  Beta  occ. eigenvalues --  -19.72094 -10.82831  -1.04276  -0.70210  -0.42989
  Beta  occ. eigenvalues --   -0.39872  -0.39872
  Beta virt. eigenvalues --   -0.14901  -0.14901  -0.02582   0.03501   0.06511
  Beta virt. eigenvalues --    0.06511   0.07684   0.19972   0.22559   0.22559
  Beta virt. eigenvalues --    0.31888   0.52544   0.52544   0.53041   0.69808

 Mulliken charges and spin densities:
               1          2
     1  C    0.313882   0.000000
     2  O   -0.313882   0.000000
 Sum of Mulliken charges =  -0.00000   0.00000

 Dipole moment (field-independent basis, Debye):
    X=              0.0000    Y=              0.0000    Z=             -2.7856  Tot=              2.7856
 Quadrupole moment (field-independent basis, Debye-Ang):
   XX=            -11.4387   YY=            -11.4387   ZZ=            -11.3258
   XY=              0.0000   XZ=              0.0000   YZ=              0.0000

 Summary of Natural Population Analysis:

                                       Natural Population
                Natural  -----------------------------------------------
    Atom  No    Charge         Core      Valence    Rydberg      Total
 -----------------------------------------------------------------------
      C    1    0.31314      0.99999     1.68283    0.00404     2.68686
      O    2   -0.31314      0.99999     3.31021    0.00295     4.31314
 =======================================================================
   * Total *   -0.00000      1.99998     4.99304    0.00698     7.00000

 Normal termination of Gaussian 16 at Mon Apr 21 19:31:29 2025.
