 Gaussian 16, Revision A.03,
 Gaussian 16:  ES64L-G16RevA.03 25-Dec-2016

 ---------------------------------------
 #p UM062X/6-311+G** force int=superfine
 ---------------------------------------

 -------------------
 Title Card Required
 -------------------
 Symbolic Z-matrix:
 Charge =  0 Multiplicity = 1

                         Standard orientation:
 ---------------------------------------------------------------------
 Center     Atomic      Atomic             Coordinates (Angstroms)
 Number     Number       Type             X           Y           Z
 ---------------------------------------------------------------------
      1          6           0        0.000000    0.536926    0.000000
      2          6           0       -0.000000   -0.536926    0.000000
      3          1           0       -0.897757    1.158029    0.000000
      4          1           0        0.897864    1.157979    0.000000
      5          1           0        0.897757   -1.158029    0.000000
      6          1           0       -0.897864   -1.157979    0.000000
 ---------------------------------------------------------------------

 SCF Done:  E(UM062X) =  -78.4447568973     A.U. after    8 cycles

 The electronic state is 1-AG.
 Alpha  occ. eigenvalues --  -10.49923 -10.49206  -0.92489  -0.63735  -0.56877
 Alpha  occ. eigenvalues --   -0.52071  -0.39389  -0.36642
 Alpha virt. eigenvalues --    0.03356   0.04243   0.04614   0.06265   0.06975
 Alpha virt. eigenvalues --    0.08665   0.09801   0.16119   0.17195   0.18005
 Alpha virt. eigenvalues --    0.18624   0.24537   0.33580   0.40695   0.43586

  Beta  occ. eigenvalues --  -10.49923 -10.49206  -0.92489  -0.63735  -0.56877
  Beta  occ. eigenvalues --   -0.52071  -0.39389  -0.36642
  Beta virt. eigenvalues --    0.03356   0.04243   0.04614   0.06265   0.06975
  Beta virt. eigenvalues --    0.08665   0.09801   0.16119   0.17195   0.18005
  Beta virt. eigenvalues --    0.18624   0.24537   0.33580   0.40695   0.43586

 Mulliken charges and spin densities:
               1          2
     1  C   -0.265694  -0.000000
     2  C   -0.265694  -0.000000
     3  H    0.132854   0.000000
     4  H    0.132840   0.000000
     5  H    0.132854   0.000000
     6  H    0.132840   0.000000
 Sum of Mulliken charges =   0.00000  -0.00000

 Dipole moment (field-independent basis, Debye):
    X=              0.0000    Y=              0.0000    Z=              0.0000  Tot=              0.0000
 Quadrupole moment (field-independent basis, Debye-Ang):
   XX=            -12.3595   YY=            -12.4664   ZZ=            -14.7172
   XY=             -0.0002   XZ=              0.0000   YZ=              0.0000

 Normal termination of Gaussian 16 at Tue Nov 19 11:42:09 2024.
