 Gaussian 16, Revision A.03,
 Gaussian 16:  ES64L-G16RevA.03 25-Dec-2016

 ---------------------------------------------------
 #p UM062X/6-311+G** force int=superfine pop=saveNBO
 ---------------------------------------------------

 -------------------
 Title Card Required
 -------------------
 Symbolic Z-matrix:
 Charge =  0 Multiplicity = 1

                         Standard orientation:
 ---------------------------------------------------------------------
 Center     Atomic      Atomic             Coordinates (Angstroms)
 Number     Number       Type             X           Y           Z
 ---------------------------------------------------------------------
      1          8           0       -1.087927    0.027193   -0.116770
      2         16           0        0.582163   -0.089421    0.007792
      3          1           0       -1.460352   -0.017059    0.769109
      4          1           0        0.849164    1.230244    0.040375
 ---------------------------------------------------------------------

 SCF Done:  E(UM062X) =  -474.563958223     A.U. after   12 cycles

 The electronic state is 1-A.
 Alpha  occ. eigenvalues --  -89.94213 -19.66537  -8.30497  -6.22761  -6.22341
 Alpha  occ. eigenvalues --   -6.21858  -1.17221  -0.81471  -0.59914  -0.52030
 Alpha  occ. eigenvalues --   -0.47513  -0.38483  -0.31234
 Alpha virt. eigenvalues --   -0.01159   0.01929   0.04595   0.05307   0.07798
 Alpha virt. eigenvalues --    0.10043   0.16048   0.18350   0.20002   0.23008
 Alpha virt. eigenvalues --    0.28474   0.32349   0.34316   0.36003   0.41470

  Beta  occ. eigenvalues --  -89.94213 -19.66537  -8.30497  -6.22761  -6.22341
  Beta  occ. eigenvalues --   -6.21858  -1.17221  -0.81471  -0.59914  -0.52030
  Beta  occ. eigenvalues --   -0.47513  -0.38483  -0.31234
  Beta virt. eigenvalues --   -0.01159   0.01929   0.04595   0.05307   0.07798
  Beta virt. eigenvalues --    0.10043   0.16048   0.18350   0.20002   0.23008
  Beta virt. eigenvalues --    0.28474   0.32349   0.34316   0.36003   0.41470

 Mulliken charges and spin densities:
               1          2
     1  O   -0.406630   0.000000
     2  S    0.057376  -0.000000
     3  H    0.288648   0.000000
     4  H    0.060606   0.000000
 Sum of Mulliken charges =  -0.00000   0.00000

 Dipole moment (field-independent basis, Debye):
    X=              0.2305    Y=              0.9028    Z=              1.6985  Tot=              1.9373
 Quadrupole moment (field-independent basis, Debye-Ang):
   XX=            -18.3910   YY=            -18.6073   ZZ=            -20.3037
   XY=              1.3837   XZ=             -2.8589   YZ=              0.0397

 Summary of Natural Population Analysis:

                                       Natural Population
                Natural  -----------------------------------------------
    Atom  No    Charge         Core      Valence    Rydberg      Total
 -----------------------------------------------------------------------
      O    1   -0.41181      0.99992     3.40459    0.00730     4.41181
      S    2    0.12956      4.99976     2.84455    0.02614     7.87044
      H    3    0.23785      0.00000     0.25988    0.00227     0.26215
      H    4    0.04440      0.00000     0.45239    0.00321     0.45560
 =======================================================================
   * Total *    0.00000      5.99968     6.96141    0.03892    13.00000

 1\1\GINC-NODE01\Force\UM062X\6-311+G(d,p)\H2O1S1\SZHAO\12-May-2025\0\\
 #p UM062X/6-311+G** force int=superfine pop=saveNBO\\Title Card Requir
 ed\\0,1\O,-0.83939168,0.,0.\S,0.83939168,0.,0.\H,-1.14108385,-0.913467
 9,0.\H,1.01575962,0.08293886,1.33262176\\Version=ES64L-G16RevA.03\Stat
 e=1-A\HF=-474.5639582\S2=0.\S2-1=0.\S2A=0.\RMSD=2.860e-09\RMSF=3.078e-
 05\Dipole=0.1151421,-0.6318911,0.4103243\Quadrupole=0.0627189,-0.53711
 92,0.4744003,2.2652927,0.8469568,0.2753203\PG=C01 [X(H2O1S1)]\\@

 Normal termination of Gaussian 16 at Mon May 12 15:17:09 2025.
