 Gaussian 16, Revision A.03,
 Gaussian 16:  ES64L-G16RevA.03 25-Dec-2016

 --------------------------------------------
 #p opt UM062X/6-311+G** nosymm int=superfine
 --------------------------------------------

 -------------------
 Title Card Required
 -------------------
 Symbolic Z-matrix:
 Charge =  0 Multiplicity = 2

 SCF Done:  E(UM062X) =  -25.9157949614     A.U. after   11 cycles
 SCF Done:  E(UM062X) =  -25.9191645399     A.U. after    9 cycles
 SCF Done:  E(UM062X) =  -25.9196867206     A.U. after    9 cycles
 SCF Done:  E(UM062X) =  -25.9196899514     A.U. after    7 cycles
 Optimization completed.
    -- Stationary point found.

                          Input orientation:
 ---------------------------------------------------------------------
 Center     Atomic      Atomic             Coordinates (Angstroms)
 Number     Number       Type             X           Y           Z
 ---------------------------------------------------------------------
      1          5           0        0.923416    0.000000   -0.000000
      2          1           0        1.442273    1.066421   -0.000500
      3          1           0        1.442275   -1.066420    0.000496
 ---------------------------------------------------------------------

 Alpha  occ. eigenvalues --   -7.08718  -0.58176  -0.44022  -0.25861
 Alpha virt. eigenvalues --   -0.05067   0.03030   0.04228   0.05696   0.05846
 Alpha virt. eigenvalues --    0.16306   0.18669   0.35258   0.36493   0.42353
 Alpha virt. eigenvalues --    0.42452   0.56954   0.58406   0.78926   0.82762

  Beta  occ. eigenvalues --   -7.07942  -0.55357  -0.43025
  Beta virt. eigenvalues --   -0.06941  -0.04146   0.02567   0.05048   0.08860
  Beta virt. eigenvalues --    0.10754   0.16110   0.17020   0.33892   0.35657
  Beta virt. eigenvalues --    0.39729   0.40877   0.57628   0.59747   0.81109

 Mulliken charges and spin densities:
               1          2
     1  B   -0.042875   0.973121
     2  H    0.021437   0.013439
     3  H    0.021437   0.013439
 Sum of Mulliken charges =  -0.00000   1.00000

 Dipole moment (field-independent basis, Debye):
    X=              0.5179    Y=              0.0000    Z=             -0.0000  Tot=              0.5179
 Quadrupole moment (field-independent basis, Debye-Ang):
   XX=             -8.4038   YY=             -8.3849   ZZ=             -6.7805
   XY=             -0.0000   XZ=              0.0000   YZ=              0.0007

 1\1\GINC-NODE02\FOpt\UM062X\6-311+G(d,p)\B1H2(2)\SZHAO\16-Apr-2025\0\\
 #p opt UM062X/6-311+G** nosymm int=superfine\\Title Card Required\\0,2
 \B,0.9234162663,0.0000000936,-0.0000003771\H,1.4422725744,1.0664212778
 ,-0.0005004404\H,1.4422751693,-1.0664198315,0.0004958174\\Version=ES64
 L-G16RevA.03\HF=-25.91969\S2=0.751416\S2-1=0.\S2A=0.750001\RMSD=9.300e
 -09\RMSF=2.235e-05\Dipole=0.2037698,0.0000002,-0.0000008\Quadrupole=-0
 .407002,-0.3929333,0.7999353,-0.0000004,0.0000057,0.0005572\PG=C02V [C
 2(B1),SGV(H2)]\\@

 Normal termination of Gaussian 16 at Wed Apr 16 06:52:02 2025.
