 Gaussian 16, Revision A.03,
 Gaussian 16:  ES64L-G16RevA.03 25-Dec-2016

 --------------------------------------------
 #p opt UM062X/6-311+G** nosymm int=superfine
 --------------------------------------------

 -------------------
 Title Card Required
 -------------------
 Symbolic Z-matrix:
 Charge =  0 Multiplicity = 1

 SCF Done:  E(UM062X) =  -151.531578714     A.U. after   12 cycles
 SCF Done:  E(UM062X) =  -151.534409340     A.U. after   12 cycles
 SCF Done:  E(UM062X) =  -151.535198353     A.U. after   12 cycles
 SCF Done:  E(UM062X) =  -151.535215352     A.U. after    8 cycles
 SCF Done:  E(UM062X) =  -151.535214521     A.U. after    8 cycles
 SCF Done:  E(UM062X) =  -151.535216598     A.U. after    8 cycles
 Optimization completed.
    -- Stationary point found.

                          Input orientation:
 ---------------------------------------------------------------------
 Center     Atomic      Atomic             Coordinates (Angstroms)
 Number     Number       Type             X           Y           Z
 ---------------------------------------------------------------------
      1          8           0        0.027043    0.711424   -0.054836
      2          8           0       -0.027043   -0.711424   -0.054836
      3          1           0        0.848673    0.870113    0.424036
      4          1           0       -0.848673   -0.870113    0.424036
 ---------------------------------------------------------------------

 Alpha  occ. eigenvalues --  -19.68964 -19.68946  -1.27169  -1.02168  -0.62367
 Alpha  occ. eigenvalues --   -0.59628  -0.51802  -0.41688  -0.37024
 Alpha virt. eigenvalues --    0.04958   0.06073   0.12062   0.16167   0.18129
 Alpha virt. eigenvalues --    0.18819   0.20981   0.21013   0.22071   0.27649
 Alpha virt. eigenvalues --    0.33731   0.51222   0.52001   0.98474   1.00401

  Beta  occ. eigenvalues --  -19.68964 -19.68946  -1.27169  -1.02168  -0.62367
  Beta  occ. eigenvalues --   -0.59628  -0.51802  -0.41688  -0.37024
  Beta virt. eigenvalues --    0.04958   0.06073   0.12062   0.16167   0.18129
  Beta virt. eigenvalues --    0.18819   0.20981   0.21013   0.22071   0.27649
  Beta virt. eigenvalues --    0.33731   0.51222   0.52001   0.98474   1.00401

 Mulliken charges and spin densities:
               1          2
     1  O   -0.270899  -0.000000
     2  O   -0.270898   0.000000
     3  H    0.270898  -0.000000
     4  H    0.270898  -0.000000
 Sum of Mulliken charges =  -0.00000  -0.00000

 Dipole moment (field-independent basis, Debye):
    X=              0.0000    Y=             -0.0000    Z=              1.8169  Tot=              1.8169
 Quadrupole moment (field-independent basis, Debye-Ang):
   XX=             -9.2837   YY=            -11.9444   ZZ=            -12.1040
   XY=              3.1888   XZ=              0.0000   YZ=              0.0000

 Normal termination of Gaussian 16 at Wed Apr 16 04:29:57 2025.
