 Gaussian 16, Revision A.03,
 Gaussian 16:  ES64L-G16RevA.03 25-Dec-2016

 --------------------------------------------
 #p opt UM062X/6-311+G** nosymm int=superfine
 --------------------------------------------

 -------------------
 Title Card Required
 -------------------
 Symbolic Z-matrix:
 Charge =  0 Multiplicity = 1

 SCF Done:  E(UM062X) =  -51.8706510109     A.U. after    8 cycles
 SCF Done:  E(UM062X) =  -51.8740310526     A.U. after    8 cycles
 SCF Done:  E(UM062X) =  -51.8755172084     A.U. after    9 cycles
 SCF Done:  E(UM062X) =  -51.8755162233     A.U. after    8 cycles
 SCF Done:  E(UM062X) =  -51.8755094462     A.U. after    9 cycles
 SCF Done:  E(UM062X) =  -51.8755176791     A.U. after    8 cycles
 Optimization completed.
    -- Stationary point found.

                          Input orientation:
 ---------------------------------------------------------------------
 Center     Atomic      Atomic             Coordinates (Angstroms)
 Number     Number       Type             X           Y           Z
 ---------------------------------------------------------------------
      1          5           0       -1.470607    0.000000    0.000000
      2          5           0        1.470607    0.000000    0.000000
      3          1           0       -1.982124   -1.065427   -0.001929
      4          1           0        1.982124    1.065402   -0.007575
      5          1           0       -1.982124    1.065428    0.001093
      6          1           0        1.982124   -1.065407    0.006750
 ---------------------------------------------------------------------

 Alpha  occ. eigenvalues --   -7.10122  -7.10119  -0.57517  -0.56230  -0.43796
 Alpha  occ. eigenvalues --   -0.43173  -0.24365
 Alpha virt. eigenvalues --   -0.05546  -0.02203  -0.00853   0.02310   0.03914
 Alpha virt. eigenvalues --    0.04269   0.05866   0.06236   0.07472   0.07829
 Alpha virt. eigenvalues --    0.10583   0.15887   0.17321   0.17704   0.25892

  Beta  occ. eigenvalues --   -7.10122  -7.10119  -0.57517  -0.56230  -0.43796
  Beta  occ. eigenvalues --   -0.43173  -0.24365
  Beta virt. eigenvalues --   -0.05546  -0.02203  -0.00853   0.02310   0.03914
  Beta virt. eigenvalues --    0.04269   0.05866   0.06236   0.07472   0.07829
  Beta virt. eigenvalues --    0.10583   0.15887   0.17321   0.17704   0.25892

 Mulliken charges and spin densities:
               1          2
     1  B   -0.046881  -0.000000
     2  B   -0.046881   0.000000
     3  H    0.023440  -0.000000
     4  H    0.023441  -0.000000
     5  H    0.023441   0.000000
     6  H    0.023441  -0.000000
 Sum of Mulliken charges =  -0.00000  -0.00000

 Dipole moment (field-independent basis, Debye):
    X=             -0.0000    Y=             -0.0000    Z=             -0.0000  Tot=              0.0000
 Quadrupole moment (field-independent basis, Debye-Ang):
   XX=            -14.5431   YY=            -16.8767   ZZ=            -13.9080
   XY=              0.0000   XZ=             -0.0000   YZ=              0.0079

 Normal termination of Gaussian 16 at Mon Apr 21 17:12:39 2025.
