 Gaussian 16, Revision A.03,
 Gaussian 16:  ES64L-G16RevA.03 25-Dec-2016

 --------------------------------------------
 #p opt UM062X/6-311+G** nosymm int=superfine
 --------------------------------------------

 -------------------
 Title Card Required
 -------------------
 Symbolic Z-matrix:
 Charge =  1 Multiplicity = 2

 SCF Done:  E(UM062X) =  -92.8652738799     A.U. after   14 cycles
 SCF Done:  E(UM062X) =  -92.8653137716     A.U. after   12 cycles
 Optimization completed.
    -- Stationary point found.

                          Input orientation:
 ---------------------------------------------------------------------
 Center     Atomic      Atomic             Coordinates (Angstroms)
 Number     Number       Type             X           Y           Z
 ---------------------------------------------------------------------
      1          6           0       -0.701540    0.000000    0.000000
      2          7           0        0.701540    0.000000    0.000000
      3          1           0       -1.803849    0.000000    0.000000
 ---------------------------------------------------------------------

 Alpha  occ. eigenvalues --  -15.24019 -11.06860  -1.35285  -1.05026  -0.84011
 Alpha  occ. eigenvalues --   -0.78131  -0.75127
 Alpha virt. eigenvalues --   -0.39261  -0.36812  -0.22631  -0.16298  -0.11238
 Alpha virt. eigenvalues --   -0.10903  -0.08074  -0.03577  -0.01429  -0.01195
 Alpha virt. eigenvalues --    0.04833   0.09828   0.28257   0.28709   0.31279

  Beta  occ. eigenvalues --  -15.23455 -11.06752  -1.30105  -1.03503  -0.81746
  Beta  occ. eigenvalues --   -0.72856
  Beta virt. eigenvalues --   -0.51121  -0.35183  -0.30701  -0.21351  -0.16968
  Beta virt. eigenvalues --   -0.11153  -0.11016  -0.07839  -0.03861  -0.01978
  Beta virt. eigenvalues --   -0.01439   0.03999   0.09627   0.26360   0.28339

 Mulliken charges and spin densities:
               1          2
     1  C    0.308282   0.354414
     2  N    0.325305   0.658814
     3  H    0.366413  -0.013229
 Sum of Mulliken charges =   1.00000   1.00000

 Dipole moment (field-independent basis, Debye):
    X=             -3.8832    Y=             -0.0000    Z=              0.0000  Tot=              3.8832
 Quadrupole moment (field-independent basis, Debye-Ang):
   XX=             -2.9487   YY=             -9.7329   ZZ=             -9.4990
   XY=             -0.0000   XZ=             -0.0000   YZ=              0.7905

 Normal termination of Gaussian 16 at Mon Apr 21 18:26:39 2025.
