 Gaussian 16, Revision A.03,
 Gaussian 16:  ES64L-G16RevA.03 25-Dec-2016

 --------------------------------------------
 #p opt UM062X/6-311+G** nosymm int=superfine
 --------------------------------------------

 -------------------
 Title Card Required
 -------------------
 Symbolic Z-matrix:
 Charge =  0 Multiplicity = 1

 SCF Done:  E(UM062X) =  -81.8266793084     A.U. after   12 cycles
 SCF Done:  E(UM062X) =  -81.8315103175     A.U. after   10 cycles
 SCF Done:  E(UM062X) =  -81.8338727186     A.U. after   12 cycles
 SCF Done:  E(UM062X) =  -81.8286119553     A.U. after   13 cycles
 SCF Done:  E(UM062X) =  -81.8340407765     A.U. after   10 cycles
 SCF Done:  E(UM062X) =  -81.8249372813     A.U. after   13 cycles
 SCF Done:  E(UM062X) =  -81.8371951093     A.U. after   12 cycles
 SCF Done:  E(UM062X) =  -81.8321234965     A.U. after   13 cycles
 SCF Done:  E(UM062X) =  -81.8475720068     A.U. after   12 cycles
 SCF Done:  E(UM062X) =  -81.8490208843     A.U. after   11 cycles
 SCF Done:  E(UM062X) =  -81.8483327677     A.U. after   11 cycles
 SCF Done:  E(UM062X) =  -81.8495993267     A.U. after   10 cycles
 SCF Done:  E(UM062X) =  -81.8496077688     A.U. after    9 cycles
 SCF Done:  E(UM062X) =  -81.8496088550     A.U. after    9 cycles
 Optimization completed.
    -- Stationary point found.

                          Input orientation:
 ---------------------------------------------------------------------
 Center     Atomic      Atomic             Coordinates (Angstroms)
 Number     Number       Type             X           Y           Z
 ---------------------------------------------------------------------
      1          5           0       -1.195399    0.000000    0.000000
      2          7           0        1.195399    0.000000    0.000000
      3          1           0       -1.629504   -1.091207   -0.033529
      4          1           0        1.337370    0.811892    0.603636
      5          1           0       -1.629502    1.091196   -0.033914
      6          1           0        1.337369   -0.811698    0.603897
 ---------------------------------------------------------------------

 Alpha  occ. eigenvalues --  -14.72524  -7.15008  -0.88673  -0.60298  -0.50147
 Alpha  occ. eigenvalues --   -0.47448  -0.35298  -0.29339
 Alpha virt. eigenvalues --   -0.06114  -0.01489   0.01395   0.03296   0.05008
 Alpha virt. eigenvalues --    0.05866   0.11302   0.13822   0.14002   0.16931
 Alpha virt. eigenvalues --    0.20474   0.20815   0.21376   0.29799   0.33621

  Beta  occ. eigenvalues --  -14.72524  -7.15008  -0.88673  -0.60298  -0.50147
  Beta  occ. eigenvalues --   -0.47448  -0.35298  -0.29339
  Beta virt. eigenvalues --   -0.06114  -0.01489   0.01395   0.03296   0.05008
  Beta virt. eigenvalues --    0.05866   0.11302   0.13822   0.14002   0.16931
  Beta virt. eigenvalues --    0.20474   0.20815   0.21376   0.29799   0.33621

 Mulliken charges and spin densities:
               1          2
     1  B    0.195949  -0.000000
     2  N   -0.743814   0.000000
     3  H    0.042603  -0.000000
     4  H    0.231329  -0.000000
     5  H    0.042603   0.000000
     6  H    0.231329  -0.000000
 Sum of Mulliken charges =  -0.00000  -0.00000

 Dipole moment (field-independent basis, Debye):
    X=             -2.8011    Y=              0.0003    Z=              1.6423  Tot=              3.2471
 Quadrupole moment (field-independent basis, Debye-Ang):
   XX=            -14.8730   YY=            -13.3504   ZZ=            -14.4500
   XY=              0.0004   XZ=              2.6315   YZ=             -0.0002

 Normal termination of Gaussian 16 at Mon Apr 21 17:46:55 2025.
