 Gaussian 16, Revision A.03,
 Gaussian 16:  ES64L-G16RevA.03 25-Dec-2016

 --------------------------------------------
 #p opt UM062X/6-311+G** nosymm int=superfine
 --------------------------------------------

 -------------------
 Title Card Required
 -------------------
 Symbolic Z-matrix:
 Charge =  1 Multiplicity = 2

 SCF Done:  E(UM062X) =  -79.3555202477     A.U. after   10 cycles
 SCF Done:  E(UM062X) =  -79.3667531948     A.U. after    9 cycles
 SCF Done:  E(UM062X) =  -79.3668695741     A.U. after    9 cycles
 Optimization completed.
    -- Stationary point found.

                          Input orientation:
 ---------------------------------------------------------------------
 Center     Atomic      Atomic             Coordinates (Angstroms)
 Number     Number       Type             X           Y           Z
 ---------------------------------------------------------------------
      1          6           0       -0.913070    0.000000    0.000000
      2          6           0        0.913070    0.000000    0.000000
      3          1           0        1.082587   -0.929525    0.537885
      4          1           0       -1.081791   -0.930723   -0.536108
      5          1           0        1.081906    0.930730    0.536058
      6          1           0        1.081796   -0.001031   -1.074083
      7          1           0       -1.082594    0.929526   -0.537880
      8          1           0       -1.081903    0.000992    1.074064
 ---------------------------------------------------------------------

 Alpha  occ. eigenvalues --  -10.86163 -10.86147  -1.13634  -1.00648  -0.80278
 Alpha  occ. eigenvalues --   -0.80274  -0.72923  -0.72923  -0.66763
 Alpha virt. eigenvalues --   -0.18265  -0.16892  -0.11515  -0.11514  -0.09483
 Alpha virt. eigenvalues --   -0.07683  -0.06651  -0.06648  -0.05827  -0.05826
 Alpha virt. eigenvalues --   -0.01288   0.01320   0.01325   0.03756   0.07614

  Beta  occ. eigenvalues --  -10.85931 -10.85931  -1.10000  -0.97274  -0.79129
  Beta  occ. eigenvalues --   -0.79126  -0.71988  -0.71986
  Beta virt. eigenvalues --   -0.42766  -0.16327  -0.14775  -0.11313  -0.11313
  Beta virt. eigenvalues --   -0.07954  -0.06751  -0.06749  -0.06248  -0.05429
  Beta virt. eigenvalues --   -0.05426  -0.00045   0.02065   0.02070   0.04346

 Mulliken charges and spin densities:
               1          2
     1  C   -0.327046   0.528832
     2  C   -0.327046   0.528832
     3  H    0.275679  -0.009686
     4  H    0.275681  -0.009572
     5  H    0.275686  -0.009576
     6  H    0.275681  -0.009571
     7  H    0.275679  -0.009686
     8  H    0.275685  -0.009574
 Sum of Mulliken charges =   1.00000   1.00000

 Dipole moment (field-independent basis, Debye):
    X=              0.0000    Y=             -0.0000    Z=             -0.0000  Tot=              0.0000
 Quadrupole moment (field-independent basis, Debye-Ang):
   XX=             -7.2357   YY=            -10.6681   ZZ=            -10.6676
   XY=             -0.0001   XZ=              0.0000   YZ=              0.0004

 Normal termination of Gaussian 16 at Wed Nov 13 13:30:32 2024.
