 Gaussian 16, Revision A.03,
 Gaussian 16:  ES64L-G16RevA.03 25-Dec-2016

 ---------------------------------------
 #p UM062X/6-311+G** force int=superfine
 ---------------------------------------

 -------------------
 Title Card Required
 -------------------
 Symbolic Z-matrix:
 Charge =  1 Multiplicity = 2

                         Standard orientation:
 ---------------------------------------------------------------------
 Center     Atomic      Atomic             Coordinates (Angstroms)
 Number     Number       Type             X           Y           Z
 ---------------------------------------------------------------------
      1          6           0       -0.000000    0.657410    0.000000
      2          6           0       -0.000000   -0.657410    0.000000
      3          1           0        0.926152    1.228737    0.000000
      4          1           0       -0.926002    1.228844    0.000000
      5          1           0       -0.926152   -1.228737   -0.000000
      6          1           0        0.926002   -1.228844    0.000000
 ---------------------------------------------------------------------

 SCF Done:  E(UM062X) =  -78.1744150730     A.U. after    9 cycles

 The electronic state is 2-AU.
 Alpha  occ. eigenvalues --  -10.88880 -10.88748  -1.21820  -0.97232  -0.86063
 Alpha  occ. eigenvalues --   -0.81438  -0.71506  -0.69407
 Alpha virt. eigenvalues --   -0.27572  -0.14768  -0.13015  -0.12490  -0.10063
 Alpha virt. eigenvalues --   -0.07898  -0.06734  -0.04912  -0.04359  -0.02840
 Alpha virt. eigenvalues --   -0.00281   0.02691   0.11264   0.11306   0.20999

  Beta  occ. eigenvalues --  -10.88639 -10.88523  -1.17593  -0.95349  -0.84810
  Beta  occ. eigenvalues --   -0.80525  -0.71211
  Beta virt. eigenvalues --   -0.43808  -0.20922  -0.16485  -0.13014  -0.12469
  Beta virt. eigenvalues --   -0.10665  -0.08813  -0.06791  -0.04805  -0.03378
  Beta virt. eigenvalues --   -0.02403  -0.00555   0.02807   0.11720   0.12289

 Mulliken charges and spin densities:
               1          2
     1  C   -0.048079   0.537109
     2  C   -0.048079   0.537109
     3  H    0.274036  -0.018556
     4  H    0.274043  -0.018553
     5  H    0.274036  -0.018556
     6  H    0.274043  -0.018553
 Sum of Mulliken charges =   1.00000   1.00000

 Dipole moment (field-independent basis, Debye):
    X=              0.0000    Y=             -0.0000    Z=             -0.0000  Tot=              0.0000
 Quadrupole moment (field-independent basis, Debye-Ang):
   XX=             -8.4869   YY=             -5.9482   ZZ=            -11.2768
   XY=             -0.0001   XZ=              0.0000   YZ=              0.0000

 Normal termination of Gaussian 16 at Tue Nov 19 11:53:42 2024.
