 Gaussian 16, Revision A.03,
 Gaussian 16:  ES64L-G16RevA.03 25-Dec-2016

 --------------------------------------------
 #p opt UM062X/6-311+G** nosymm int=superfine
 --------------------------------------------

 -------------------
 Title Card Required
 -------------------
 Symbolic Z-matrix:
 Charge =  0 Multiplicity = 1

 SCF Done:  E(UM062X) =  -797.385931003     A.U. after   15 cycles
 SCF Done:  E(UM062X) =  -797.385931462     A.U. after   13 cycles
 SCF Done:  E(UM062X) =  -797.385931703     A.U. after   12 cycles
 SCF Done:  E(UM062X) =  -797.385931869     A.U. after   12 cycles
 SCF Done:  E(UM062X) =  -797.385932065     A.U. after   16 cycles
 SCF Done:  E(UM062X) =  -797.385932042     A.U. after   12 cycles
 Optimization completed.
    -- Stationary point found.

                          Input orientation:
 ---------------------------------------------------------------------
 Center     Atomic      Atomic             Coordinates (Angstroms)
 Number     Number       Type             X           Y           Z
 ---------------------------------------------------------------------
      1         16           0       -2.268191    0.000000    0.000000
      2         16           0        2.268191    0.000000    0.000000
      3          1           0       -2.117173   -1.277127   -0.398171
      4          1           0        2.109128    0.453873    1.257419
 ---------------------------------------------------------------------

 Alpha  occ. eigenvalues --  -89.94390 -89.94388  -8.30645  -8.30643  -6.22788
 Alpha  occ. eigenvalues --   -6.22786  -6.22542  -6.22540  -6.21974  -6.21971
 Alpha  occ. eigenvalues --   -0.81399  -0.81156  -0.47369  -0.47334  -0.33422
 Alpha  occ. eigenvalues --   -0.33298  -0.30261
 Alpha virt. eigenvalues --   -0.22311   0.01857   0.02979   0.04376   0.04872
 Alpha virt. eigenvalues --    0.06545   0.06616   0.07265   0.07428   0.08579
 Alpha virt. eigenvalues --    0.12940   0.30898   0.31396   0.32645   0.35077

  Beta  occ. eigenvalues --  -89.94390 -89.94388  -8.30645  -8.30643  -6.22788
  Beta  occ. eigenvalues --   -6.22786  -6.22542  -6.22540  -6.21974  -6.21971
  Beta  occ. eigenvalues --   -0.81399  -0.81156  -0.47369  -0.47334  -0.33422
  Beta  occ. eigenvalues --   -0.33298  -0.30261
  Beta virt. eigenvalues --   -0.22311   0.01857   0.02979   0.04376   0.04872
  Beta virt. eigenvalues --    0.06545   0.06616   0.07265   0.07428   0.08579
  Beta virt. eigenvalues --    0.12940   0.30898   0.31396   0.32645   0.35077

 Mulliken charges and spin densities:
               1          2
     1  S   -0.081713   0.000000
     2  S   -0.081325   0.000000
     3  H    0.081502   0.000000
     4  H    0.081537   0.000000
 Sum of Mulliken charges =  -0.00000   0.00000

 Dipole moment (field-independent basis, Debye):
    X=             -0.0040    Y=             -0.6830    Z=              0.7139  Tot=              0.9880
 Quadrupole moment (field-independent basis, Debye-Ang):
   XX=            -25.8414   YY=            -27.9965   ZZ=            -28.2124
   XY=              3.1412   XZ=              2.9972   YZ=              2.4315

 Normal termination of Gaussian 16 at Mon Apr 21 23:02:12 2025.
