 Gaussian 16, Revision A.03,
 Gaussian 16:  ES64L-G16RevA.03 25-Dec-2016

 --------------------------------------------
 #p opt UM062X/6-311+G** nosymm int=superfine
 --------------------------------------------

 -------------------
 Title Card Required
 -------------------
 Symbolic Z-matrix:
 Charge =  0 Multiplicity = 1

 SCF Done:  E(UM062X) =  -474.386385414     A.U. after   18 cycles
 SCF Done:  E(UM062X) =  -474.387679012     A.U. after   24 cycles
 SCF Done:  E(UM062X) =  -474.389501887     A.U. after   21 cycles
 SCF Done:  E(UM062X) =  -474.390032383     A.U. after   22 cycles
 SCF Done:  E(UM062X) =  -474.390102786     A.U. after   17 cycles
 SCF Done:  E(UM062X) =  -474.390120776     A.U. after   22 cycles
 SCF Done:  E(UM062X) =  -474.390129969     A.U. after   17 cycles
 SCF Done:  E(UM062X) =  -474.390135959     A.U. after   17 cycles
 SCF Done:  E(UM062X) =  -474.390139047     A.U. after   26 cycles
 SCF Done:  E(UM062X) =  -474.390139894     A.U. after   16 cycles
 SCF Done:  E(UM062X) =  -474.390140370     A.U. after   16 cycles
 SCF Done:  E(UM062X) =  -474.390140480     A.U. after   15 cycles
 SCF Done:  E(UM062X) =  -474.390140486     A.U. after   20 cycles
 Optimization completed.
    -- Stationary point found.

                          Input orientation:
 ---------------------------------------------------------------------
 Center     Atomic      Atomic             Coordinates (Angstroms)
 Number     Number       Type             X           Y           Z
 ---------------------------------------------------------------------
      1          8           0       -1.614392    0.000000    0.000000
      2         16           0        1.614392    0.000000    0.000000
      3          1           0       -1.591233   -0.873364   -0.421967
      4          1           0        1.411226    0.553876    1.210637
 ---------------------------------------------------------------------

 Alpha  occ. eigenvalues --  -89.97863 -19.67387  -8.33990  -6.26206  -6.25835
 Alpha  occ. eigenvalues --   -6.25270  -1.08515  -0.83751  -0.52585  -0.49605
 Alpha  occ. eigenvalues --   -0.39819  -0.35656  -0.34976
 Alpha virt. eigenvalues --   -0.21502   0.01609   0.03942   0.04651   0.05482
 Alpha virt. eigenvalues --    0.07005   0.13816   0.19333   0.19892   0.21255
 Alpha virt. eigenvalues --    0.25581   0.30902   0.33941   0.34684   0.39336

  Beta  occ. eigenvalues --  -89.97863 -19.67387  -8.33990  -6.26206  -6.25835
  Beta  occ. eigenvalues --   -6.25270  -1.08515  -0.83751  -0.52585  -0.49605
  Beta  occ. eigenvalues --   -0.39819  -0.35656  -0.34976
  Beta virt. eigenvalues --   -0.21502   0.01609   0.03942   0.04651   0.05482
  Beta virt. eigenvalues --    0.07005   0.13816   0.19333   0.19892   0.21255
  Beta virt. eigenvalues --    0.25581   0.30902   0.33941   0.34684   0.39336

 Mulliken charges and spin densities:
               1          2
     1  O   -0.403365   0.000000
     2  S    0.045244  -0.000000
     3  H    0.247313  -0.000000
     4  H    0.110807   0.000000
 Sum of Mulliken charges =   0.00000   0.00000

 Dipole moment (field-independent basis, Debye):
    X=              2.2098    Y=             -1.0753    Z=              0.3248  Tot=              2.4789
 Quadrupole moment (field-independent basis, Debye-Ang):
   XX=            -18.2894   YY=            -19.9647   ZZ=            -18.8232
   XY=              3.4495   XZ=              2.9996   YZ=              2.5403

 Normal termination of Gaussian 16 at Thu May 15 13:12:03 2025.
