 Gaussian 16, Revision A.03,
 Gaussian 16:  ES64L-G16RevA.03 25-Dec-2016

 -------------------------------------------------------------------
 #p opt UM062X/6-311+G** nosymm int=superfine SCF=NoVarAcc SCF=tight
 -------------------------------------------------------------------

 -------------------
 Title Card Required
 -------------------
 Symbolic Z-matrix:
 Charge =  1 Multiplicity = 2

 SCF Done:  E(UM062X) =  -77.8883754907     A.U. after   11 cycles
 SCF Done:  E(UM062X) =  -77.8924049920     A.U. after   10 cycles
 SCF Done:  E(UM062X) =  -77.8952165289     A.U. after   10 cycles
 SCF Done:  E(UM062X) =  -77.8952208732     A.U. after    9 cycles
 Optimization completed.
    -- Stationary point found.

                          Input orientation:
 ---------------------------------------------------------------------
 Center     Atomic      Atomic             Coordinates (Angstroms)
 Number     Number       Type             X           Y           Z
 ---------------------------------------------------------------------
      1          6           0       -4.606027    0.000000    0.000000
      2          6           0        4.606027    0.000000    0.000000
      3          1           0       -5.169330   -0.941241   -0.000000
      4          1           0       -5.169265    0.941279   -0.000000
      5          1           0        5.169330    0.941241   -0.000000
      6          1           0        5.169265   -0.941279   -0.000000
 ---------------------------------------------------------------------

 Alpha  occ. eigenvalues --  -10.85517 -10.85517  -0.97110  -0.97110  -0.71738
 Alpha  occ. eigenvalues --   -0.71738  -0.54544  -0.54544
 Alpha virt. eigenvalues --   -0.28800  -0.28800  -0.09562  -0.09561  -0.05340
 Alpha virt. eigenvalues --   -0.05258  -0.03990  -0.03547  -0.03462  -0.02998
 Alpha virt. eigenvalues --    0.02822   0.02823   0.03405   0.03490   0.29701

  Beta  occ. eigenvalues --  -10.84789 -10.84789  -0.94983  -0.94971  -0.70737
  Beta  occ. eigenvalues --   -0.70737  -0.40568
  Beta virt. eigenvalues --   -0.37252  -0.27205  -0.27201  -0.09864  -0.09857
  Beta virt. eigenvalues --   -0.05876  -0.05778  -0.04349  -0.04050  -0.03959
  Beta virt. eigenvalues --   -0.03243   0.02872   0.02881   0.03882   0.03973

 Mulliken charges and spin densities:
               1          2
     1  C    0.039249   0.486129
     2  C    0.039249   0.486129
     3  H    0.230376   0.006935
     4  H    0.230375   0.006935
     5  H    0.230376   0.006935
     6  H    0.230375   0.006935
 Sum of Mulliken charges =   1.00000   1.00000

 Dipole moment (field-independent basis, Debye):
    X=              0.0000    Y=             -0.0000    Z=             -0.0000  Tot=              0.0000
 Quadrupole moment (field-independent basis, Debye-Ang):
   XX=            119.6366   YY=             -9.5071   ZZ=            -10.6592
   XY=             -0.0004   XZ=             -0.0000   YZ=              0.0000

 Normal termination of Gaussian 16 at Tue Dec  3 15:41:49 2024.
