 Gaussian 16, Revision A.03,
 Gaussian 16:  ES64L-G16RevA.03 25-Dec-2016

 --------------------------------------------
 #p opt UM062X/6-311+G** nosymm int=superfine
 --------------------------------------------

 -------------------
 Title Card Required
 -------------------
 Symbolic Z-matrix:
 Charge =  0 Multiplicity = 1

 SCF Done:  E(UM062X) =  -797.375392317     A.U. after   15 cycles
 SCF Done:  E(UM062X) =  -797.375436210     A.U. after   13 cycles
 SCF Done:  E(UM062X) =  -797.375546404     A.U. after   15 cycles
 SCF Done:  E(UM062X) =  -797.375592898     A.U. after   17 cycles
 SCF Done:  E(UM062X) =  -797.375722469     A.U. after   17 cycles
 SCF Done:  E(UM062X) =  -797.375901051     A.U. after   16 cycles
 SCF Done:  E(UM062X) =  -797.375897241     A.U. after   18 cycles
 SCF Done:  E(UM062X) =  -797.375901848     A.U. after   13 cycles
 Optimization completed.
    -- Stationary point found.

                          Input orientation:
 ---------------------------------------------------------------------
 Center     Atomic      Atomic             Coordinates (Angstroms)
 Number     Number       Type             X           Y           Z
 ---------------------------------------------------------------------
      1         16           0       -2.518191    0.000000    0.000000
      2         16           0        2.518191    0.000000    0.000000
      3          1           0       -2.371065   -1.308236   -0.282178
      4          1           0        2.366457    0.316154    1.299805
 ---------------------------------------------------------------------

 Alpha  occ. eigenvalues --  -89.94233 -89.94232  -8.30506  -8.30505  -6.22644
 Alpha  occ. eigenvalues --   -6.22644  -6.22406  -6.22406  -6.21836  -6.21836
 Alpha  occ. eigenvalues --   -0.81295  -0.81145  -0.47306  -0.47304  -0.33329
 Alpha  occ. eigenvalues --   -0.33289  -0.29575
 Alpha virt. eigenvalues --   -0.22926   0.01770   0.02960   0.04436   0.04734
 Alpha virt. eigenvalues --    0.06397   0.06598   0.07033   0.07346   0.08138
 Alpha virt. eigenvalues --    0.12653   0.31924   0.32294   0.32420   0.35243

  Beta  occ. eigenvalues --  -89.94233 -89.94232  -8.30506  -8.30505  -6.22644
  Beta  occ. eigenvalues --   -6.22644  -6.22406  -6.22406  -6.21836  -6.21836
  Beta  occ. eigenvalues --   -0.81295  -0.81145  -0.47306  -0.47304  -0.33329
  Beta  occ. eigenvalues --   -0.33289  -0.29575
  Beta virt. eigenvalues --   -0.22926   0.01770   0.02960   0.04436   0.04734
  Beta virt. eigenvalues --    0.06397   0.06598   0.07033   0.07346   0.08138
  Beta virt. eigenvalues --    0.12653   0.31924   0.32294   0.32420   0.35243

 Mulliken charges and spin densities:
               1          2
     1  S   -0.079910   0.000000
     2  S   -0.079737   0.000000
     3  H    0.079816   0.000000
     4  H    0.079831   0.000000
 Sum of Mulliken charges =  -0.00000   0.00000

 Dipole moment (field-independent basis, Debye):
    X=             -0.0023    Y=             -0.8205    Z=              0.8423  Tot=              1.1759
 Quadrupole moment (field-independent basis, Debye-Ang):
   XX=            -26.2941   YY=            -28.0544   ZZ=            -28.1465
   XY=              3.2348   XZ=              3.1446   YZ=              1.7431

 Normal termination of Gaussian 16 at Mon Apr 21 21:16:31 2025.
