 Gaussian 16, Revision A.03,
 Gaussian 16:  ES64L-G16RevA.03 25-Dec-2016

 --------------------------------------------
 #p opt UM062X/6-311+G** nosymm int=superfine
 --------------------------------------------

 -------------------
 Title Card Required
 -------------------
 Symbolic Z-matrix:
 Charge =  0 Multiplicity = 1

 SCF Done:  E(UM062X) =  -111.625213413     A.U. after   16 cycles
 SCF Done:  E(UM062X) =  -111.632695997     A.U. after   14 cycles
 SCF Done:  E(UM062X) =  -111.638187924     A.U. after   15 cycles
 SCF Done:  E(UM062X) =  -111.640620536     A.U. after   14 cycles
 SCF Done:  E(UM062X) =  -111.642451473     A.U. after   15 cycles
 SCF Done:  E(UM062X) =  -111.642887767     A.U. after   14 cycles
 SCF Done:  E(UM062X) =  -111.643532672     A.U. after   15 cycles
 SCF Done:  E(UM062X) =  -111.643740616     A.U. after   15 cycles
 SCF Done:  E(UM062X) =  -111.643808908     A.U. after   14 cycles
 SCF Done:  E(UM062X) =  -111.643842292     A.U. after   13 cycles
 SCF Done:  E(UM062X) =  -111.643909862     A.U. after   14 cycles
 SCF Done:  E(UM062X) =  -111.643922098     A.U. after   12 cycles
 SCF Done:  E(UM062X) =  -111.643923376     A.U. after   12 cycles
 SCF Done:  E(UM062X) =  -111.643923427     A.U. after    9 cycles
 Optimization completed.
    -- Stationary point found.

                          Input orientation:
 ---------------------------------------------------------------------
 Center     Atomic      Atomic             Coordinates (Angstroms)
 Number     Number       Type             X           Y           Z
 ---------------------------------------------------------------------
      1          7           0       -1.711540    0.000000    0.000000
      2          7           0        1.711540    0.000000    0.000000
      3          1           0       -1.603988   -0.813768   -0.618356
      4          1           0        1.603802    0.406220   -0.937831
      5          1           0       -1.603710   -0.406669    0.937629
      6          1           0        1.603909    0.814054    0.617959
 ---------------------------------------------------------------------

 Alpha  occ. eigenvalues --  -14.80565 -14.80564  -0.95228  -0.94753  -0.55290
 Alpha  occ. eigenvalues --   -0.54993  -0.40870  -0.40456  -0.29204
 Alpha virt. eigenvalues --   -0.17643   0.04405   0.06257   0.08698   0.11496
 Alpha virt. eigenvalues --    0.12596   0.13706   0.15772   0.16131   0.18412
 Alpha virt. eigenvalues --    0.19293   0.25567   0.27411   0.51352   0.51446

  Beta  occ. eigenvalues --  -14.80565 -14.80564  -0.95228  -0.94753  -0.55290
  Beta  occ. eigenvalues --   -0.54993  -0.40870  -0.40456  -0.29204
  Beta virt. eigenvalues --   -0.17643   0.04405   0.06257   0.08698   0.11496
  Beta virt. eigenvalues --    0.12596   0.13706   0.15772   0.16131   0.18412
  Beta virt. eigenvalues --    0.19293   0.25567   0.27411   0.51352   0.51446

 Mulliken charges and spin densities:
               1          2
     1  N   -0.489600   0.000005
     2  N   -0.489603  -0.000005
     3  H    0.244795  -0.000000
     4  H    0.244797   0.000000
     5  H    0.244807  -0.000000
     6  H    0.244805   0.000000
 Sum of Mulliken charges =  -0.00000   0.00000

 Dipole moment (field-independent basis, Debye):
    X=              0.0000    Y=             -0.0003    Z=             -0.0010  Tot=              0.0010
 Quadrupole moment (field-independent basis, Debye-Ang):
   XX=            -16.4125   YY=            -14.3299   ZZ=            -11.5142
   XY=              7.1229   XZ=             -1.8648   YZ=              0.7917

 Normal termination of Gaussian 16 at Thu May 15 14:57:24 2025.
