 Gaussian 16, Revision A.03,
 Gaussian 16:  ES64L-G16RevA.03 25-Dec-2016

 --------------------------------------------
 #p opt UM062X/6-311+G** nosymm int=superfine
 --------------------------------------------

 -------------------
 Title Card Required
 -------------------
 Symbolic Z-matrix:
 Charge =  0 Multiplicity = 1

 SCF Done:  E(UM062X) =  -379.972656938     A.U. after   11 cycles
 SCF Done:  E(UM062X) =  -379.972658057     A.U. after    7 cycles
 Optimization completed.
    -- Stationary point found.

                          Input orientation:
 ---------------------------------------------------------------------
 Center     Atomic      Atomic             Coordinates (Angstroms)
 Number     Number       Type             X           Y           Z
 ---------------------------------------------------------------------
      1          6           0       -0.790377    0.000000    0.000000
      2         15           0        0.790377    0.000000    0.000000
      3          1           0       -1.865169   -0.000000    0.000000
 ---------------------------------------------------------------------

 Alpha  occ. eigenvalues --  -78.03630 -10.58653  -6.86251  -4.97688  -4.97688
 Alpha  occ. eigenvalues --   -4.97596  -0.80190  -0.61858  -0.42158  -0.33480
 Alpha  occ. eigenvalues --   -0.33480
 Alpha virt. eigenvalues --   -0.02725  -0.02725   0.01325   0.03309   0.04831
 Alpha virt. eigenvalues --    0.04831   0.07063   0.11337   0.11337   0.14173
 Alpha virt. eigenvalues --    0.16515   0.23156   0.32759   0.32759   0.38777

  Beta  occ. eigenvalues --  -78.03630 -10.58653  -6.86251  -4.97688  -4.97688
  Beta  occ. eigenvalues --   -4.97596  -0.80190  -0.61858  -0.42158  -0.33480
  Beta  occ. eigenvalues --   -0.33480
  Beta virt. eigenvalues --   -0.02725  -0.02725   0.01325   0.03309   0.04831
  Beta virt. eigenvalues --    0.04831   0.07063   0.11337   0.11337   0.14173
  Beta virt. eigenvalues --    0.16515   0.23156   0.32759   0.32759   0.38777

 Mulliken charges and spin densities:
               1          2
     1  C   -0.261201  -0.000000
     2  P    0.078965   0.000000
     3  H    0.182236  -0.000000
 Sum of Mulliken charges =  -0.00000   0.00000

 Dipole moment (field-independent basis, Debye):
    X=             -0.2785    Y=             -0.0000    Z=              0.0000  Tot=              0.2785
 Quadrupole moment (field-independent basis, Debye-Ang):
   XX=            -15.7691   YY=            -20.1928   ZZ=            -20.1928
   XY=              0.0000   XZ=              0.0000   YZ=             -0.0000

 Normal termination of Gaussian 16 at Mon Apr 21 19:28:58 2025.
