 Gaussian 16, Revision A.03,
 Gaussian 16:  ES64L-G16RevA.03 25-Dec-2016

 --------------------------------------------
 #p opt UM062X/6-311+G** nosymm int=superfine
 --------------------------------------------

 -------------------
 Title Card Required
 -------------------
 Symbolic Z-matrix:
 Charge =  1 Multiplicity = 2

 SCF Done:  E(UM062X) =  -76.5851730570     A.U. after  125 cycles
 SCF Done:  E(UM062X) =  -76.5855144432     A.U. after   17 cycles
 Optimization completed.
    -- Stationary point found.

                          Input orientation:
 ---------------------------------------------------------------------
 Center     Atomic      Atomic             Coordinates (Angstroms)
 Number     Number       Type             X           Y           Z
 ---------------------------------------------------------------------
      1          6           0       -1.832160    0.000000    0.000000
      2          6           0        1.832160    0.000000    0.000000
      3          1           0       -2.949891    0.000000    0.000000
      4          1           0        2.949890   -0.000000    0.000000
 ---------------------------------------------------------------------

 Alpha  occ. eigenvalues --  -10.94603 -10.94602  -0.98288  -0.98115  -0.64358
 Alpha  occ. eigenvalues --   -0.62661  -0.48369
 Alpha virt. eigenvalues --   -0.40533  -0.33505  -0.33063  -0.12408  -0.11403
 Alpha virt. eigenvalues --   -0.07759  -0.07292  -0.05356  -0.04810  -0.04451
 Alpha virt. eigenvalues --   -0.01573  -0.00512   0.05917   0.24641   0.30106

  Beta  occ. eigenvalues --  -10.94193 -10.94193  -0.95893  -0.95808  -0.63027
  Beta  occ. eigenvalues --   -0.61249
  Beta virt. eigenvalues --   -0.31693  -0.31138  -0.30110  -0.29482  -0.12891
  Beta virt. eigenvalues --   -0.11326  -0.07188  -0.06432  -0.06085  -0.04082
  Beta virt. eigenvalues --   -0.03156  -0.02104   0.01078   0.07484   0.23885

 Mulliken charges and spin densities:
               1          2
     1  C    0.266313   0.516495
     2  C    0.266313   0.516495
     3  H    0.233687  -0.016495
     4  H    0.233687  -0.016495
 Sum of Mulliken charges =   1.00000   1.00000

 Dipole moment (field-independent basis, Debye):
    X=             -0.0000    Y=             -0.0000    Z=              0.0000  Tot=              0.0000
 Quadrupole moment (field-independent basis, Debye-Ang):
   XX=             20.5036   YY=            -11.4997   ZZ=             -9.4990
   XY=             -0.0000   XZ=              0.0000   YZ=              0.1134

 Normal termination of Gaussian 16 at Tue Dec  3 11:31:52 2024.
