 Gaussian 16, Revision A.03,
 Gaussian 16:  ES64L-G16RevA.03 25-Dec-2016

 --------------------------------------------
 #p opt UM062X/6-311+G** nosymm int=superfine
 --------------------------------------------

 -------------------
 Title Card Required
 -------------------
 Symbolic Z-matrix:
 Charge =  0 Multiplicity = 1

 SCF Done:  E(UM062X) =  -51.7948598597     A.U. after   10 cycles
 SCF Done:  E(UM062X) =  -51.8001830023     A.U. after    9 cycles
 SCF Done:  E(UM062X) =  -51.8033153558     A.U. after   11 cycles
 SCF Done:  E(UM062X) =  -51.8033182924     A.U. after    9 cycles
 SCF Done:  E(UM062X) =  -51.8033148589     A.U. after   11 cycles
 SCF Done:  E(UM062X) =  -51.8033170846     A.U. after    9 cycles
 SCF Done:  E(UM062X) =  -51.8033182196     A.U. after    8 cycles
 Optimization completed.
    -- Stationary point found.

                          Input orientation:
 ---------------------------------------------------------------------
 Center     Atomic      Atomic             Coordinates (Angstroms)
 Number     Number       Type             X           Y           Z
 ---------------------------------------------------------------------
      1          5           0       -2.020607    0.000000    0.000000
      2          5           0        2.020607    0.000000    0.000000
      3          1           0       -2.480903   -1.086064    0.000522
      4          1           0        2.480903    1.086051   -0.005313
      5          1           0       -2.480905    1.086063    0.000686
      6          1           0        2.480905   -1.086044    0.006516
 ---------------------------------------------------------------------

 Alpha  occ. eigenvalues --   -7.11489  -7.11487  -0.57918  -0.57622  -0.45184
 Alpha  occ. eigenvalues --   -0.45102  -0.20030
 Alpha virt. eigenvalues --   -0.07278  -0.05169  -0.04061   0.02272   0.03200
 Alpha virt. eigenvalues --    0.03850   0.05423   0.06213   0.07220   0.08341
 Alpha virt. eigenvalues --    0.10025   0.15345   0.15957   0.17136   0.24066

  Beta  occ. eigenvalues --   -7.11489  -7.11487  -0.57918  -0.57622  -0.45184
  Beta  occ. eigenvalues --   -0.45102  -0.20030
  Beta virt. eigenvalues --   -0.07278  -0.05169  -0.04061   0.02272   0.03200
  Beta virt. eigenvalues --    0.03850   0.05423   0.06213   0.07220   0.08341
  Beta virt. eigenvalues --    0.10025   0.15345   0.15957   0.17136   0.24066

 Mulliken charges and spin densities:
               1          2
     1  B   -0.059398  -0.000013
     2  B   -0.059399   0.000013
     3  H    0.029699  -0.000000
     4  H    0.029699   0.000000
     5  H    0.029699  -0.000000
     6  H    0.029699   0.000000
 Sum of Mulliken charges =  -0.00000  -0.00000

 Dipole moment (field-independent basis, Debye):
    X=             -0.0000    Y=              0.0000    Z=              0.0012  Tot=              0.0012
 Quadrupole moment (field-independent basis, Debye-Ang):
   XX=            -11.0321   YY=            -16.9565   ZZ=            -14.5666
   XY=             -0.0000   XZ=              0.0000   YZ=              0.0064

 Normal termination of Gaussian 16 at Mon Apr 21 17:18:18 2025.
