 Gaussian 16, Revision A.03,
 Gaussian 16:  ES64L-G16RevA.03 25-Dec-2016

 --------------------------------------------
 #p opt UM062X/6-311+G** nosymm int=superfine
 --------------------------------------------

 -------------------
 Title Card Required
 -------------------
 Symbolic Z-matrix:
 Charge =  0 Multiplicity = 1

 SCF Done:  E(UM062X) =  -51.8659113257     A.U. after    8 cycles
 SCF Done:  E(UM062X) =  -51.8694394582     A.U. after    8 cycles
 SCF Done:  E(UM062X) =  -51.8710211030     A.U. after    9 cycles
 SCF Done:  E(UM062X) =  -51.8710204474     A.U. after    8 cycles
 SCF Done:  E(UM062X) =  -51.8710097510     A.U. after    9 cycles
 SCF Done:  E(UM062X) =  -51.8710215051     A.U. after    9 cycles
 SCF Done:  E(UM062X) =  -51.8710219583     A.U. after    7 cycles
 Optimization completed.
    -- Stationary point found.

                          Input orientation:
 ---------------------------------------------------------------------
 Center     Atomic      Atomic             Coordinates (Angstroms)
 Number     Number       Type             X           Y           Z
 ---------------------------------------------------------------------
      1          5           0       -1.495607    0.000000    0.000000
      2          5           0        1.495607    0.000000    0.000000
      3          1           0       -2.004068   -1.066361   -0.001423
      4          1           0        2.004068    1.066338   -0.007119
      5          1           0       -2.004068    1.066361    0.001441
      6          1           0        2.004068   -1.066338    0.007063
 ---------------------------------------------------------------------

 Alpha  occ. eigenvalues --   -7.10227  -7.10225  -0.57526  -0.56332  -0.43874
 Alpha  occ. eigenvalues --   -0.43306  -0.24076
 Alpha virt. eigenvalues --   -0.05501  -0.02327  -0.01267   0.02310   0.03904
 Alpha virt. eigenvalues --    0.04135   0.05839   0.06246   0.07519   0.07783
 Alpha virt. eigenvalues --    0.10541   0.15883   0.17303   0.17598   0.25816

  Beta  occ. eigenvalues --   -7.10227  -7.10225  -0.57526  -0.56332  -0.43874
  Beta  occ. eigenvalues --   -0.43306  -0.24076
  Beta virt. eigenvalues --   -0.05501  -0.02327  -0.01267   0.02310   0.03904
  Beta virt. eigenvalues --    0.04135   0.05839   0.06246   0.07519   0.07783
  Beta virt. eigenvalues --    0.10541   0.15883   0.17303   0.17598   0.25816

 Mulliken charges and spin densities:
               1          2
     1  B   -0.047333   0.000000
     2  B   -0.047333  -0.000000
     3  H    0.023666  -0.000000
     4  H    0.023666   0.000000
     5  H    0.023666   0.000000
     6  H    0.023666   0.000000
 Sum of Mulliken charges =  -0.00000  -0.00000

 Dipole moment (field-independent basis, Debye):
    X=             -0.0000    Y=              0.0000    Z=             -0.0000  Tot=              0.0000
 Quadrupole moment (field-independent basis, Debye-Ang):
   XX=            -14.3667   YY=            -16.8811   ZZ=            -13.9519
   XY=              0.0000   XZ=              0.0001   YZ=              0.0078

 Normal termination of Gaussian 16 at Mon Apr 21 17:15:00 2025.
