 Gaussian 16, Revision A.03,
 Gaussian 16:  ES64L-G16RevA.03 25-Dec-2016

 --------------------------------------------
 #p opt UM062X/6-311+G** nosymm int=superfine
 --------------------------------------------

 -------------------
 Title Card Required
 -------------------
 Symbolic Z-matrix:
 Charge =  0 Multiplicity = 1

 SCF Done:  E(UM062X) =  -581.142717862     A.U. after    9 cycles
 SCF Done:  E(UM062X) =  -581.162364856     A.U. after    8 cycles
 SCF Done:  E(UM062X) =  -581.174342668     A.U. after    8 cycles
 SCF Done:  E(UM062X) =  -581.174362634     A.U. after    7 cycles
 Optimization completed.
    -- Stationary point found.

                          Input orientation:
 ---------------------------------------------------------------------
 Center     Atomic      Atomic             Coordinates (Angstroms)
 Number     Number       Type             X           Y           Z
 ---------------------------------------------------------------------
      1         14           0       -2.387518    0.000000    0.000000
      2         14           0        2.387518    0.000000    0.000000
      3          1           0       -3.450544   -1.084208    0.000050
      4          1           0        3.450544    1.084208   -0.000536
      5          1           0       -3.450548    1.084204    0.000269
      6          1           0        3.450548   -1.084203    0.000855
 ---------------------------------------------------------------------

 Alpha  occ. eigenvalues --  -67.01290 -67.01290  -5.56012  -5.56012  -3.87260
 Alpha  occ. eigenvalues --   -3.87259  -3.86717  -3.86717  -3.86576  -3.86576
 Alpha  occ. eigenvalues --   -0.57266  -0.57204  -0.37847  -0.37824  -0.28979
 Alpha  occ. eigenvalues --   -0.27321
 Alpha virt. eigenvalues --   -0.08143  -0.07578   0.02081   0.02462   0.02997
 Alpha virt. eigenvalues --    0.04555   0.05609   0.06062   0.06243   0.07286
 Alpha virt. eigenvalues --    0.08018   0.09046   0.11349   0.14002   0.28797

  Beta  occ. eigenvalues --  -67.01290 -67.01290  -5.56012  -5.56012  -3.87260
  Beta  occ. eigenvalues --   -3.87259  -3.86717  -3.86717  -3.86576  -3.86576
  Beta  occ. eigenvalues --   -0.57266  -0.57204  -0.37847  -0.37824  -0.28979
  Beta  occ. eigenvalues --   -0.27321
  Beta virt. eigenvalues --   -0.08143  -0.07578   0.02081   0.02462   0.02997
  Beta virt. eigenvalues --    0.04555   0.05609   0.06062   0.06243   0.07286
  Beta virt. eigenvalues --    0.08018   0.09046   0.11349   0.14002   0.28797

 Mulliken charges and spin densities:
               1          2
     1  Si   0.322823  -0.000000
     2  Si   0.322823  -0.000000
     3  H   -0.161411   0.000000
     4  H   -0.161411   0.000000
     5  H   -0.161411   0.000000
     6  H   -0.161411   0.000000
 Sum of Mulliken charges =  -0.00000  -0.00000

 Dipole moment (field-independent basis, Debye):
    X=              0.0000    Y=              0.0000    Z=              0.0001  Tot=              0.0001
 Quadrupole moment (field-independent basis, Debye-Ang):
   XX=            -35.2985   YY=            -32.7261   ZZ=            -24.3778
   XY=             -0.0000   XZ=              0.0000   YZ=              0.0023

 Normal termination of Gaussian 16 at Mon Apr 21 20:35:52 2025.
