 Gaussian 16, Revision A.03,
 Gaussian 16:  ES64L-G16RevA.03 25-Dec-2016

 ---------------------------------------------
 #p opt=calcall UM062X/6-311+G** int=superfine
 ---------------------------------------------

 -------------------
 Title Card Required
 -------------------
 Symbolic Z-matrix:
 Charge =  1 Multiplicity = 2

 SCF Done:  E(UM062X) =  -76.9011480751     A.U. after    9 cycles

 Unable to determine electronic state:  an orbital has unidentified symmetry.
 Alpha  occ. eigenvalues --  -10.94179 -10.93959  -1.22891  -0.97115  -0.89596
 Alpha  occ. eigenvalues --   -0.72967  -0.70251
 Alpha virt. eigenvalues --   -0.27347  -0.25341  -0.15478  -0.14509  -0.11559
 Alpha virt. eigenvalues --   -0.10342  -0.10085  -0.06228  -0.04761  -0.04318
 Alpha virt. eigenvalues --    0.02282   0.04555   0.15834   0.18674   0.29212

  Beta  occ. eigenvalues --  -10.93929 -10.93734  -1.18075  -0.95529  -0.89043
  Beta  occ. eigenvalues --   -0.67748
  Beta virt. eigenvalues --   -0.46315  -0.23746  -0.21006  -0.15630  -0.14606
  Beta virt. eigenvalues --   -0.11671  -0.10602  -0.10293  -0.05713  -0.04158
  Beta virt. eigenvalues --   -0.03525   0.02063   0.04803   0.16376   0.19511

 Mulliken charges and spin densities:
               1          2
     1  C    0.191214   0.519356
     2  C    0.191213   0.519356
     3  H    0.308789  -0.019356
     4  H    0.308784  -0.019356
 Sum of Mulliken charges =   1.00000   1.00000

 Dipole moment (field-independent basis, Debye):
    X=              0.0000    Y=              0.0000    Z=             -0.0000  Tot=              0.0000
 Quadrupole moment (field-independent basis, Debye-Ang):
   XX=             -9.6126   YY=            -11.4160   ZZ=             -0.5170
   XY=              0.0000   XZ=              0.0000   YZ=              0.0000

  Exact polarizability:   8.764   0.000   9.447   0.000  -0.000  24.136
 Approx polarizability:   9.853  -0.000  10.078  -0.000  -0.000  30.758

 Optimization completed.
    -- Stationary point found.

                         Standard orientation:
 ---------------------------------------------------------------------
 Center     Atomic      Atomic             Coordinates (Angstroms)
 Number     Number       Type             X           Y           Z
 ---------------------------------------------------------------------
      1          6           0        0.000000    0.000000   -0.621342
      2          6           0        0.000000    0.000000    0.621343
      3          1           0        0.000000    0.000000   -1.702411
      4          1           0        0.000000    0.000000    1.702401
 ---------------------------------------------------------------------

                      1                      2                      3
                     PI                     PI                     PI
 Frequencies --    693.0312               729.9661               781.7233
 Red. masses --      1.5606                 1.0848                 1.0848
 Frc consts  --      0.4416                 0.3406                 0.3906
 IR Inten    --      0.0000                30.8064               124.1408

                      4                      5                      6
                     PI                     SG                     SG
 Frequencies --    782.8909              1925.7565              3269.7697
 Red. masses --      1.5606                 3.8482                 1.0848
 Frc consts  --      0.5636                 8.4084                 6.8335
 IR Inten    --      0.0000                 0.0000               484.0009

                      7
                     SG
 Frequencies --   3377.6758
 Red. masses --      1.2259
 Frc consts  --      8.2404
 IR Inten    --      0.0001

 - Thermochemistry -
 -------------------
 Temperature   298.150 Kelvin.  Pressure   1.00000 Atm.
 Atom     1 has atomic number  6 and mass  12.00000

 Molecular mass:    26.01565 amu.
 Principal axes and moments of inertia in atomic units:
                           1         2         3
     Eigenvalues --     0.00000  53.94924  53.94924
           X            0.00000  -0.00000   1.00000
           Y            0.00000   1.00000   0.00000
           Z            1.00000   0.00000   0.00000
 This molecule is a prolate symmetric top.
 Rotational symmetry number  1.
 Rotational temperature (Kelvin)      1.60547
 Rotational constant (GHZ):          33.452580
 Zero-point vibrational energy      69149.0 (Joules/Mol)
                                   16.52701 (Kcal/Mol)
 Vibrational temperatures:    997.12  1050.26  1124.73  1126.41  2770.73
          (Kelvin)           4704.47  4859.72

 Zero-point correction=                           0.026337 (Hartree/Particle)
 Thermal correction to Energy=                    0.029083
 Thermal correction to Enthalpy=                  0.030027
 Thermal correction to Gibbs Free Energy=         0.006040
 Sum of electronic and zero-point Energies=            -76.874811
 Sum of electronic and thermal Energies=               -76.872065
 Sum of electronic and thermal Enthalpies=             -76.871121
 Sum of electronic and thermal Free Energies=          -76.895108

                     E (Thermal)             CV                S
                      KCal/Mol        Cal/Mol-Kelvin    Cal/Mol-Kelvin
 Total                   18.250              7.960             50.484
 Electronic               0.000              0.000              1.377
 Translational            0.889              2.981             35.704
 Rotational               0.592              1.987             12.369
 Vibrational             16.768              2.992              1.033

 Normal termination of Gaussian 16 at Mon Nov 25 04:51:47 2024.
