 Gaussian 16, Revision A.03,
 Gaussian 16:  ES64L-G16RevA.03 25-Dec-2016

 ---------------------------------------------------
 #p UM062X/6-311+G** force int=superfine pop=saveNBO
 ---------------------------------------------------

 -------------------
 Title Card Required
 -------------------
 Symbolic Z-matrix:
 Charge =  0 Multiplicity = 1

                         Standard orientation:
 ---------------------------------------------------------------------
 Center     Atomic      Atomic             Coordinates (Angstroms)
 Number     Number       Type             X           Y           Z
 ---------------------------------------------------------------------
      1         16           0        0.000000    0.000000    1.150200
      2         16           0        0.000000    0.000000   -1.150200
 ---------------------------------------------------------------------

 SCF Done:  E(UM062X) =  -796.255493687     A.U. after    9 cycles

 Unable to determine electronic state:  partially filled degenerate orbitals.
 Alpha  occ. eigenvalues --  -89.97905 -89.97905  -8.33706  -8.33702  -6.25783
 Alpha  occ. eigenvalues --   -6.25782  -6.25705  -6.25696  -6.24920  -6.24920
 Alpha  occ. eigenvalues --   -0.84781  -0.72830  -0.42197  -0.38234  -0.36893
 Alpha  occ. eigenvalues --   -0.30658
 Alpha virt. eigenvalues --   -0.18325  -0.07270   0.03157   0.04387   0.04811
 Alpha virt. eigenvalues --    0.05504   0.07231   0.07573   0.08128   0.14598
 Alpha virt. eigenvalues --    0.32048   0.32534   0.32971   0.34111   0.36023

  Beta  occ. eigenvalues --  -89.97905 -89.97905  -8.33706  -8.33702  -6.25783
  Beta  occ. eigenvalues --   -6.25782  -6.25705  -6.25696  -6.24920  -6.24920
  Beta  occ. eigenvalues --   -0.84781  -0.72830  -0.42197  -0.38234  -0.36893
  Beta  occ. eigenvalues --   -0.30658
  Beta virt. eigenvalues --   -0.18325  -0.07270   0.03157   0.04387   0.04811
  Beta virt. eigenvalues --    0.05504   0.07231   0.07573   0.08128   0.14598
  Beta virt. eigenvalues --    0.32048   0.32534   0.32971   0.34111   0.36023

 Mulliken charges and spin densities:
               1          2
     1  S    0.000000   0.000000
     2  S    0.000000   0.000000
 Sum of Mulliken charges =   0.00000   0.00000

 Dipole moment (field-independent basis, Debye):
    X=              0.0000    Y=              0.0000    Z=             -0.0000  Tot=              0.0000
 Quadrupole moment (field-independent basis, Debye-Ang):
   XX=            -24.6222   YY=            -29.5935   ZZ=            -24.1166
   XY=              0.0000   XZ=              0.0000   YZ=              0.0000

 Summary of Natural Population Analysis:

                                       Natural Population
                Natural  -----------------------------------------------
    Atom  No    Charge         Core      Valence    Rydberg      Total
 -----------------------------------------------------------------------
      S    1   -0.00000      4.99995     2.99211    0.00793     8.00000
      S    2   -0.00000      4.99995     2.99211    0.00793     8.00000
 =======================================================================
   * Total *   -0.00000      9.99991     5.98423    0.01587    16.00000

 Normal termination of Gaussian 16 at Mon Apr 21 20:08:43 2025.
