 Gaussian 16, Revision A.03,
 Gaussian 16:  ES64L-G16RevA.03 25-Dec-2016

 --------------------------------------------
 #p opt UM062X/6-311+G** nosymm int=superfine
 --------------------------------------------

 -------------------
 Title Card Required
 -------------------
 Symbolic Z-matrix:
 Charge =  1 Multiplicity = 2

 SCF Done:  E(UM062X) =  -92.5737453368     A.U. after   23 cycles
 SCF Done:  E(UM062X) =  -92.5740772456     A.U. after   10 cycles
 Optimization completed.
    -- Stationary point found.

                          Input orientation:
 ---------------------------------------------------------------------
 Center     Atomic      Atomic             Coordinates (Angstroms)
 Number     Number       Type             X           Y           Z
 ---------------------------------------------------------------------
      1          6           0       -2.026540    0.000000    0.000000
      2          7           0        2.026540    0.000000    0.000000
      3          1           0       -3.143928    0.000000    0.000000
 ---------------------------------------------------------------------

 Alpha  occ. eigenvalues --  -15.20349 -10.97928  -1.15922  -0.98993  -0.71009
 Alpha  occ. eigenvalues --   -0.67878  -0.65423
 Alpha virt. eigenvalues --   -0.41398  -0.34254  -0.32796  -0.13685  -0.09977
 Alpha virt. eigenvalues --   -0.07728  -0.06965  -0.04157  -0.02120  -0.01921
 Alpha virt. eigenvalues --   -0.01569   0.06517   0.25582   0.35229   0.35475

  Beta  occ. eigenvalues --  -15.17788 -10.98292  -1.04285  -1.01112  -0.66602
  Beta  occ. eigenvalues --   -0.49908
  Beta virt. eigenvalues --   -0.42889  -0.38017  -0.36090  -0.33283  -0.13463
  Beta virt. eigenvalues --   -0.10270  -0.08288  -0.07948  -0.04735  -0.02710
  Beta virt. eigenvalues --   -0.02008  -0.01578   0.04810   0.26229   0.34842

 Mulliken charges and spin densities:
               1          2
     1  C    0.318077  -0.454229
     2  N    0.440067   1.439525
     3  H    0.241857   0.014704
 Sum of Mulliken charges =   1.00000   1.00000

 Dipole moment (field-independent basis, Debye):
    X=             -3.3286    Y=              0.0000    Z=             -0.0000  Tot=              3.3286
 Quadrupole moment (field-independent basis, Debye-Ang):
   XX=             20.0146   YY=             -9.4279   ZZ=            -11.2356
   XY=              0.0000   XZ=             -0.0000   YZ=              0.0472

 Normal termination of Gaussian 16 at Mon Apr 21 18:37:17 2025.
