 Gaussian 16, Revision A.03,
 Gaussian 16:  ES64L-G16RevA.03 25-Dec-2016

 --------------------------------------------
 #p opt UM062X/6-311+G** nosymm int=superfine
 --------------------------------------------

 -------------------
 Title Card Required
 -------------------
 Symbolic Z-matrix:
 Charge =  0 Multiplicity = 1

 SCF Done:  E(UM062X) =  -93.3214087865     A.U. after   10 cycles
 SCF Done:  E(UM062X) =  -93.3214685253     A.U. after    8 cycles
 Optimization completed.
    -- Stationary point found.

                          Input orientation:
 ---------------------------------------------------------------------
 Center     Atomic      Atomic             Coordinates (Angstroms)
 Number     Number       Type             X           Y           Z
 ---------------------------------------------------------------------
      1          6           0       -0.697395    0.000000    0.000000
      2          7           0        0.697395    0.000000    0.000000
      3          1           0       -1.774829    0.000000    0.000000
 ---------------------------------------------------------------------

 Alpha  occ. eigenvalues --  -14.84465 -10.66211  -0.95220  -0.71338  -0.47786
 Alpha  occ. eigenvalues --   -0.38751  -0.38751
 Alpha virt. eigenvalues --   -0.02743  -0.02743   0.01608   0.03145   0.07073
 Alpha virt. eigenvalues --    0.07073   0.12389   0.16421   0.18140   0.18140
 Alpha virt. eigenvalues --    0.25278   0.34277   0.55870   0.55870   0.60995

  Beta  occ. eigenvalues --  -14.84465 -10.66211  -0.95220  -0.71338  -0.47786
  Beta  occ. eigenvalues --   -0.38751  -0.38751
  Beta virt. eigenvalues --   -0.02743  -0.02743   0.01608   0.03145   0.07073
  Beta virt. eigenvalues --    0.07073   0.12389   0.16421   0.18140   0.18140
  Beta virt. eigenvalues --    0.25278   0.34277   0.55870   0.55870   0.60995

 Mulliken charges and spin densities:
               1          2
     1  C   -0.102208  -0.000000
     2  N   -0.127941   0.000000
     3  H    0.230149  -0.000000
 Sum of Mulliken charges =  -0.00000   0.00000

 Dipole moment (field-independent basis, Debye):
    X=             -3.0949    Y=             -0.0000    Z=              0.0000  Tot=              3.0949
 Quadrupole moment (field-independent basis, Debye-Ang):
   XX=             -8.8877   YY=            -12.7359   ZZ=            -12.7359
   XY=             -0.0000   XZ=             -0.0000   YZ=              0.0000

 Normal termination of Gaussian 16 at Mon Apr 21 18:37:30 2025.
