 Gaussian 16, Revision A.03,
 Gaussian 16:  ES64L-G16RevA.03 25-Dec-2016

 ---------------------------------------------------------
 #p opt UM062X/6-311+G** nosymm int=superfine SCF=NoVarAcc
 ---------------------------------------------------------

 -------------------
 Title Card Required
 -------------------
 Symbolic Z-matrix:
 Charge =  1 Multiplicity = 2

 SCF Done:  E(UM062X) =  -77.9371251652     A.U. after    9 cycles
 SCF Done:  E(UM062X) =  -77.9374968039     A.U. after    8 cycles
 SCF Done:  E(UM062X) =  -77.9376677900     A.U. after    9 cycles
 Optimization completed.
    -- Stationary point found.

                          Input orientation:
 ---------------------------------------------------------------------
 Center     Atomic      Atomic             Coordinates (Angstroms)
 Number     Number       Type             X           Y           Z
 ---------------------------------------------------------------------
      1          6           0       -1.331027    0.000000    0.000000
      2          6           0        1.331027    0.000000    0.000000
      3          1           0       -1.728540   -1.010429   -0.000000
      4          1           0       -1.728529    1.010439    0.000000
      5          1           0        1.728540    1.010429   -0.000000
      6          1           0        1.728529   -1.010439    0.000000
 ---------------------------------------------------------------------

 Alpha  occ. eigenvalues --  -10.92170 -10.92163  -1.03079  -1.00890  -0.79557
 Alpha  occ. eigenvalues --   -0.78728  -0.58365  -0.51681
 Alpha virt. eigenvalues --   -0.39118  -0.34384  -0.13416  -0.10726  -0.10490
 Alpha virt. eigenvalues --   -0.07774  -0.07536  -0.06596  -0.04607  -0.04374
 Alpha virt. eigenvalues --   -0.03261   0.01247   0.01655   0.09235   0.19157

  Beta  occ. eigenvalues --  -10.91910 -10.91907  -1.00262  -0.98434  -0.79170
  Beta  occ. eigenvalues --   -0.78374  -0.56501
  Beta virt. eigenvalues --   -0.32378  -0.32194  -0.29313  -0.14500  -0.10992
  Beta virt. eigenvalues --   -0.10767  -0.07413  -0.07360  -0.06704  -0.03887
  Beta virt. eigenvalues --   -0.03797  -0.03701   0.00246   0.01594   0.10198

 Mulliken charges and spin densities:
               1          2
     1  C   -0.065715   0.541552
     2  C   -0.065715   0.541553
     3  H    0.282857  -0.020776
     4  H    0.282858  -0.020776
     5  H    0.282857  -0.020776
     6  H    0.282858  -0.020776
 Sum of Mulliken charges =   1.00000   1.00000

 Dipole moment (field-independent basis, Debye):
    X=             -0.0000    Y=              0.0000    Z=             -0.0000  Tot=              0.0000
 Quadrupole moment (field-independent basis, Debye-Ang):
   XX=              2.8861   YY=             -7.8377   ZZ=            -12.9384
   XY=             -0.0000   XZ=              0.0000   YZ=              0.0000

 Normal termination of Gaussian 16 at Tue Dec  3 13:23:36 2024.
