 Gaussian 16, Revision A.03,
 Gaussian 16:  ES64L-G16RevA.03 25-Dec-2016

 --------------------------------------------
 #p opt UM062X/6-311+G** nosymm int=superfine
 --------------------------------------------

 -------------------
 Title Card Required
 -------------------
 Symbolic Z-matrix:
 Charge =  0 Multiplicity = 1

 SCF Done:  E(UM062X) =  -684.930560643     A.U. after   11 cycles
 SCF Done:  E(UM062X) =  -684.931653235     A.U. after   10 cycles
 SCF Done:  E(UM062X) =  -684.932549674     A.U. after   11 cycles
 SCF Done:  E(UM062X) =  -684.932925364     A.U. after   10 cycles
 SCF Done:  E(UM062X) =  -684.933035008     A.U. after   12 cycles
 SCF Done:  E(UM062X) =  -684.933073686     A.U. after   10 cycles
 SCF Done:  E(UM062X) =  -684.933092028     A.U. after   11 cycles
 SCF Done:  E(UM062X) =  -684.933122307     A.U. after   10 cycles
 SCF Done:  E(UM062X) =  -684.933150331     A.U. after   12 cycles
 SCF Done:  E(UM062X) =  -684.933164613     A.U. after   10 cycles
 SCF Done:  E(UM062X) =  -684.933292698     A.U. after   14 cycles
 SCF Done:  E(UM062X) =  -684.933035826     A.U. after   12 cycles
 SCF Done:  E(UM062X) =  -684.933302252     A.U. after   12 cycles
 SCF Done:  E(UM062X) =  -684.933303910     A.U. after   12 cycles
 SCF Done:  E(UM062X) =  -684.933305271     A.U. after    9 cycles
 SCF Done:  E(UM062X) =  -684.933305150     A.U. after   11 cycles
 SCF Done:  E(UM062X) =  -684.933304994     A.U. after    8 cycles
 SCF Done:  E(UM062X) =  -684.933306069     A.U. after   12 cycles
 SCF Done:  E(UM062X) =  -684.933306221     A.U. after    9 cycles
 SCF Done:  E(UM062X) =  -684.933306230     A.U. after   10 cycles
 Optimization completed.
    -- Stationary point found.

                          Input orientation:
 ---------------------------------------------------------------------
 Center     Atomic      Atomic             Coordinates (Angstroms)
 Number     Number       Type             X           Y           Z
 ---------------------------------------------------------------------
      1         15           0       -2.042217    0.000000    0.000000
      2         15           0        2.042217    0.000000    0.000000
      3          1           0        1.957192   -0.862652    1.123223
      4          1           0       -1.960453    0.941161    1.058631
      5          1           0        1.954126   -1.090508   -0.903210
      6          1           0       -1.961523    1.023352   -0.979242
 ---------------------------------------------------------------------

 Alpha  occ. eigenvalues --  -78.05071 -78.05069  -6.87445  -6.87443  -4.98997
 Alpha  occ. eigenvalues --   -4.98995  -4.98869  -4.98868  -4.98686  -4.98685
 Alpha  occ. eigenvalues --   -0.71250  -0.70721  -0.45104  -0.44871  -0.36267
 Alpha  occ. eigenvalues --   -0.36036  -0.25246
 Alpha virt. eigenvalues --   -0.14136   0.01649   0.02897   0.03228   0.04045
 Alpha virt. eigenvalues --    0.04837   0.05962   0.06080   0.06093   0.06312
 Alpha virt. eigenvalues --    0.08098   0.14273   0.18604   0.28420   0.29014

  Beta  occ. eigenvalues --  -78.05071 -78.05069  -6.87445  -6.87443  -4.98997
  Beta  occ. eigenvalues --   -4.98995  -4.98869  -4.98868  -4.98686  -4.98685
  Beta  occ. eigenvalues --   -0.71250  -0.70721  -0.45104  -0.44871  -0.36267
  Beta  occ. eigenvalues --   -0.36036  -0.25246
  Beta virt. eigenvalues --   -0.14136   0.01649   0.02897   0.03228   0.04045
  Beta virt. eigenvalues --    0.04837   0.05962   0.06080   0.06093   0.06312
  Beta virt. eigenvalues --    0.08098   0.14273   0.18604   0.28420   0.29014

 Mulliken charges and spin densities:
               1          2
     1  P   -0.012127   0.000000
     2  P   -0.011451  -0.000000
     3  H    0.005357   0.000000
     4  H    0.005364  -0.000000
     5  H    0.006465   0.000000
     6  H    0.006392  -0.000000
 Sum of Mulliken charges =  -0.00000  -0.00000

 Dipole moment (field-independent basis, Debye):
    X=             -0.0019    Y=              0.0035    Z=              0.1342  Tot=              0.1342
 Quadrupole moment (field-independent basis, Debye-Ang):
   XX=            -28.5685   YY=            -31.2408   ZZ=            -28.5446
   XY=             -4.2038   XZ=              0.1536   YZ=              0.0970

 Normal termination of Gaussian 16 at Mon Apr 21 20:56:58 2025.
