 Gaussian 16, Revision A.03,
 Gaussian 16:  ES64L-G16RevA.03 25-Dec-2016

 ---------------------------------------------------
 #p UM062X/6-311+G** force int=superfine pop=saveNBO
 ---------------------------------------------------

 -------------------
 Title Card Required
 -------------------
 Symbolic Z-matrix:
 Charge =  0 Multiplicity = 1

                         Standard orientation:
 ---------------------------------------------------------------------
 Center     Atomic      Atomic             Coordinates (Angstroms)
 Number     Number       Type             X           Y           Z
 ---------------------------------------------------------------------
      1         16           0        0.000000    0.000000    1.375200
      2         16           0        0.000000    0.000000   -1.375200
 ---------------------------------------------------------------------

 SCF Done:  E(UM062X) =  -796.169645325     A.U. after    9 cycles

 Unable to determine electronic state:  partially filled degenerate orbitals.
 Alpha  occ. eigenvalues --  -89.99039 -89.99039  -8.34708  -8.34705  -6.26749
 Alpha  occ. eigenvalues --   -6.26749  -6.26726  -6.26726  -6.25897  -6.25897
 Alpha  occ. eigenvalues --   -0.80784  -0.75522  -0.38654  -0.36389  -0.34154
 Alpha  occ. eigenvalues --   -0.32855
 Alpha virt. eigenvalues --   -0.20991  -0.14782   0.03141   0.03879   0.04949
 Alpha virt. eigenvalues --    0.05533   0.07372   0.07462   0.07859   0.13976
 Alpha virt. eigenvalues --    0.31335   0.32047   0.33050   0.36117   0.36986

  Beta  occ. eigenvalues --  -89.99039 -89.99039  -8.34708  -8.34705  -6.26749
  Beta  occ. eigenvalues --   -6.26749  -6.26726  -6.26726  -6.25897  -6.25897
  Beta  occ. eigenvalues --   -0.80784  -0.75522  -0.38654  -0.36389  -0.34154
  Beta  occ. eigenvalues --   -0.32855
  Beta virt. eigenvalues --   -0.20991  -0.14782   0.03141   0.03879   0.04949
  Beta virt. eigenvalues --    0.05533   0.07372   0.07462   0.07859   0.13976
  Beta virt. eigenvalues --    0.31335   0.32047   0.33050   0.36117   0.36986

 Mulliken charges and spin densities:
               1          2
     1  S   -0.000000  -0.000000
     2  S   -0.000000  -0.000000
 Sum of Mulliken charges =  -0.00000  -0.00000

 Dipole moment (field-independent basis, Debye):
    X=             -0.0000    Y=             -0.0000    Z=             -0.0000  Tot=              0.0000
 Quadrupole moment (field-independent basis, Debye-Ang):
   XX=            -25.1856   YY=            -30.0732   ZZ=            -23.1810
   XY=              0.0000   XZ=             -0.0000   YZ=              0.0000

 Summary of Natural Population Analysis:

                                       Natural Population
                Natural  -----------------------------------------------
    Atom  No    Charge         Core      Valence    Rydberg      Total
 -----------------------------------------------------------------------
      S    1   -0.00000      4.99999     2.99800    0.00201     8.00000
      S    2    0.00000      4.99999     2.99800    0.00201     8.00000
 =======================================================================
   * Total *   -0.00000      9.99997     5.99601    0.00402    16.00000

 Normal termination of Gaussian 16 at Mon Apr 21 20:07:59 2025.
