 Gaussian 16, Revision A.03,
 Gaussian 16:  ES64L-G16RevA.03 25-Dec-2016

 ---------------------------------------------------
 #p UM062X/6-311+G** force int=superfine pop=saveNBO
 ---------------------------------------------------

 -------------------
 Title Card Required
 -------------------
 Symbolic Z-matrix:
 Charge =  0 Multiplicity = 1

                         Standard orientation:
 ---------------------------------------------------------------------
 Center     Atomic      Atomic             Coordinates (Angstroms)
 Number     Number       Type             X           Y           Z
 ---------------------------------------------------------------------
      1         15           0        0.000000    0.000000    1.638495
      2         15           0        0.000000    0.000000   -1.638495
 ---------------------------------------------------------------------

 SCF Done:  E(UM062X) =  -682.373554004     A.U. after    9 cycles

 The electronic state is 1-SGG.
 Alpha  occ. eigenvalues --  -78.12122 -78.12122  -6.93666  -6.93666  -5.04970
 Alpha  occ. eigenvalues --   -5.04970  -5.04970  -5.04970  -5.04943  -5.04943
 Alpha  occ. eigenvalues --   -0.65389  -0.62188  -0.29577  -0.26405  -0.26405
 Alpha virt. eigenvalues --   -0.16097  -0.16097  -0.11973   0.02411   0.03286
 Alpha virt. eigenvalues --    0.04577   0.04577   0.06210   0.06474   0.06474
 Alpha virt. eigenvalues --    0.11206   0.28903   0.29718   0.29718   0.33218

  Beta  occ. eigenvalues --  -78.12122 -78.12122  -6.93666  -6.93666  -5.04970
  Beta  occ. eigenvalues --   -5.04970  -5.04970  -5.04970  -5.04943  -5.04943
  Beta  occ. eigenvalues --   -0.65389  -0.62188  -0.29577  -0.26405  -0.26405
  Beta virt. eigenvalues --   -0.16097  -0.16097  -0.11973   0.02411   0.03286
  Beta virt. eigenvalues --    0.04577   0.04577   0.06210   0.06474   0.06474
  Beta virt. eigenvalues --    0.11206   0.28903   0.29718   0.29718   0.33218

 Mulliken charges and spin densities:
               1          2
     1  P   -0.000000   0.000000
     2  P   -0.000000   0.000000
 Sum of Mulliken charges =  -0.00000   0.00000

 Dipole moment (field-independent basis, Debye):
    X=             -0.0000    Y=              0.0000    Z=              0.0000  Tot=              0.0000
 Quadrupole moment (field-independent basis, Debye-Ang):
   XX=            -29.3491   YY=            -29.3491   ZZ=            -24.5094
   XY=              0.0000   XZ=             -0.0000   YZ=              0.0000

 Summary of Natural Population Analysis:

                                       Natural Population
                Natural  -----------------------------------------------
    Atom  No    Charge         Core      Valence    Rydberg      Total
 -----------------------------------------------------------------------
      P    1   -0.00000      4.99999     2.49927    0.00074     7.50000
      P    2   -0.00000      4.99999     2.49927    0.00074     7.50000
 =======================================================================
   * Total *   -0.00000      9.99998     4.99854    0.00147    15.00000

 Normal termination of Gaussian 16 at Mon Apr 21 21:21:13 2025.
