 Gaussian 16, Revision A.03,
 Gaussian 16:  ES64L-G16RevA.03 25-Dec-2016

 --------------------------------------------
 #p opt UM062X/6-311+G** nosymm int=superfine
 --------------------------------------------

 -------------------
 Title Card Required
 -------------------
 Symbolic Z-matrix:
 Charge =  0 Multiplicity = 1

 SCF Done:  E(UM062X) =  -111.613174744     A.U. after   16 cycles
 SCF Done:  E(UM062X) =  -111.617452902     A.U. after   17 cycles
 SCF Done:  E(UM062X) =  -111.620140218     A.U. after   18 cycles
 SCF Done:  E(UM062X) =  -111.622190926     A.U. after   17 cycles
 SCF Done:  E(UM062X) =  -111.624074386     A.U. after   15 cycles
 SCF Done:  E(UM062X) =  -111.625009925     A.U. after   15 cycles
 SCF Done:  E(UM062X) =  -111.625402705     A.U. after   16 cycles
 SCF Done:  E(UM062X) =  -111.625720483     A.U. after   15 cycles
 SCF Done:  E(UM062X) =  -111.626040727     A.U. after   18 cycles
 SCF Done:  E(UM062X) =  -111.626139666     A.U. after   15 cycles
 SCF Done:  E(UM062X) =  -111.626176530     A.U. after   15 cycles
 SCF Done:  E(UM062X) =  -111.626193900     A.U. after   12 cycles
 SCF Done:  E(UM062X) =  -111.626229908     A.U. after   14 cycles
 SCF Done:  E(UM062X) =  -111.626254240     A.U. after   13 cycles
 SCF Done:  E(UM062X) =  -111.626276099     A.U. after   15 cycles
 SCF Done:  E(UM062X) =  -111.626277117     A.U. after   10 cycles
 SCF Done:  E(UM062X) =  -111.626277139     A.U. after   10 cycles
 SCF Done:  E(UM062X) =  -111.626277146     A.U. after    9 cycles
 Optimization completed.
    -- Stationary point found.

                          Input orientation:
 ---------------------------------------------------------------------
 Center     Atomic      Atomic             Coordinates (Angstroms)
 Number     Number       Type             X           Y           Z
 ---------------------------------------------------------------------
      1          7           0       -1.936540    0.000000    0.000000
      2          7           0        1.936540    0.000000    0.000000
      3          1           0       -1.817538   -0.811151   -0.619761
      4          1           0        1.817676    0.402859   -0.937980
      5          1           0       -1.817416   -0.402817    0.937966
      6          1           0        1.817798    0.811195    0.619752
 ---------------------------------------------------------------------

 Alpha  occ. eigenvalues --  -14.80511 -14.80510  -0.95208  -0.94968  -0.55344
 Alpha  occ. eigenvalues --   -0.55223  -0.40783  -0.40594  -0.28189
 Alpha virt. eigenvalues --   -0.18881   0.04155   0.05982   0.08789   0.11543
 Alpha virt. eigenvalues --    0.12278   0.13329   0.15429   0.16401   0.17897
 Alpha virt. eigenvalues --    0.18712   0.23408   0.28787   0.51111   0.51660

  Beta  occ. eigenvalues --  -14.80511 -14.80510  -0.95208  -0.94968  -0.55344
  Beta  occ. eigenvalues --   -0.55223  -0.40783  -0.40594  -0.28189
  Beta virt. eigenvalues --   -0.18881   0.04155   0.05982   0.08789   0.11543
  Beta virt. eigenvalues --    0.12278   0.13329   0.15429   0.16401   0.17897
  Beta virt. eigenvalues --    0.18712   0.23408   0.28787   0.51111   0.51660

 Mulliken charges and spin densities:
               1          2
     1  N   -0.480571   0.000000
     2  N   -0.480648  -0.000000
     3  H    0.240302  -0.000000
     4  H    0.240307   0.000000
     5  H    0.240303  -0.000000
     6  H    0.240306   0.000000
 Sum of Mulliken charges =  -0.00000  -0.00000

 Dipole moment (field-independent basis, Debye):
    X=              0.0006    Y=              0.0001    Z=             -0.0000  Tot=              0.0006
 Quadrupole moment (field-independent basis, Debye-Ang):
   XX=            -16.9890   YY=            -14.3744   ZZ=            -11.5347
   XY=              7.9918   XZ=             -2.0945   YZ=              0.7993

 Normal termination of Gaussian 16 at Thu May 15 15:10:56 2025.
