 Gaussian 16, Revision A.03,
 Gaussian 16:  ES64L-G16RevA.03 25-Dec-2016

 ---------------------------------------------------
 #p UM062X/6-311+G** force int=superfine pop=saveNBO
 ---------------------------------------------------

 -------------------
 Title Card Required
 -------------------
 Symbolic Z-matrix:
 Charge =  0 Multiplicity = 1

                         Standard orientation:
 ---------------------------------------------------------------------
 Center     Atomic      Atomic             Coordinates (Angstroms)
 Number     Number       Type             X           Y           Z
 ---------------------------------------------------------------------
      1          8           0        0.000000    0.000000   -2.060091
      2         16           0        0.000000    0.000000    1.030045
 ---------------------------------------------------------------------

 SCF Done:  E(UM062X) =  -472.963638556     A.U. after   16 cycles

 Unable to determine electronic state:  an orbital has unidentified symmetry.
 Alpha  occ. eigenvalues --  -90.03491 -19.75615  -8.39123  -6.31157  -6.31148
 Alpha  occ. eigenvalues --   -6.30240  -1.04198  -0.81338  -0.42734  -0.37805
 Alpha  occ. eigenvalues --   -0.37553  -0.35332
 Alpha virt. eigenvalues --   -0.25454  -0.22981   0.02596   0.04709   0.05204
 Alpha virt. eigenvalues --    0.05648   0.17399   0.19623   0.19819   0.24662
 Alpha virt. eigenvalues --    0.32289   0.33243   0.34121   0.56718   0.73650

  Beta  occ. eigenvalues --  -90.03491 -19.75615  -8.39123  -6.31157  -6.31148
  Beta  occ. eigenvalues --   -6.30240  -1.04198  -0.81338  -0.42734  -0.37805
  Beta  occ. eigenvalues --   -0.37553  -0.35332
  Beta virt. eigenvalues --   -0.25454  -0.22981   0.02596   0.04709   0.05204
  Beta virt. eigenvalues --    0.05648   0.17399   0.19623   0.19819   0.24662
  Beta virt. eigenvalues --    0.32289   0.33243   0.34121   0.56718   0.73650

 Mulliken charges and spin densities:
               1          2
     1  O   -0.192250   0.000000
     2  S    0.192250  -0.000000
 Sum of Mulliken charges =  -0.00000  -0.00000

 Dipole moment (field-independent basis, Debye):
    X=              0.0000    Y=              0.0000    Z=              2.8629  Tot=              2.8629
 Quadrupole moment (field-independent basis, Debye-Ang):
   XX=            -17.3953   YY=            -20.8735   ZZ=            -18.7897
   XY=              0.0000   XZ=              0.0000   YZ=              0.0000

 Summary of Natural Population Analysis:

                                       Natural Population
                Natural  -----------------------------------------------
    Atom  No    Charge         Core      Valence    Rydberg      Total
 -----------------------------------------------------------------------
      O    1   -0.11543      1.00000     3.11453    0.00090     4.11543
      S    2    0.11543      5.00000     2.88375    0.00082     7.88457
 =======================================================================
   * Total *   -0.00000      6.00000     5.99828    0.00173    12.00000

 Normal termination of Gaussian 16 at Mon Apr 21 20:01:04 2025.
