 Gaussian 16, Revision A.03,
 Gaussian 16:  ES64L-G16RevA.03 25-Dec-2016

 --------------------------------------------
 #p opt UM062X/6-311+G** nosymm int=superfine
 --------------------------------------------

 -------------------
 Title Card Required
 -------------------
 Symbolic Z-matrix:
 Charge =  1 Multiplicity = 2

 SCF Done:  E(UM062X) =  -582.130085927     A.U. after   11 cycles
 SCF Done:  E(UM062X) =  -582.130917824     A.U. after    9 cycles
 SCF Done:  E(UM062X) =  -582.131217098     A.U. after   10 cycles
 SCF Done:  E(UM062X) =  -582.131218331     A.U. after    8 cycles
 Optimization completed.
    -- Stationary point found.

                          Input orientation:
 ---------------------------------------------------------------------
 Center     Atomic      Atomic             Coordinates (Angstroms)
 Number     Number       Type             X           Y           Z
 ---------------------------------------------------------------------
      1         14           0       -2.576292    0.000000    0.000000
      2         14           0        2.576292    0.000000    0.000000
      3          1           0        2.675746   -1.460774   -0.000014
      4          1           0       -2.674926   -0.730260    1.265202
      5          1           0        2.675461    0.730427   -1.265063
      6          1           0        2.674711    0.730345    1.265170
      7          1           0       -2.675773    1.460773   -0.000139
      8          1           0       -2.675219   -0.730515   -1.265032
 ---------------------------------------------------------------------

 Alpha  occ. eigenvalues --  -67.21865 -67.21865  -5.76720  -5.76720  -4.08412
 Alpha  occ. eigenvalues --   -4.08412  -4.07594  -4.07594  -4.07594  -4.07594
 Alpha  occ. eigenvalues --   -0.80433  -0.80219  -0.60886  -0.60885  -0.60851
 Alpha  occ. eigenvalues --   -0.60850  -0.38672
 Alpha virt. eigenvalues --   -0.30399  -0.11541  -0.11456  -0.09830  -0.08976
 Alpha virt. eigenvalues --   -0.08974  -0.07853  -0.07852  -0.07512  -0.06956
 Alpha virt. eigenvalues --   -0.06956  -0.05964  -0.05963  -0.04858   0.00290

  Beta  occ. eigenvalues --  -67.21586 -67.21586  -5.76636  -5.76636  -4.07758
  Beta  occ. eigenvalues --   -4.07758  -4.07498  -4.07498  -4.07498  -4.07498
  Beta  occ. eigenvalues --   -0.78709  -0.78610  -0.60800  -0.60799  -0.60762
  Beta  occ. eigenvalues --   -0.60761
  Beta virt. eigenvalues --   -0.31604  -0.23519  -0.16127  -0.11666  -0.11665
  Beta virt. eigenvalues --   -0.10586  -0.10104  -0.08424  -0.08423  -0.07422
  Beta virt. eigenvalues --   -0.06450  -0.06450  -0.05508  -0.05505  -0.05505

 Mulliken charges and spin densities:
               1          2
     1  Si   0.513954   0.560100
     2  Si   0.513954   0.560099
     3  H   -0.004642  -0.020027
     4  H   -0.004657  -0.020035
     5  H   -0.004652  -0.020038
     6  H   -0.004660  -0.020034
     7  H   -0.004641  -0.020027
     8  H   -0.004655  -0.020037
 Sum of Mulliken charges =   1.00000   1.00000

 Dipole moment (field-independent basis, Debye):
    X=              0.0000    Y=             -0.0000    Z=              0.0001  Tot=              0.0001
 Quadrupole moment (field-independent basis, Debye-Ang):
   XX=             11.0333   YY=            -26.2540   ZZ=            -26.2538
   XY=              0.0008   XZ=              0.0001   YZ=             -0.0000

 Normal termination of Gaussian 16 at Mon Apr 21 20:17:24 2025.
