 Gaussian 16, Revision A.03,
 Gaussian 16:  ES64L-G16RevA.03 25-Dec-2016

 -------------------------------------------------------------------
 #p opt UM062X/6-311+G** nosymm int=superfine SCF=NoVarAcc SCF=tight
 -------------------------------------------------------------------

 -------------------
 Title Card Required
 -------------------
 Symbolic Z-matrix:
 Charge =  1 Multiplicity = 2

 SCF Done:  E(UM062X) =  -79.3111545021     A.U. after   10 cycles
 SCF Done:  E(UM062X) =  -79.3111667554     A.U. after    8 cycles
 SCF Done:  E(UM062X) =  -79.3111701313     A.U. after    7 cycles
 SCF Done:  E(UM062X) =  -79.3111719125     A.U. after    8 cycles
 Optimization completed.
    -- Stationary point found.

                          Input orientation:
 ---------------------------------------------------------------------
 Center     Atomic      Atomic             Coordinates (Angstroms)
 Number     Number       Type             X           Y           Z
 ---------------------------------------------------------------------
      1          6           0       -2.782675    0.000000    0.000000
      2          6           0        2.782675    0.000000    0.000000
      3          1           0        2.795747   -0.937031    0.542403
      4          1           0       -2.794228   -0.938141   -0.540529
      5          1           0        2.796607    0.938252    0.540266
      6          1           0        2.795435   -0.001231   -1.082695
      7          1           0       -2.795830    0.937218   -0.542073
      8          1           0       -2.795084    0.000695    1.082708
 ---------------------------------------------------------------------

 Alpha  occ. eigenvalues --  -10.81494 -10.81490  -1.00224  -1.00153  -0.71413
 Alpha  occ. eigenvalues --   -0.71411  -0.71407  -0.71405  -0.43532
 Alpha virt. eigenvalues --   -0.37967  -0.11569  -0.09636  -0.08146  -0.08146
 Alpha virt. eigenvalues --   -0.06163  -0.06162  -0.05068  -0.01728   0.01972
 Alpha virt. eigenvalues --    0.01975   0.02015   0.02105   0.02107   0.08012

  Beta  occ. eigenvalues --  -10.81257 -10.81253  -0.97543  -0.97538  -0.70850
  Beta  occ. eigenvalues --   -0.70847  -0.70844  -0.70843
  Beta virt. eigenvalues --   -0.27069  -0.26318  -0.13386  -0.10281  -0.07793
  Beta virt. eigenvalues --   -0.07793  -0.05971  -0.05971  -0.04927  -0.00763
  Beta virt. eigenvalues --    0.02191   0.02194   0.02421   0.02423   0.02981

 Mulliken charges and spin densities:
               1          2
     1  C   -0.206103   0.565776
     2  C   -0.206198   0.565882
     3  H    0.235382  -0.021938
     4  H    0.235375  -0.021941
     5  H    0.235394  -0.021939
     6  H    0.235367  -0.021950
     7  H    0.235406  -0.021939
     8  H    0.235376  -0.021952
 Sum of Mulliken charges =   1.00000   1.00000

 Dipole moment (field-independent basis, Debye):
    X=              0.0003    Y=             -0.0001    Z=              0.0000  Tot=              0.0003
 Quadrupole moment (field-independent basis, Debye-Ang):
   XX=             24.7859   YY=            -11.1252   ZZ=            -11.1257
   XY=             -0.0002   XZ=              0.0004   YZ=             -0.0004

 Normal termination of Gaussian 16 at Tue Dec  3 16:11:27 2024.
