 Gaussian 16, Revision A.03,
 Gaussian 16:  ES64L-G16RevA.03 25-Dec-2016

 --------------------------------------------
 #p opt UM062X/6-311+G** nosymm int=superfine
 --------------------------------------------

 -------------------
 Title Card Required
 -------------------
 Symbolic Z-matrix:
 Charge =  0 Multiplicity = 1

 SCF Done:  E(UM062X) =  -76.8624910449     A.U. after   15 cycles
 SCF Done:  E(UM062X) =  -76.8629479335     A.U. after   15 cycles
 SCF Done:  E(UM062X) =  -76.8640215266     A.U. after   16 cycles
 SCF Done:  E(UM062X) =  -76.8645485471     A.U. after   16 cycles
 SCF Done:  E(UM062X) =  -76.8646244797     A.U. after   18 cycles
 SCF Done:  E(UM062X) =  -76.8646457083     A.U. after   24 cycles
 SCF Done:  E(UM062X) =  -76.8646458659     A.U. after   10 cycles
 SCF Done:  E(UM062X) =  -76.8646458838     A.U. after   16 cycles
 Optimization completed.
    -- Stationary point found.

                          Input orientation:
 ---------------------------------------------------------------------
 Center     Atomic      Atomic             Coordinates (Angstroms)
 Number     Number       Type             X           Y           Z
 ---------------------------------------------------------------------
      1          6           0       -1.982625    0.000000    0.000000
      2          6           0        1.982625    0.000000    0.000000
      3          1           0       -1.798409   -0.652755    0.889409
      4          1           0        1.798767    0.652479   -0.889685
 ---------------------------------------------------------------------

 Alpha  occ. eigenvalues --  -10.67669 -10.67668  -0.73009  -0.72647  -0.39175
 Alpha  occ. eigenvalues --   -0.39020  -0.23276
 Alpha virt. eigenvalues --   -0.13417  -0.10350  -0.09719   0.03182   0.04481
 Alpha virt. eigenvalues --    0.07232   0.07253   0.09202   0.09606   0.10779
 Alpha virt. eigenvalues --    0.13802   0.18088   0.19122   0.45216   0.45374

  Beta  occ. eigenvalues --  -10.67669 -10.67668  -0.73009  -0.72647  -0.39175
  Beta  occ. eigenvalues --   -0.39020  -0.23276
  Beta virt. eigenvalues --   -0.13417  -0.10350  -0.09719   0.03182   0.04481
  Beta virt. eigenvalues --    0.07232   0.07253   0.09202   0.09606   0.10779
  Beta virt. eigenvalues --    0.13802   0.18088   0.19122   0.45216   0.45374

 Mulliken charges and spin densities:
               1          2
     1  C   -0.141573  -0.000000
     2  C   -0.141616   0.000000
     3  H    0.141596  -0.000000
     4  H    0.141592  -0.000000
 Sum of Mulliken charges =  -0.00000   0.00000

 Dipole moment (field-independent basis, Debye):
    X=              0.0003    Y=             -0.0005    Z=             -0.0003  Tot=              0.0006
 Quadrupole moment (field-independent basis, Debye-Ang):
   XX=            -17.2193   YY=            -13.0086   ZZ=            -13.8238
   XY=              3.8200   XZ=             -5.2072   YZ=              1.2953

 Normal termination of Gaussian 16 at Wed Dec  4 00:08:05 2024.
