 Gaussian 16, Revision A.03,
 Gaussian 16:  ES64L-G16RevA.03 25-Dec-2016

 ---------------------------------------------------
 #p UM062X/6-311+G** force int=superfine pop=saveNBO
 ---------------------------------------------------

 -------------------
 Title Card Required
 -------------------
 Symbolic Z-matrix:
 Charge =  0 Multiplicity = 1

                         Standard orientation:
 ---------------------------------------------------------------------
 Center     Atomic      Atomic             Coordinates (Angstroms)
 Number     Number       Type             X           Y           Z
 ---------------------------------------------------------------------
      1          8           0        0.000000    0.000000   -1.793424
      2         16           0        0.000000    0.000000    0.896712
 ---------------------------------------------------------------------

 SCF Done:  E(UM062X) =  -473.018689896     A.U. after   18 cycles

 Unable to determine electronic state:  an orbital has unidentified symmetry.
 Alpha  occ. eigenvalues --  -90.03738 -19.75670  -8.39283  -6.31342  -6.31293
 Alpha  occ. eigenvalues --   -6.30400  -1.04320  -0.81281  -0.42779  -0.39985
 Alpha  occ. eigenvalues --   -0.37555  -0.36480
 Alpha virt. eigenvalues --   -0.24342  -0.20018   0.02619   0.04708   0.05200
 Alpha virt. eigenvalues --    0.05630   0.17845   0.19881   0.20115   0.25940
 Alpha virt. eigenvalues --    0.32438   0.33393   0.34485   0.57965   0.74209

  Beta  occ. eigenvalues --  -90.03738 -19.75670  -8.39283  -6.31342  -6.31293
  Beta  occ. eigenvalues --   -6.30400  -1.04320  -0.81281  -0.42779  -0.39985
  Beta  occ. eigenvalues --   -0.37555  -0.36480
  Beta virt. eigenvalues --   -0.24342  -0.20018   0.02619   0.04708   0.05200
  Beta virt. eigenvalues --    0.05630   0.17845   0.19881   0.20115   0.25940
  Beta virt. eigenvalues --    0.32438   0.33393   0.34485   0.57965   0.74209

 Mulliken charges and spin densities:
               1          2
     1  O   -0.215255  -0.000000
     2  S    0.215255   0.000000
 Sum of Mulliken charges =  -0.00000  -0.00000

 Dipole moment (field-independent basis, Debye):
    X=              0.0000    Y=              0.0000    Z=              2.7717  Tot=              2.7717
 Quadrupole moment (field-independent basis, Debye-Ang):
   XX=            -17.2676   YY=            -20.7632   ZZ=            -18.4941
   XY=              0.0000   XZ=              0.0000   YZ=              0.0000

 Summary of Natural Population Analysis:

                                       Natural Population
                Natural  -----------------------------------------------
    Atom  No    Charge         Core      Valence    Rydberg      Total
 -----------------------------------------------------------------------
      O    1   -0.13580      1.00000     3.13480    0.00100     4.13580
      S    2    0.13580      4.99999     2.86326    0.00095     7.86420
 =======================================================================
   * Total *   -0.00000      5.99999     5.99806    0.00195    12.00000

 Normal termination of Gaussian 16 at Mon Apr 21 19:55:19 2025.
