 Gaussian 16, Revision A.03,
 Gaussian 16:  ES64L-G16RevA.03 25-Dec-2016

 ---------------------------------------------------
 #p UM062X/6-311+G** force int=superfine pop=saveNBO
 ---------------------------------------------------

 -------------------
 Title Card Required
 -------------------
 Symbolic Z-matrix:
 Charge =  0 Multiplicity = 1

                         Standard orientation:
 ---------------------------------------------------------------------
 Center     Atomic      Atomic             Coordinates (Angstroms)
 Number     Number       Type             X           Y           Z
 ---------------------------------------------------------------------
      1         15           0        0.000000    0.000000    2.363495
      2         15           0        0.000000    0.000000   -2.363495
 ---------------------------------------------------------------------

 SCF Done:  E(UM062X) =  -682.242834784     A.U. after    9 cycles

 The electronic state is 1-SGG.
 Alpha  occ. eigenvalues --  -78.11498 -78.11498  -6.93221  -6.93221  -5.04516
 Alpha  occ. eigenvalues --   -5.04516  -5.04504  -5.04504  -5.04504  -5.04504
 Alpha  occ. eigenvalues --   -0.63893  -0.63354  -0.25203  -0.24360  -0.24360
 Alpha virt. eigenvalues --   -0.18219  -0.18219  -0.17193   0.02199   0.03406
 Alpha virt. eigenvalues --    0.04322   0.04322   0.06222   0.06269   0.06269
 Alpha virt. eigenvalues --    0.09854   0.28285   0.30310   0.30310   0.32217

  Beta  occ. eigenvalues --  -78.11498 -78.11498  -6.93221  -6.93221  -5.04516
  Beta  occ. eigenvalues --   -5.04516  -5.04504  -5.04504  -5.04504  -5.04504
  Beta  occ. eigenvalues --   -0.63893  -0.63354  -0.25203  -0.24360  -0.24360
  Beta virt. eigenvalues --   -0.18219  -0.18219  -0.17193   0.02199   0.03406
  Beta virt. eigenvalues --    0.04322   0.04322   0.06222   0.06269   0.06269
  Beta virt. eigenvalues --    0.09854   0.28285   0.30310   0.30310   0.32217

 Mulliken charges and spin densities:
               1          2
     1  P   -0.000000   0.000000
     2  P   -0.000000   0.000000
 Sum of Mulliken charges =  -0.00000   0.00000

 Dipole moment (field-independent basis, Debye):
    X=             -0.0000    Y=             -0.0000    Z=              0.0000  Tot=              0.0000
 Quadrupole moment (field-independent basis, Debye-Ang):
   XX=            -29.3540   YY=            -29.3540   ZZ=            -25.1980
   XY=              0.0000   XZ=             -0.0000   YZ=              0.0000

 Summary of Natural Population Analysis:

                                       Natural Population
                Natural  -----------------------------------------------
    Atom  No    Charge         Core      Valence    Rydberg      Total
 -----------------------------------------------------------------------
      P    1   -0.00000      5.00000     2.49961    0.00039     7.50000
      P    2   -0.00000      5.00000     2.49961    0.00039     7.50000
 =======================================================================
   * Total *   -0.00000     10.00000     4.99922    0.00078    15.00000

 Normal termination of Gaussian 16 at Mon Apr 21 21:22:57 2025.
