 Gaussian 16, Revision A.03,
 Gaussian 16:  ES64L-G16RevA.03 25-Dec-2016

 ---------------------------------------------------
 #p UM062X/6-311+G** force int=superfine pop=saveNBO
 ---------------------------------------------------

 -------------------
 Title Card Required
 -------------------
 Symbolic Z-matrix:
 Charge =  0 Multiplicity = 1

                         Standard orientation:
 ---------------------------------------------------------------------
 Center     Atomic      Atomic             Coordinates (Angstroms)
 Number     Number       Type             X           Y           Z
 ---------------------------------------------------------------------
      1          6           0        0.000000    0.000000   -1.412665
      2          8           0        0.000000    0.000000    1.059499
 ---------------------------------------------------------------------

 SCF Done:  E(UM062X) =  -112.801519886     A.U. after   21 cycles

 The electronic state is 1-SG.
 Alpha  occ. eigenvalues --  -19.67603 -10.81465  -0.98776  -0.71262  -0.36706
 Alpha  occ. eigenvalues --   -0.36706  -0.35427
 Alpha virt. eigenvalues --   -0.16919  -0.16919  -0.11929   0.03011   0.06179
 Alpha virt. eigenvalues --    0.06179   0.07023   0.19625   0.22252   0.22252
 Alpha virt. eigenvalues --    0.31290   0.52128   0.52128   0.55199   0.64828

  Beta  occ. eigenvalues --  -19.67603 -10.81465  -0.98776  -0.71262  -0.36706
  Beta  occ. eigenvalues --   -0.36706  -0.35427
  Beta virt. eigenvalues --   -0.16919  -0.16919  -0.11929   0.03011   0.06179
  Beta virt. eigenvalues --    0.06179   0.07023   0.19625   0.22252   0.22252
  Beta virt. eigenvalues --    0.31290   0.52128   0.52128   0.55199   0.64828

 Mulliken charges and spin densities:
               1          2
     1  C    0.292220  -0.000000
     2  O   -0.292220   0.000000
 Sum of Mulliken charges =   0.00000  -0.00000

 Dipole moment (field-independent basis, Debye):
    X=              0.0000    Y=              0.0000    Z=             -3.5786  Tot=              3.5786
 Quadrupole moment (field-independent basis, Debye-Ang):
   XX=            -11.2851   YY=            -11.2851   ZZ=            -11.0288
   XY=              0.0000   XZ=              0.0000   YZ=              0.0000

 Summary of Natural Population Analysis:

                                       Natural Population
                Natural  -----------------------------------------------
    Atom  No    Charge         Core      Valence    Rydberg      Total
 -----------------------------------------------------------------------
      C    1    0.21331      1.00000     1.78618    0.00051     2.78669
      O    2   -0.21331      1.00000     3.21286    0.00045     4.21331
 =======================================================================
   * Total *    0.00000      2.00000     4.99904    0.00096     7.00000

 Normal termination of Gaussian 16 at Mon Apr 21 19:31:37 2025.
