 Gaussian 16, Revision A.03,
 Gaussian 16:  ES64L-G16RevA.03 25-Dec-2016

 --------------------------------------------
 #p opt UM062X/6-311+G** nosymm int=superfine
 --------------------------------------------

 -------------------
 Title Card Required
 -------------------
 Symbolic Z-matrix:
 Charge =  0 Multiplicity = 1

 SCF Done:  E(UM062X) =  -51.7807290410     A.U. after   10 cycles
 SCF Done:  E(UM062X) =  -51.7862374848     A.U. after    9 cycles
 SCF Done:  E(UM062X) =  -51.7896371533     A.U. after   11 cycles
 SCF Done:  E(UM062X) =  -51.7896406326     A.U. after   11 cycles
 SCF Done:  E(UM062X) =  -51.7896400466     A.U. after    8 cycles
 SCF Done:  E(UM062X) =  -51.7896402572     A.U. after   10 cycles
 Optimization completed.
    -- Stationary point found.

                          Input orientation:
 ---------------------------------------------------------------------
 Center     Atomic      Atomic             Coordinates (Angstroms)
 Number     Number       Type             X           Y           Z
 ---------------------------------------------------------------------
      1          5           0       -2.195607    0.000000    0.000000
      2          5           0        2.195607    0.000000    0.000000
      3          1           0       -2.647773   -1.089491    0.000066
      4          1           0        2.647773    1.089475   -0.005800
      5          1           0       -2.647774    1.089490    0.000288
      6          1           0        2.647774   -1.089473    0.006148
 ---------------------------------------------------------------------

 Alpha  occ. eigenvalues --   -7.11633  -7.11632  -0.58036  -0.57832  -0.45434
 Alpha  occ. eigenvalues --   -0.45389  -0.19315
 Alpha virt. eigenvalues --   -0.08411  -0.05166  -0.04372   0.02239   0.03082
 Alpha virt. eigenvalues --    0.03840   0.05340   0.06141   0.07148   0.08423
 Alpha virt. eigenvalues --    0.09955   0.15113   0.15697   0.17227   0.23362

  Beta  occ. eigenvalues --   -7.11633  -7.11632  -0.58036  -0.57832  -0.45434
  Beta  occ. eigenvalues --   -0.45389  -0.19315
  Beta virt. eigenvalues --   -0.08411  -0.05166  -0.04372   0.02239   0.03082
  Beta virt. eigenvalues --    0.03840   0.05340   0.06141   0.07148   0.08423
  Beta virt. eigenvalues --    0.09955   0.15113   0.15697   0.17227   0.23362

 Mulliken charges and spin densities:
               1          2
     1  B   -0.063446  -0.000000
     2  B   -0.063446   0.000000
     3  H    0.031723  -0.000000
     4  H    0.031723   0.000000
     5  H    0.031723  -0.000000
     6  H    0.031723   0.000000
 Sum of Mulliken charges =  -0.00000  -0.00000

 Dipole moment (field-independent basis, Debye):
    X=              0.0000    Y=              0.0000    Z=              0.0004  Tot=              0.0004
 Quadrupole moment (field-independent basis, Debye-Ang):
   XX=            -10.1678   YY=            -16.9704   ZZ=            -14.6534
   XY=             -0.0000   XZ=              0.0000   YZ=              0.0062

 Normal termination of Gaussian 16 at Mon Apr 21 17:16:43 2025.
