 Gaussian 16, Revision A.03,
 Gaussian 16:  ES64L-G16RevA.03 25-Dec-2016

 --------------------------------------------
 #p opt UM062X/6-311+G** nosymm int=superfine
 --------------------------------------------

 -------------------
 Title Card Required
 -------------------
 Symbolic Z-matrix:
 Charge =  0 Multiplicity = 1

 SCF Done:  E(UM062X) =  -94.2590168805     A.U. after   27 cycles
 SCF Done:  E(UM062X) =  -94.2590169128     A.U. after    9 cycles
 SCF Done:  E(UM062X) =  -94.2590169163     A.U. after    8 cycles
 Optimization completed.
    -- Stationary point found.

                          Input orientation:
 ---------------------------------------------------------------------
 Center     Atomic      Atomic             Coordinates (Angstroms)
 Number     Number       Type             X           Y           Z
 ---------------------------------------------------------------------
      1          6           0       -1.981486    0.000000    0.000000
      2          7           0        1.981486    0.000000    0.000000
      3          1           0       -2.673732   -0.847673   -0.166177
      4          1           0        0.940196   -0.000704   -0.000500
      5          1           0       -2.671424    0.849672    0.165616
 ---------------------------------------------------------------------

 Alpha  occ. eigenvalues --  -14.81547 -10.62618  -0.87904  -0.77326  -0.49409
 Alpha  occ. eigenvalues --   -0.44842  -0.33421  -0.32422
 Alpha virt. eigenvalues --   -0.11348  -0.09902   0.01208   0.05322   0.06266
 Alpha virt. eigenvalues --    0.07404   0.13513   0.13754   0.15483   0.17201
 Alpha virt. eigenvalues --    0.17988   0.18084   0.21434   0.43113   0.47514

  Beta  occ. eigenvalues --  -14.81547 -10.62618  -0.87904  -0.77326  -0.49409
  Beta  occ. eigenvalues --   -0.44842  -0.33421  -0.32422
  Beta virt. eigenvalues --   -0.11348  -0.09902   0.01208   0.05322   0.06266
  Beta virt. eigenvalues --    0.07404   0.13513   0.13754   0.15483   0.17201
  Beta virt. eigenvalues --    0.17988   0.18084   0.21434   0.43113   0.47514

 Mulliken charges and spin densities:
               1          2
     1  C   -0.297938   0.000000
     2  N   -0.242645  -0.000000
     3  H    0.142975  -0.000000
     4  H    0.254671   0.000000
     5  H    0.142936  -0.000000
 Sum of Mulliken charges =  -0.00000   0.00000

 Dipole moment (field-independent basis, Debye):
    X=             -4.1244    Y=              0.0016    Z=             -0.0016  Tot=              4.1244
 Quadrupole moment (field-independent basis, Debye-Ang):
   XX=            -13.4827   YY=            -12.3294   ZZ=            -14.8096
   XY=             -0.0061   XZ=             -0.0002   YZ=              0.4511

 Normal termination of Gaussian 16 at Mon Apr 21 22:36:00 2025.
