 Gaussian 16, Revision A.03,
 Gaussian 16:  ES64L-G16RevA.03 25-Dec-2016

 --------------------------------------------
 #p opt UM062X/6-311+G** nosymm int=superfine
 --------------------------------------------

 -------------------
 Title Card Required
 -------------------
 Symbolic Z-matrix:
 Charge =  1 Multiplicity = 2

 SCF Done:  E(UM062X) =  -582.129641771     A.U. after   11 cycles
 SCF Done:  E(UM062X) =  -582.130475851     A.U. after    9 cycles
 SCF Done:  E(UM062X) =  -582.130786866     A.U. after   10 cycles
 SCF Done:  E(UM062X) =  -582.130788062     A.U. after    8 cycles
 Optimization completed.
    -- Stationary point found.

                          Input orientation:
 ---------------------------------------------------------------------
 Center     Atomic      Atomic             Coordinates (Angstroms)
 Number     Number       Type             X           Y           Z
 ---------------------------------------------------------------------
      1         14           0       -2.601292    0.000000    0.000000
      2         14           0        2.601292    0.000000    0.000000
      3          1           0        2.699311   -1.460841   -0.000014
      4          1           0       -2.698553   -0.730288    1.265257
      5          1           0        2.699091    0.730456   -1.265118
      6          1           0        2.698336    0.730372    1.265225
      7          1           0       -2.699338    1.460839   -0.000141
      8          1           0       -2.698848   -0.730543   -1.265086
 ---------------------------------------------------------------------

 Alpha  occ. eigenvalues --  -67.21805 -67.21805  -5.76662  -5.76662  -4.08355
 Alpha  occ. eigenvalues --   -4.08355  -4.07537  -4.07537  -4.07537  -4.07537
 Alpha  occ. eigenvalues --   -0.80382  -0.80178  -0.60841  -0.60840  -0.60809
 Alpha  occ. eigenvalues --   -0.60808  -0.38522
 Alpha virt. eigenvalues --   -0.30434  -0.11498  -0.11427  -0.09803  -0.08926
 Alpha virt. eigenvalues --   -0.08925  -0.07812  -0.07811  -0.07500  -0.06924
 Alpha virt. eigenvalues --   -0.06924  -0.05948  -0.05948  -0.04868   0.00243

  Beta  occ. eigenvalues --  -67.21525 -67.21525  -5.76578  -5.76578  -4.07698
  Beta  occ. eigenvalues --   -4.07698  -4.07440  -4.07440  -4.07440  -4.07440
  Beta  occ. eigenvalues --   -0.78656  -0.78565  -0.60757  -0.60756  -0.60723
  Beta  occ. eigenvalues --   -0.60722
  Beta virt. eigenvalues --   -0.31367  -0.23537  -0.16123  -0.11531  -0.11531
  Beta virt. eigenvalues --   -0.10557  -0.10037  -0.08389  -0.08388  -0.07423
  Beta virt. eigenvalues --   -0.06407  -0.06407  -0.05479  -0.05478  -0.05471

 Mulliken charges and spin densities:
               1          2
     1  Si   0.515292   0.561053
     2  Si   0.515292   0.561053
     3  H   -0.005085  -0.020341
     4  H   -0.005105  -0.020355
     5  H   -0.005100  -0.020358
     6  H   -0.005107  -0.020354
     7  H   -0.005085  -0.020341
     8  H   -0.005102  -0.020357
 Sum of Mulliken charges =   1.00000   1.00000

 Dipole moment (field-independent basis, Debye):
    X=              0.0000    Y=             -0.0000    Z=              0.0001  Tot=              0.0001
 Quadrupole moment (field-independent basis, Debye-Ang):
   XX=             11.5856   YY=            -26.2534   ZZ=            -26.2533
   XY=              0.0008   XZ=              0.0001   YZ=             -0.0000

 Normal termination of Gaussian 16 at Mon Apr 21 20:16:41 2025.
