 Gaussian 16, Revision A.03,
 Gaussian 16:  ES64L-G16RevA.03 25-Dec-2016

 --------------------------------------------
 #p opt UM062X/6-311+G** nosymm int=superfine
 --------------------------------------------

 -------------------
 Title Card Required
 -------------------
 Symbolic Z-matrix:
 Charge =  1 Multiplicity = 2

 SCF Done:  E(UM062X) =  -379.500677890     A.U. after   31 cycles
 SCF Done:  E(UM062X) =  -379.500772696     A.U. after  121 cycles
 Optimization completed.
    -- Stationary point found.

                          Input orientation:
 ---------------------------------------------------------------------
 Center     Atomic      Atomic             Coordinates (Angstroms)
 Number     Number       Type             X           Y           Z
 ---------------------------------------------------------------------
      1          6           0       -0.994427    0.000000    0.000000
      2         15           0        0.994427    0.000000    0.000000
      3          1           0       -2.091566    0.000000    0.000000
 ---------------------------------------------------------------------

 Alpha  occ. eigenvalues --  -78.40462 -10.95030  -7.21570  -5.33545  -5.32806
 Alpha  occ. eigenvalues --   -5.32782  -1.04400  -0.91641  -0.70958  -0.59342
 Alpha  occ. eigenvalues --   -0.57358
 Alpha virt. eigenvalues --   -0.36261  -0.34350  -0.24650  -0.14026  -0.10369
 Alpha virt. eigenvalues --   -0.09813  -0.09483  -0.09150  -0.05286  -0.05110
 Alpha virt. eigenvalues --   -0.00207   0.04570   0.12057   0.13839   0.13886

  Beta  occ. eigenvalues --  -78.39966 -10.94947  -7.21451  -5.32692  -5.32419
  Beta  occ. eigenvalues --   -5.32357  -1.01471  -0.89442  -0.69727  -0.56130
  Beta virt. eigenvalues --   -0.40020  -0.33478  -0.29688  -0.23266  -0.15182
  Beta virt. eigenvalues --   -0.10772  -0.09564  -0.09529  -0.09109  -0.05198
  Beta virt. eigenvalues --   -0.05169  -0.00774   0.04723   0.11060   0.12112

 Mulliken charges and spin densities:
               1          2
     1  C   -0.006512   0.342383
     2  P    0.686471   0.670809
     3  H    0.320040  -0.013191
 Sum of Mulliken charges =   1.00000   1.00000

 Dipole moment (field-independent basis, Debye):
    X=              0.2706    Y=              0.0000    Z=             -0.0000  Tot=              0.2706
 Quadrupole moment (field-independent basis, Debye-Ang):
   XX=             -4.9778   YY=            -17.7758   ZZ=            -15.8665
   XY=              0.0000   XZ=             -0.0000   YZ=             -0.9495

 Normal termination of Gaussian 16 at Mon Apr 21 19:24:15 2025.
