 Gaussian 16, Revision A.03,
 Gaussian 16:  ES64L-G16RevA.03 25-Dec-2016

 ---------------------------------------
 #p UM062X/6-311+G** force int=superfine
 ---------------------------------------

 -------------------
 Title Card Required
 -------------------
 Symbolic Z-matrix:
 Charge =  1 Multiplicity = 2

                         Standard orientation:
 ---------------------------------------------------------------------
 Center     Atomic      Atomic             Coordinates (Angstroms)
 Number     Number       Type             X           Y           Z
 ---------------------------------------------------------------------
      1          6           0        0.000000    0.000000    0.758038
      2          6           0        0.000000    0.000000   -0.758038
      3          1           0        0.000000    0.000000    1.847842
      4          1           0        0.000000    0.000000   -1.847839
 ---------------------------------------------------------------------

 SCF Done:  E(UM062X) =  -76.8199597953     A.U. after   10 cycles

 Unable to determine electronic state:  an orbital has unidentified symmetry.
 Alpha  occ. eigenvalues --  -10.98255 -10.98197  -1.14119  -0.98581  -0.86767
 Alpha  occ. eigenvalues --   -0.66532  -0.64260
 Alpha virt. eigenvalues --   -0.33496  -0.31484  -0.21481  -0.14305  -0.10979
 Alpha virt. eigenvalues --   -0.10163  -0.09490  -0.09246  -0.05203  -0.04854
 Alpha virt. eigenvalues --    0.01912   0.04195   0.10062   0.21148   0.31230

  Beta  occ. eigenvalues --  -10.98016 -10.97973  -1.09886  -0.96892  -0.86108
  Beta  occ. eigenvalues --   -0.62084
  Beta virt. eigenvalues --   -0.42557  -0.29783  -0.25891  -0.19489  -0.15424
  Beta virt. eigenvalues --   -0.11300  -0.10316  -0.09832  -0.09624  -0.04994
  Beta virt. eigenvalues --   -0.04603   0.01243   0.04329   0.10563   0.22040

 Mulliken charges and spin densities:
               1          2
     1  C    0.154271   0.520647
     2  C    0.154271   0.520647
     3  H    0.345730  -0.020647
     4  H    0.345728  -0.020647
 Sum of Mulliken charges =   1.00000   1.00000

 Dipole moment (field-independent basis, Debye):
    X=              0.0000    Y=              0.0000    Z=              0.0000  Tot=              0.0000
 Quadrupole moment (field-independent basis, Debye-Ang):
   XX=            -10.3094   YY=            -12.3050   ZZ=              1.6009
   XY=              0.0000   XZ=              0.0000   YZ=              0.0000

 Normal termination of Gaussian 16 at Tue Nov 19 13:34:35 2024.
