 Gaussian 16, Revision A.03,
 Gaussian 16:  ES64L-G16RevA.03 25-Dec-2016

 --------------------------------------------
 #p opt UM062X/6-311+G** nosymm int=superfine
 --------------------------------------------

 -------------------
 Title Card Required
 -------------------
 Symbolic Z-matrix:
 Charge =  0 Multiplicity = 1

 SCF Done:  E(UM062X) =  -437.161168784     A.U. after   16 cycles
 SCF Done:  E(UM062X) =  -437.163439389     A.U. after    9 cycles
 SCF Done:  E(UM062X) =  -437.164222492     A.U. after   15 cycles
 SCF Done:  E(UM062X) =  -437.164223315     A.U. after   15 cycles
 Optimization completed.
    -- Stationary point found.

                          Input orientation:
 ---------------------------------------------------------------------
 Center     Atomic      Atomic             Coordinates (Angstroms)
 Number     Number       Type             X           Y           Z
 ---------------------------------------------------------------------
      1          6           0       -1.952140    0.000000    0.000000
      2         16           0        1.952140    0.000000    0.000000
      3          1           0       -2.632307   -0.871507   -0.000151
      4          1           0       -2.633257    0.870764   -0.000277
 ---------------------------------------------------------------------

 Alpha  occ. eigenvalues --  -89.93892 -10.63277  -8.29928  -6.22706  -6.21140
 Alpha  occ. eigenvalues --   -6.21139  -0.77629  -0.74040  -0.49978  -0.33497
 Alpha  occ. eigenvalues --   -0.31401  -0.31390
 Alpha virt. eigenvalues --   -0.16360  -0.10088   0.01320   0.04784   0.05422
 Alpha virt. eigenvalues --    0.06539   0.08075   0.08856   0.09045   0.13994
 Alpha virt. eigenvalues --    0.17201   0.18320   0.35203   0.36677   0.36827

  Beta  occ. eigenvalues --  -89.93892 -10.63277  -8.29928  -6.22706  -6.21140
  Beta  occ. eigenvalues --   -6.21139  -0.77629  -0.74040  -0.49978  -0.33497
  Beta  occ. eigenvalues --   -0.31401  -0.31390
  Beta virt. eigenvalues --   -0.16360  -0.10088   0.01320   0.04784   0.05422
  Beta virt. eigenvalues --    0.06539   0.08075   0.08856   0.09045   0.13994
  Beta virt. eigenvalues --    0.17201   0.18320   0.35203   0.36677   0.36827

 Mulliken charges and spin densities:
               1          2
     1  C   -0.278322   0.000000
     2  S   -0.014388  -0.000000
     3  H    0.146350  -0.000000
     4  H    0.146360   0.000000
 Sum of Mulliken charges =  -0.00000   0.00000

 Dipole moment (field-independent basis, Debye):
    X=             -2.8713    Y=             -0.0011    Z=             -0.0006  Tot=              2.8713
 Quadrupole moment (field-independent basis, Debye-Ang):
   XX=            -10.5706   YY=            -22.3571   ZZ=            -21.7796
   XY=              0.0002   XZ=             -0.0001   YZ=              0.0000

 Normal termination of Gaussian 16 at Mon Apr 21 19:45:46 2025.
