 Gaussian 16, Revision A.03,
 Gaussian 16:  ES64L-G16RevA.03 25-Dec-2016

 --------------------------------------------
 #p opt UM062X/6-311+G** nosymm int=superfine
 --------------------------------------------

 -------------------
 Title Card Required
 -------------------
 Symbolic Z-matrix:
 Charge =  0 Multiplicity = 1

 SCF Done:  E(UM062X) =  -379.752417263     A.U. after   12 cycles
 SCF Done:  E(UM062X) =  -379.752783272     A.U. after    9 cycles
 Optimization completed.
    -- Stationary point found.

                          Input orientation:
 ---------------------------------------------------------------------
 Center     Atomic      Atomic             Coordinates (Angstroms)
 Number     Number       Type             X           Y           Z
 ---------------------------------------------------------------------
      1          6           0       -1.140377    0.000000    0.000000
      2         15           0        1.140377    0.000000    0.000000
      3          1           0       -2.237651    0.000000    0.000000
 ---------------------------------------------------------------------

 Alpha  occ. eigenvalues --  -78.10480 -10.67999  -6.91929  -5.03434  -5.03143
 Alpha  occ. eigenvalues --   -5.03143  -0.74648  -0.63283  -0.42052  -0.28052
 Alpha  occ. eigenvalues --   -0.28052
 Alpha virt. eigenvalues --   -0.10524  -0.10524  -0.05160   0.01623   0.04425
 Alpha virt. eigenvalues --    0.05399   0.05399   0.07200   0.10057   0.10057
 Alpha virt. eigenvalues --    0.15827   0.21072   0.30012   0.32774   0.32774

  Beta  occ. eigenvalues --  -78.10480 -10.67999  -6.91929  -5.03434  -5.03143
  Beta  occ. eigenvalues --   -5.03143  -0.74648  -0.63283  -0.42052  -0.28052
  Beta  occ. eigenvalues --   -0.28052
  Beta virt. eigenvalues --   -0.10524  -0.10524  -0.05160   0.01623   0.04425
  Beta virt. eigenvalues --    0.05399   0.05399   0.07200   0.10057   0.10057
  Beta virt. eigenvalues --    0.15827   0.21072   0.30012   0.32774   0.32774

 Mulliken charges and spin densities:
               1          2
     1  C   -0.345490   0.000000
     2  P    0.122342  -0.000000
     3  H    0.223148  -0.000000
 Sum of Mulliken charges =  -0.00000  -0.00000

 Dipole moment (field-independent basis, Debye):
    X=             -0.5442    Y=              0.0000    Z=              0.0000  Tot=              0.5442
 Quadrupole moment (field-independent basis, Debye-Ang):
   XX=            -12.9700   YY=            -22.7373   ZZ=            -22.7373
   XY=             -0.0000   XZ=              0.0000   YZ=              0.0000

 Normal termination of Gaussian 16 at Mon Apr 21 19:29:36 2025.
