 Gaussian 16, Revision A.03,
 Gaussian 16:  ES64L-G16RevA.03 25-Dec-2016

 --------------------------------------------
 #p opt UM062X/6-311+G** nosymm int=superfine
 --------------------------------------------

 -------------------
 Title Card Required
 -------------------
 Symbolic Z-matrix:
 Charge = -1 Multiplicity = 2

 SCF Done:  E(UM062X) =  -53.2272387397     A.U. after   11 cycles
 SCF Done:  E(UM062X) =  -53.2281241580     A.U. after   10 cycles
 SCF Done:  E(UM062X) =  -53.2282977098     A.U. after    9 cycles
 Optimization completed.
    -- Stationary point found.

                          Input orientation:
 ---------------------------------------------------------------------
 Center     Atomic      Atomic             Coordinates (Angstroms)
 Number     Number       Type             X           Y           Z
 ---------------------------------------------------------------------
      1          5           0       -1.365672    0.000000    0.000000
      2          5           0        1.365672    0.000000    0.000000
      3          1           0        1.509638   -1.192745   -0.000008
      4          1           0       -1.509364   -0.596399    1.032967
      5          1           0        1.509512    0.596413   -1.032940
      6          1           0        1.509323    0.596385    1.032980
      7          1           0       -1.509646    1.192744    0.000005
      8          1           0       -1.509463   -0.596401   -1.032953
 ---------------------------------------------------------------------

 Alpha  occ. eigenvalues --   -6.81839  -6.81835  -0.39300  -0.36020  -0.20339
 Alpha  occ. eigenvalues --   -0.20339  -0.18446  -0.18446  -0.01329
 Alpha virt. eigenvalues --    0.15746   0.17231   0.17591   0.17591   0.19126
 Alpha virt. eigenvalues --    0.19126   0.21530   0.23026   0.24644   0.33001
 Alpha virt. eigenvalues --    0.33001   0.36992   0.36993   0.39017   0.40918

  Beta  occ. eigenvalues --   -6.81777  -6.81776  -0.36817  -0.34473  -0.19899
  Beta  occ. eigenvalues --   -0.19899  -0.18230  -0.18230
  Beta virt. eigenvalues --    0.13698   0.14957   0.17200   0.17200   0.17703
  Beta virt. eigenvalues --    0.18650   0.18650   0.23971   0.24113   0.30473
  Beta virt. eigenvalues --    0.32847   0.32848   0.37161   0.37161   0.39527

 Mulliken charges and spin densities:
               1          2
     1  B   -0.279681   0.603467
     2  B   -0.279681   0.603467
     3  H   -0.073462  -0.034509
     4  H   -0.073425  -0.034478
     5  H   -0.073434  -0.034481
     6  H   -0.073423  -0.034477
     7  H   -0.073463  -0.034509
     8  H   -0.073431  -0.034480
 Sum of Mulliken charges =  -1.00000   1.00000

 Dipole moment (field-independent basis, Debye):
    X=             -0.0000    Y=             -0.0000    Z=              0.0000  Tot=              0.0000
 Quadrupole moment (field-independent basis, Debye-Ang):
   XX=            -34.2903   YY=            -24.0371   ZZ=            -24.0369
   XY=              0.0002   XZ=              0.0000   YZ=              0.0000

 Normal termination of Gaussian 16 at Mon Apr 21 16:52:39 2025.
