 Gaussian 16, Revision A.03,
 Gaussian 16:  ES64L-G16RevA.03 25-Dec-2016

 --------------------------------------------
 #p opt UM062X/6-311+G** nosymm int=superfine
 --------------------------------------------

 -------------------
 Title Card Required
 -------------------
 Symbolic Z-matrix:
 Charge =  0 Multiplicity = 1

 SCF Done:  E(UM062X) =  -381.070482910     A.U. after   13 cycles
 SCF Done:  E(UM062X) =  -381.072739996     A.U. after   11 cycles
 SCF Done:  E(UM062X) =  -381.072957731     A.U. after   12 cycles
 SCF Done:  E(UM062X) =  -381.068947416     A.U. after   13 cycles
 SCF Done:  E(UM062X) =  -381.072983341     A.U. after   11 cycles
 SCF Done:  E(UM062X) =  -381.072811659     A.U. after   12 cycles
 SCF Done:  E(UM062X) =  -381.073079407     A.U. after   11 cycles
 SCF Done:  E(UM062X) =  -381.073083096     A.U. after   10 cycles
 SCF Done:  E(UM062X) =  -381.073083508     A.U. after    9 cycles
 SCF Done:  E(UM062X) =  -381.073083661     A.U. after    9 cycles
 Optimization completed.
    -- Stationary point found.

                          Input orientation:
 ---------------------------------------------------------------------
 Center     Atomic      Atomic             Coordinates (Angstroms)
 Number     Number       Type             X           Y           Z
 ---------------------------------------------------------------------
      1          6           0       -1.155452    0.000000    0.000000
      2         15           0        1.155452    0.000000    0.000000
      3          1           0       -1.678046   -0.949142    0.012573
      4          1           0        1.119631   -1.419597    0.019254
      5          1           0       -1.668643    0.953680   -0.012671
 ---------------------------------------------------------------------

 Alpha  occ. eigenvalues --  -78.06053 -10.62183  -6.87962  -4.99455  -4.99351
 Alpha  occ. eigenvalues --   -4.99232  -0.76743  -0.66224  -0.51911  -0.39783
 Alpha  occ. eigenvalues --   -0.34666  -0.26794
 Alpha virt. eigenvalues --   -0.09584  -0.01976   0.02206   0.04322   0.05223
 Alpha virt. eigenvalues --    0.05514   0.06627   0.07317   0.10350   0.10963
 Alpha virt. eigenvalues --    0.14632   0.18824   0.21021   0.30313   0.31699

  Beta  occ. eigenvalues --  -78.06053 -10.62183  -6.87962  -4.99455  -4.99351
  Beta  occ. eigenvalues --   -4.99232  -0.76743  -0.66224  -0.51911  -0.39783
  Beta  occ. eigenvalues --   -0.34666  -0.26794
  Beta virt. eigenvalues --   -0.09584  -0.01976   0.02206   0.04322   0.05223
  Beta virt. eigenvalues --    0.05514   0.06627   0.07317   0.10350   0.10963
  Beta virt. eigenvalues --    0.14632   0.18824   0.21021   0.30313   0.31699

 Mulliken charges and spin densities:
               1          2
     1  C   -0.453427   0.000012
     2  P    0.094140  -0.000011
     3  H    0.188253  -0.000000
     4  H   -0.017818   0.000000
     5  H    0.188852  -0.000000
 Sum of Mulliken charges =  -0.00000  -0.00000

 Dipole moment (field-independent basis, Debye):
    X=             -0.8193    Y=             -0.5809    Z=              0.0078  Tot=              1.0044
 Quadrupole moment (field-independent basis, Debye-Ang):
   XX=            -18.6111   YY=            -20.1595   ZZ=            -24.2191
   XY=             -1.1876   XZ=              0.0160   YZ=             -0.0544

 Normal termination of Gaussian 16 at Mon Apr 21 19:12:33 2025.
