 Gaussian 16, Revision A.03,
 Gaussian 16:  ES64L-G16RevA.03 25-Dec-2016

 --------------------------------------------
 #p opt UM062X/6-311+G** nosymm int=superfine
 --------------------------------------------

 -------------------
 Title Card Required
 -------------------
 Symbolic Z-matrix:
 Charge =  0 Multiplicity = 1

 SCF Done:  E(UM062X) =  -114.090775810     A.U. after   13 cycles
 SCF Done:  E(UM062X) =  -114.092809180     A.U. after   10 cycles
 SCF Done:  E(UM062X) =  -114.093450973     A.U. after    9 cycles
 SCF Done:  E(UM062X) =  -114.093455709     A.U. after    8 cycles
 Optimization completed.
    -- Stationary point found.

                          Input orientation:
 ---------------------------------------------------------------------
 Center     Atomic      Atomic             Coordinates (Angstroms)
 Number     Number       Type             X           Y           Z
 ---------------------------------------------------------------------
      1          6           0       -1.673311    0.000000    0.000000
      2          8           0        1.673311    0.000000    0.000000
      3          1           0       -2.346199   -0.875725    0.000001
      4          1           0       -2.346203    0.875722    0.000001
 ---------------------------------------------------------------------

 Alpha  occ. eigenvalues --  -19.73098 -10.63815  -1.02982  -0.77913  -0.50468
 Alpha  occ. eigenvalues --   -0.41860  -0.41853  -0.33522
 Alpha virt. eigenvalues --   -0.16232  -0.10274   0.01488   0.05850   0.07708
 Alpha virt. eigenvalues --    0.08177   0.15677   0.17214   0.18053   0.20227
 Alpha virt. eigenvalues --    0.22596   0.26793   0.43203   0.46428   0.57040

  Beta  occ. eigenvalues --  -19.73098 -10.63815  -1.02982  -0.77913  -0.50468
  Beta  occ. eigenvalues --   -0.41860  -0.41853  -0.33522
  Beta virt. eigenvalues --   -0.16232  -0.10274   0.01488   0.05850   0.07708
  Beta virt. eigenvalues --    0.08177   0.15677   0.17214   0.18053   0.20227
  Beta virt. eigenvalues --    0.22596   0.26793   0.43203   0.46428   0.57040

 Mulliken charges and spin densities:
               1          2
     1  C   -0.257126   0.000000
     2  O   -0.044210   0.000000
     3  H    0.150668   0.000000
     4  H    0.150668   0.000000
 Sum of Mulliken charges =  -0.00000   0.00000

 Dipole moment (field-independent basis, Debye):
    X=             -3.1716    Y=             -0.0000    Z=              0.0000  Tot=              3.1716
 Quadrupole moment (field-independent basis, Debye-Ang):
   XX=             -5.7698   YY=            -13.0159   ZZ=            -12.5020
   XY=              0.0000   XZ=             -0.0000   YZ=             -0.0000

 Normal termination of Gaussian 16 at Mon Apr 21 18:50:21 2025.
