 Gaussian 16, Revision A.03,
 Gaussian 16:  ES64L-G16RevA.03 25-Dec-2016

 --------------------------------------------
 #p opt UM062X/6-311+G** nosymm int=superfine
 --------------------------------------------

 -------------------
 Title Card Required
 -------------------
 Symbolic Z-matrix:
 Charge =  0 Multiplicity = 1

 SCF Done:  E(UM062X) =  -380.931261880     A.U. after   18 cycles
 SCF Done:  E(UM062X) =  -380.933912752     A.U. after   16 cycles
 SCF Done:  E(UM062X) =  -380.934863223     A.U. after   15 cycles
 SCF Done:  E(UM062X) =  -380.934923073     A.U. after   16 cycles
 SCF Done:  E(UM062X) =  -380.935055241     A.U. after   15 cycles
 SCF Done:  E(UM062X) =  -380.935165171     A.U. after   18 cycles
 SCF Done:  E(UM062X) =  -380.935224626     A.U. after   21 cycles
 SCF Done:  E(UM062X) =  -380.935226034     A.U. after   15 cycles
 SCF Done:  E(UM062X) =  -380.935227019     A.U. after   23 cycles
 SCF Done:  E(UM062X) =  -380.935228663     A.U. after   16 cycles
 SCF Done:  E(UM062X) =  -380.935229048     A.U. after   13 cycles
 SCF Done:  E(UM062X) =  -380.935230022     A.U. after   19 cycles
 SCF Done:  E(UM062X) =  -380.935232615     A.U. after   16 cycles
 SCF Done:  E(UM062X) =  -380.935232269     A.U. after   25 cycles
 SCF Done:  E(UM062X) =  -380.935233552     A.U. after   20 cycles
 SCF Done:  E(UM062X) =  -380.935233526     A.U. after   15 cycles
 SCF Done:  E(UM062X) =  -380.935232979     A.U. after   16 cycles
 SCF Done:  E(UM062X) =  -380.935234428     A.U. after   14 cycles
 SCF Done:  E(UM062X) =  -380.935234467     A.U. after   14 cycles
 SCF Done:  E(UM062X) =  -380.935234460     A.U. after   18 cycles
 Optimization completed on the basis of negligible forces.
    -- Stationary point found.

                          Input orientation:
 ---------------------------------------------------------------------
 Center     Atomic      Atomic             Coordinates (Angstroms)
 Number     Number       Type             X           Y           Z
 ---------------------------------------------------------------------
      1          6           0       -1.955452    0.000000    0.000000
      2         15           0        1.955452    0.000000    0.000000
      3          1           0       -2.671228   -0.842944    0.028608
      4          1           0        1.685871   -1.394383   -0.049814
      5          1           0       -2.609768    0.891503   -0.024013
 ---------------------------------------------------------------------

 Alpha  occ. eigenvalues --  -78.04311 -10.62735  -6.86558  -4.98565  -4.97799
 Alpha  occ. eigenvalues --   -4.97343  -0.77237  -0.65357  -0.49470  -0.38055
 Alpha  occ. eigenvalues --   -0.33233  -0.24192
 Alpha virt. eigenvalues --   -0.10999  -0.09732   0.01339   0.03873   0.04681
 Alpha virt. eigenvalues --    0.06136   0.06929   0.07450   0.08770   0.10793
 Alpha virt. eigenvalues --    0.13519   0.17224   0.18667   0.31266   0.33579

  Beta  occ. eigenvalues --  -78.04311 -10.62735  -6.86558  -4.98565  -4.97799
  Beta  occ. eigenvalues --   -4.97343  -0.77237  -0.65357  -0.49470  -0.38055
  Beta  occ. eigenvalues --   -0.33233  -0.24192
  Beta virt. eigenvalues --   -0.10999  -0.09732   0.01339   0.03873   0.04681
  Beta virt. eigenvalues --    0.06136   0.06929   0.07450   0.08770   0.10793
  Beta virt. eigenvalues --    0.13519   0.17224   0.18667   0.31266   0.33579

 Mulliken charges and spin densities:
               1          2
     1  C   -0.292238   0.000000
     2  P    0.038464  -0.000000
     3  H    0.143246  -0.000000
     4  H   -0.032665   0.000000
     5  H    0.143192  -0.000000
 Sum of Mulliken charges =  -0.00000   0.00000

 Dipole moment (field-independent basis, Debye):
    X=             -2.6845    Y=             -0.5918    Z=             -0.0168  Tot=              2.7490
 Quadrupole moment (field-independent basis, Debye-Ang):
   XX=            -12.8837   YY=            -21.3465   ZZ=            -25.3451
   XY=             -1.9812   XZ=             -0.0548   YZ=              0.1788

 Normal termination of Gaussian 16 at Mon Apr 21 19:22:58 2025.
