 Gaussian 16, Revision A.03,
 Gaussian 16:  ES64L-G16RevA.03 25-Dec-2016

 --------------------------------------------
 #p opt UM062X/6-311+G** nosymm int=superfine
 --------------------------------------------

 -------------------
 Title Card Required
 -------------------
 Symbolic Z-matrix:
 Charge =  0 Multiplicity = 1

 SCF Done:  E(UM062X) =  -797.493502316     A.U. after   12 cycles
 SCF Done:  E(UM062X) =  -797.495090013     A.U. after   12 cycles
 SCF Done:  E(UM062X) =  -797.495424330     A.U. after   12 cycles
 SCF Done:  E(UM062X) =  -797.495511591     A.U. after   12 cycles
 SCF Done:  E(UM062X) =  -797.495511939     A.U. after   10 cycles
 SCF Done:  E(UM062X) =  -797.495511996     A.U. after   10 cycles
 SCF Done:  E(UM062X) =  -797.495512003     A.U. after    9 cycles
 Optimization completed.
    -- Stationary point found.

                          Input orientation:
 ---------------------------------------------------------------------
 Center     Atomic      Atomic             Coordinates (Angstroms)
 Number     Number       Type             X           Y           Z
 ---------------------------------------------------------------------
      1         16           0       -1.393191    0.000000    0.000000
      2         16           0        1.393191    0.000000    0.000000
      3          1           0       -1.381040   -1.343148   -0.065120
      4          1           0        1.381111    0.101528    1.340781
 ---------------------------------------------------------------------

 Alpha  occ. eigenvalues --  -89.94404 -89.94404  -8.30556  -8.30554  -6.22711
 Alpha  occ. eigenvalues --   -6.22711  -6.22450  -6.22450  -6.21908  -6.21908
 Alpha  occ. eigenvalues --   -0.83346  -0.79476  -0.47633  -0.47207  -0.37098
 Alpha  occ. eigenvalues --   -0.33378  -0.32964
 Alpha virt. eigenvalues --   -0.13938   0.01860   0.03285   0.04765   0.05059
 Alpha virt. eigenvalues --    0.06157   0.07444   0.07447   0.07595   0.11886
 Alpha virt. eigenvalues --    0.13334   0.30705   0.31083   0.32240   0.35399

  Beta  occ. eigenvalues --  -89.94404 -89.94404  -8.30556  -8.30554  -6.22711
  Beta  occ. eigenvalues --   -6.22711  -6.22450  -6.22450  -6.21908  -6.21908
  Beta  occ. eigenvalues --   -0.83346  -0.79476  -0.47633  -0.47207  -0.37098
  Beta  occ. eigenvalues --   -0.33378  -0.32964
  Beta virt. eigenvalues --   -0.13938   0.01860   0.03285   0.04765   0.05059
  Beta virt. eigenvalues --    0.06157   0.07444   0.07447   0.07595   0.11886
  Beta virt. eigenvalues --    0.13334   0.30705   0.31083   0.32240   0.35399

 Mulliken charges and spin densities:
               1          2
     1  S   -0.089429   0.000000
     2  S   -0.089463  -0.000000
     3  H    0.089454  -0.000000
     4  H    0.089438   0.000000
 Sum of Mulliken charges =   0.00000  -0.00000

 Dipole moment (field-independent basis, Debye):
    X=             -0.0002    Y=             -0.9804    Z=              1.0074  Tot=              1.4057
 Quadrupole moment (field-independent basis, Debye-Ang):
   XX=            -25.7449   YY=            -27.8116   ZZ=            -27.8396
   XY=              1.9343   XZ=              1.8828   YZ=              0.5130

 Normal termination of Gaussian 16 at Mon Apr 21 21:15:28 2025.
