 Gaussian 16, Revision A.03,
 Gaussian 16:  ES64L-G16RevA.03 25-Dec-2016

 --------------------------------------------
 #p opt UM062X/6-311+G** nosymm int=superfine
 --------------------------------------------

 -------------------
 Title Card Required
 -------------------
 Symbolic Z-matrix:
 Charge =  0 Multiplicity = 1

 SCF Done:  E(UM062X) =  -83.1330982841     A.U. after   10 cycles
 SCF Done:  E(UM062X) =  -83.1467403392     A.U. after    9 cycles
 SCF Done:  E(UM062X) =  -83.1490062289     A.U. after    8 cycles
 SCF Done:  E(UM062X) =  -83.1490156638     A.U. after    7 cycles
 Optimization completed.
    -- Stationary point found.

                          Input orientation:
 ---------------------------------------------------------------------
 Center     Atomic      Atomic             Coordinates (Angstroms)
 Number     Number       Type             X           Y           Z
 ---------------------------------------------------------------------
      1          5           0       -1.477429    0.000000    0.000000
      2          7           0        1.477429    0.000000    0.000000
      3          1           0        1.836340   -0.947191   -0.000005
      4          1           0       -1.513380   -0.594251    1.029221
      5          1           0        1.836222    0.473658   -0.820310
      6          1           0        1.836210    0.473644    0.820324
      7          1           0       -1.513416    1.188454    0.000023
      8          1           0       -1.513394   -0.594215   -1.029242
 ---------------------------------------------------------------------

 Alpha  occ. eigenvalues --  -14.74226  -7.03153  -0.97212  -0.56387  -0.55097
 Alpha  occ. eigenvalues --   -0.55097  -0.38794  -0.38794  -0.35568
 Alpha virt. eigenvalues --   -0.00742   0.02107   0.04830   0.04830   0.06245
 Alpha virt. eigenvalues --    0.08546   0.10986   0.10986   0.17299   0.17300
 Alpha virt. eigenvalues --    0.18178   0.20008   0.20008   0.23118   0.29118

  Beta  occ. eigenvalues --  -14.74226  -7.03153  -0.97212  -0.56387  -0.55097
  Beta  occ. eigenvalues --   -0.55097  -0.38794  -0.38794  -0.35568
  Beta virt. eigenvalues --   -0.00742   0.02107   0.04830   0.04830   0.06245
  Beta virt. eigenvalues --    0.08546   0.10986   0.10986   0.17299   0.17300
  Beta virt. eigenvalues --    0.18178   0.20008   0.20008   0.23118   0.29118

 Mulliken charges and spin densities:
               1          2
     1  B    0.015485   0.000000
     2  N   -0.750275  -0.000000
     3  H    0.256232   0.000000
     4  H   -0.011301  -0.000000
     5  H    0.256233   0.000000
     6  H    0.256233   0.000000
     7  H   -0.011305  -0.000000
     8  H   -0.011301  -0.000000
 Sum of Mulliken charges =  -0.00000  -0.00000

 Dipole moment (field-independent basis, Debye):
    X=              2.4216    Y=              0.0002    Z=              0.0000  Tot=              2.4216
 Quadrupole moment (field-independent basis, Debye-Ang):
   XX=            -11.9462   YY=            -15.7556   ZZ=            -15.7556
   XY=              0.0000   XZ=             -0.0000   YZ=              0.0000

 Normal termination of Gaussian 16 at Mon Apr 21 17:37:51 2025.
