 Gaussian 16, Revision A.03,
 Gaussian 16:  ES64L-G16RevA.03 25-Dec-2016

 --------------------------------------------
 #p opt UM062X/6-311+G** nosymm int=superfine
 --------------------------------------------

 -------------------
 Title Card Required
 -------------------
 Symbolic Z-matrix:
 Charge =  0 Multiplicity = 1

 SCF Done:  E(UM062X) =  -582.479085021     A.U. after    9 cycles
 SCF Done:  E(UM062X) =  -582.479770505     A.U. after    8 cycles
 SCF Done:  E(UM062X) =  -582.479860501     A.U. after    7 cycles
 Optimization completed.
    -- Stationary point found.

                          Input orientation:
 ---------------------------------------------------------------------
 Center     Atomic      Atomic             Coordinates (Angstroms)
 Number     Number       Type             X           Y           Z
 ---------------------------------------------------------------------
      1         14           0       -1.519819    0.000000    0.000000
      2         14           0        1.519819    0.000000    0.000000
      3          1           0        1.982354   -1.403269   -0.000053
      4          1           0       -1.982411   -0.701478    1.215347
      5          1           0        1.982496    0.701643   -1.215219
      6          1           0        1.982416    0.701529    1.215316
      7          1           0       -1.982356    1.403268   -0.000113
      8          1           0       -1.982499   -0.701696   -1.215187
 ---------------------------------------------------------------------

 Alpha  occ. eigenvalues --  -67.00680 -67.00680  -5.55534  -5.55533  -3.86718
 Alpha  occ. eigenvalues --   -3.86713  -3.86602  -3.86602  -3.86602  -3.86602
 Alpha  occ. eigenvalues --   -0.61563  -0.59314  -0.41574  -0.41573  -0.40735
 Alpha  occ. eigenvalues --   -0.40735  -0.28503
 Alpha virt. eigenvalues --   -0.02655   0.02083   0.02983   0.02983   0.04412
 Alpha virt. eigenvalues --    0.04688   0.05560   0.05560   0.06529   0.06529
 Alpha virt. eigenvalues --    0.08187   0.09152   0.09152   0.15136   0.17437

  Beta  occ. eigenvalues --  -67.00680 -67.00680  -5.55534  -5.55533  -3.86718
  Beta  occ. eigenvalues --   -3.86713  -3.86602  -3.86602  -3.86602  -3.86602
  Beta  occ. eigenvalues --   -0.61563  -0.59314  -0.41574  -0.41573  -0.40735
  Beta  occ. eigenvalues --   -0.40735  -0.28503
  Beta virt. eigenvalues --   -0.02655   0.02083   0.02983   0.02983   0.04412
  Beta virt. eigenvalues --    0.04688   0.05560   0.05560   0.06529   0.06529
  Beta virt. eigenvalues --    0.08187   0.09152   0.09152   0.15136   0.17437

 Mulliken charges and spin densities:
               1          2
     1  Si   0.293933  -0.000000
     2  Si   0.293933   0.000000
     3  H   -0.097980  -0.000000
     4  H   -0.097977  -0.000000
     5  H   -0.097976  -0.000000
     6  H   -0.097977  -0.000000
     7  H   -0.097980   0.000000
     8  H   -0.097976   0.000000
 Sum of Mulliken charges =  -0.00000   0.00000

 Dipole moment (field-independent basis, Debye):
    X=              0.0000    Y=              0.0000    Z=             -0.0000  Tot=              0.0000
 Quadrupole moment (field-independent basis, Debye-Ang):
   XX=            -31.0034   YY=            -31.6769   ZZ=            -31.6768
   XY=              0.0004   XZ=              0.0000   YZ=              0.0000

 Normal termination of Gaussian 16 at Mon Apr 21 20:19:27 2025.
