 Gaussian 16, Revision A.03,
 Gaussian 16:  ES64L-G16RevA.03 25-Dec-2016

 ---------------------------------------------------
 #p UM062X/6-311+G** force int=superfine pop=saveNBO
 ---------------------------------------------------

 -------------------
 Title Card Required
 -------------------
 Symbolic Z-matrix:
 Charge =  0 Multiplicity = 1

                         Standard orientation:
 ---------------------------------------------------------------------
 Center     Atomic      Atomic             Coordinates (Angstroms)
 Number     Number       Type             X           Y           Z
 ---------------------------------------------------------------------
      1          8           0        0.000000    0.000000    0.668562
      2          8           0        0.000000    0.000000   -0.668562
 ---------------------------------------------------------------------

 SCF Done:  E(UM062X) =  -150.221889071     A.U. after    9 cycles

 Unable to determine electronic state:  partially filled degenerate orbitals.
 Alpha  occ. eigenvalues --  -19.80873 -19.80836  -1.33798  -0.96221  -0.60413
 Alpha  occ. eigenvalues --   -0.58758  -0.55474  -0.38904
 Alpha virt. eigenvalues --   -0.16810   0.07707   0.10674   0.14568   0.15296
 Alpha virt. eigenvalues --    0.19796   0.20727   0.21564   0.21910   0.34924
 Alpha virt. eigenvalues --    0.98600   0.99514   0.99543   1.03176   1.06374

  Beta  occ. eigenvalues --  -19.80873 -19.80836  -1.33798  -0.96221  -0.60413
  Beta  occ. eigenvalues --   -0.58758  -0.55474  -0.38904
  Beta virt. eigenvalues --   -0.16810   0.07707   0.10674   0.14568   0.15296
  Beta virt. eigenvalues --    0.19796   0.20727   0.21564   0.21910   0.34924
  Beta virt. eigenvalues --    0.98600   0.99514   0.99543   1.03176   1.06374

 Mulliken charges and spin densities:
               1          2
     1  O    0.000000  -0.000000
     2  O    0.000000  -0.000000
 Sum of Mulliken charges =   0.00000  -0.00000

 Dipole moment (field-independent basis, Debye):
    X=             -0.0000    Y=              0.0000    Z=             -0.0000  Tot=              0.0000
 Quadrupole moment (field-independent basis, Debye-Ang):
   XX=             -9.4836   YY=            -11.2770   ZZ=            -10.6338
   XY=              0.0000   XZ=              0.0000   YZ=              0.0000

 Summary of Natural Population Analysis:

                                       Natural Population
                Natural  -----------------------------------------------
    Atom  No    Charge         Core      Valence    Rydberg      Total
 -----------------------------------------------------------------------
      O    1    0.00000      0.99998     2.98946    0.01056     4.00000
      O    2    0.00000      0.99998     2.98946    0.01056     4.00000
 =======================================================================
   * Total *    0.00000      1.99995     5.97893    0.02112     8.00000

 Normal termination of Gaussian 16 at Mon Apr 21 19:53:01 2025.
