 Gaussian 16, Revision A.03,
 Gaussian 16:  ES64L-G16RevA.03 25-Dec-2016

 ---------------------------------------------------
 #p UM062X/6-311+G** force int=superfine pop=saveNBO
 ---------------------------------------------------

 -------------------
 Title Card Required
 -------------------
 Symbolic Z-matrix:
 Charge =  0 Multiplicity = 1

                         Standard orientation:
 ---------------------------------------------------------------------
 Center     Atomic      Atomic             Coordinates (Angstroms)
 Number     Number       Type             X           Y           Z
 ---------------------------------------------------------------------
      1         15           0        0.000000    0.000000    1.738495
      2         15           0        0.000000    0.000000   -1.738495
 ---------------------------------------------------------------------

 SCF Done:  E(UM062X) =  -682.344548050     A.U. after    9 cycles

 The electronic state is 1-SGG.
 Alpha  occ. eigenvalues --  -78.12202 -78.12202  -6.93766  -6.93766  -5.05062
 Alpha  occ. eigenvalues --   -5.05062  -5.05062  -5.05062  -5.05052  -5.05051
 Alpha  occ. eigenvalues --   -0.65017  -0.62592  -0.28811  -0.25979  -0.25979
 Alpha virt. eigenvalues --   -0.16619  -0.16619  -0.13229   0.02390   0.03252
 Alpha virt. eigenvalues --    0.04561   0.04561   0.06287   0.06426   0.06426
 Alpha virt. eigenvalues --    0.10987   0.29358   0.29615   0.29615   0.33238

  Beta  occ. eigenvalues --  -78.12202 -78.12202  -6.93766  -6.93766  -5.05062
  Beta  occ. eigenvalues --   -5.05062  -5.05062  -5.05062  -5.05052  -5.05051
  Beta  occ. eigenvalues --   -0.65017  -0.62592  -0.28811  -0.25979  -0.25979
  Beta virt. eigenvalues --   -0.16619  -0.16619  -0.13229   0.02390   0.03252
  Beta virt. eigenvalues --    0.04561   0.04561   0.06287   0.06426   0.06426
  Beta virt. eigenvalues --    0.10987   0.29358   0.29615   0.29615   0.33238

 Mulliken charges and spin densities:
               1          2
     1  P    0.000000   0.000000
     2  P    0.000000   0.000000
 Sum of Mulliken charges =   0.00000   0.00000

 Dipole moment (field-independent basis, Debye):
    X=              0.0000    Y=             -0.0000    Z=             -0.0000  Tot=              0.0000
 Quadrupole moment (field-independent basis, Debye-Ang):
   XX=            -29.4229   YY=            -29.4229   ZZ=            -24.3426
   XY=              0.0000   XZ=             -0.0000   YZ=              0.0000

 Summary of Natural Population Analysis:

                                       Natural Population
                Natural  -----------------------------------------------
    Atom  No    Charge         Core      Valence    Rydberg      Total
 -----------------------------------------------------------------------
      P    1    0.00000      4.99999     2.49936    0.00065     7.50000
      P    2    0.00000      4.99999     2.49936    0.00065     7.50000
 =======================================================================
   * Total *    0.00000      9.99999     4.99872    0.00129    15.00000

 Normal termination of Gaussian 16 at Mon Apr 21 21:22:11 2025.
