 Gaussian 16, Revision A.03,
 Gaussian 16:  ES64L-G16RevA.03 25-Dec-2016

 --------------------------------------------
 #p opt UM062X/6-311+G** nosymm int=superfine
 --------------------------------------------

 -------------------
 Title Card Required
 -------------------
 Symbolic Z-matrix:
 Charge =  1 Multiplicity = 2

 SCF Done:  E(UM062X) =  -579.725626098     A.U. after   16 cycles
 SCF Done:  E(UM062X) =  -579.725623984     A.U. after   13 cycles
 SCF Done:  E(UM062X) =  -579.725626175     A.U. after   13 cycles
 Optimization completed.
    -- Stationary point found.

                          Input orientation:
 ---------------------------------------------------------------------
 Center     Atomic      Atomic             Coordinates (Angstroms)
 Number     Number       Type             X           Y           Z
 ---------------------------------------------------------------------
      1         14           0       -1.352975    0.000000    0.000000
      2         14           0        1.352975    0.000000    0.000000
      3          1           0       -1.588842   -1.192984    0.883228
      4          1           0        1.585059   -0.512426   -1.393843
 ---------------------------------------------------------------------

 Alpha  occ. eigenvalues --  -67.27858 -67.27851  -5.82104  -5.82097  -4.13281
 Alpha  occ. eigenvalues --   -4.13271  -4.13166  -4.13158  -4.12558  -4.12551
 Alpha  occ. eigenvalues --   -0.81273  -0.75248  -0.57085  -0.53965  -0.47843
 Alpha virt. eigenvalues --   -0.29895  -0.28710  -0.20024  -0.13542  -0.11177
 Alpha virt. eigenvalues --   -0.09216  -0.09146  -0.08727  -0.08454  -0.06105
 Alpha virt. eigenvalues --   -0.05912  -0.05773  -0.02922   0.11444   0.12212

  Beta  occ. eigenvalues --  -67.27543 -67.27537  -5.81976  -5.81970  -4.13108
  Beta  occ. eigenvalues --   -4.13101  -4.12537  -4.12528  -4.12292  -4.12285
  Beta  occ. eigenvalues --   -0.79423  -0.73262  -0.56600  -0.51460
  Beta virt. eigenvalues --   -0.31928  -0.29350  -0.27311  -0.17502  -0.13472
  Beta virt. eigenvalues --   -0.10874  -0.09385  -0.08776  -0.08278  -0.07539
  Beta virt. eigenvalues --   -0.05908  -0.05149  -0.05144  -0.01970   0.10798

 Mulliken charges and spin densities:
               1          2
     1  Si   0.545644   0.507729
     2  Si   0.546084   0.505979
     3  H   -0.045699  -0.006839
     4  H   -0.046029  -0.006869
 Sum of Mulliken charges =   1.00000   1.00000

 Dipole moment (field-independent basis, Debye):
    X=             -0.0038    Y=             -0.4986    Z=             -0.1490  Tot=              0.5204
 Quadrupole moment (field-independent basis, Debye-Ang):
   XX=            -11.8490   YY=            -22.1411   ZZ=            -23.7189
   XY=              0.3272   XZ=             -1.1000   YZ=              0.5164

 Normal termination of Gaussian 16 at Tue Apr 22 01:59:10 2025.
