 Gaussian 16, Revision A.03,
 Gaussian 16:  ES64L-G16RevA.03 25-Dec-2016

 --------------------------------------------
 #p opt UM062X/6-311+G** nosymm int=superfine
 --------------------------------------------

 -------------------
 Title Card Required
 -------------------
 Symbolic Z-matrix:
 Charge =  0 Multiplicity = 1

 SCF Done:  E(UM062X) =  -79.5990355941     A.U. after   10 cycles
 SCF Done:  E(UM062X) =  -79.6015906674     A.U. after    9 cycles
 SCF Done:  E(UM062X) =  -79.6024272598     A.U. after    9 cycles
 SCF Done:  E(UM062X) =  -79.6024291742     A.U. after    7 cycles
 Optimization completed.
    -- Stationary point found.

                          Input orientation:
 ---------------------------------------------------------------------
 Center     Atomic      Atomic             Coordinates (Angstroms)
 Number     Number       Type             X           Y           Z
 ---------------------------------------------------------------------
      1          6           0       -1.671675    0.000000    0.000000
      2          6           0        1.671800    0.000000    0.000000
      3          1           0        1.769162   -0.931135    0.538796
      4          1           0       -1.769027   -0.932185   -0.536978
      5          1           0        1.769155    0.932185    0.536977
      6          1           0        1.769153   -0.001050   -1.075786
      7          1           0       -1.769037    0.931135   -0.538795
      8          1           0       -1.769031    0.001049    1.075786
 ---------------------------------------------------------------------

 Alpha  occ. eigenvalues --  -10.57029 -10.57028  -0.76973  -0.76216  -0.48919
 Alpha  occ. eigenvalues --   -0.48919  -0.48542  -0.48542  -0.23271
 Alpha virt. eigenvalues --   -0.09117   0.03013   0.05353   0.05353   0.05399
 Alpha virt. eigenvalues --    0.07686   0.07686   0.11266   0.12465   0.18466
 Alpha virt. eigenvalues --    0.18467   0.20880   0.20880   0.23661   0.25048

  Beta  occ. eigenvalues --  -10.57029 -10.57028  -0.76973  -0.76216  -0.48919
  Beta  occ. eigenvalues --   -0.48919  -0.48542  -0.48542  -0.23271
  Beta virt. eigenvalues --   -0.09117   0.03013   0.05353   0.05353   0.05399
  Beta virt. eigenvalues --    0.07686   0.07686   0.11266   0.12465   0.18466
  Beta virt. eigenvalues --    0.18467   0.20880   0.20880   0.23661   0.25048

 Mulliken charges and spin densities:
               1          2
     1  C   -0.526226   0.000000
     2  C   -0.526227  -0.000000
     3  H    0.175409   0.000000
     4  H    0.175409  -0.000000
     5  H    0.175409   0.000000
     6  H    0.175409   0.000000
     7  H    0.175409  -0.000000
     8  H    0.175409  -0.000000
 Sum of Mulliken charges =  -0.00000  -0.00000

 Dipole moment (field-independent basis, Debye):
    X=             -0.0000    Y=             -0.0000    Z=             -0.0000  Tot=              0.0000
 Quadrupole moment (field-independent basis, Debye-Ang):
   XX=            -15.4069   YY=            -14.8272   ZZ=            -14.8273
   XY=             -0.0000   XZ=             -0.0000   YZ=              0.0000

 Normal termination of Gaussian 16 at Tue Dec  3 10:03:00 2024.
