 Gaussian 16, Revision A.03,
 Gaussian 16:  ES64L-G16RevA.03 25-Dec-2016

 --------------------------------------------
 #p opt UM062X/6-311+G** nosymm int=superfine
 --------------------------------------------

 -------------------
 Title Card Required
 -------------------
 Symbolic Z-matrix:
 Charge =  0 Multiplicity = 1

 SCF Done:  E(UM062X) =  -79.1393967273     A.U. after   10 cycles
 SCF Done:  E(UM062X) =  -79.2023547136     A.U. after    8 cycles
 SCF Done:  E(UM062X) =  -79.2548109910     A.U. after    9 cycles
 SCF Done:  E(UM062X) =  -79.2573646439     A.U. after    8 cycles
 SCF Done:  E(UM062X) =  -79.2573884913     A.U. after    7 cycles
 Optimization completed.
    -- Stationary point found.

                          Input orientation:
 ---------------------------------------------------------------------
 Center     Atomic      Atomic             Coordinates (Angstroms)
 Number     Number       Type             X           Y           Z
 ---------------------------------------------------------------------
      1          6           0       -0.473399    0.000000    0.000000
      2          6           0        0.473448    0.000000    0.000000
      3          1           0        1.027271   -0.843896    0.488320
      4          1           0       -1.027203   -0.844900   -0.486654
      5          1           0        1.027252    0.844901    0.486649
      6          1           0        1.027260   -0.000908   -0.975028
      7          1           0       -1.027223    0.843893   -0.488325
      8          1           0       -1.027211    0.000905    0.975026
 ---------------------------------------------------------------------

 Alpha  occ. eigenvalues --  -10.51038 -10.48954  -0.99986  -0.66583  -0.59402
 Alpha  occ. eigenvalues --   -0.59400  -0.55249  -0.31363  -0.31361
 Alpha virt. eigenvalues --    0.01849   0.03822   0.03823   0.04079   0.08523
 Alpha virt. eigenvalues --    0.09073   0.09073   0.14260   0.16538   0.16539
 Alpha virt. eigenvalues --    0.21076   0.21077   0.23605   0.27323   0.41629

  Beta  occ. eigenvalues --  -10.51038 -10.48954  -0.99986  -0.66583  -0.59402
  Beta  occ. eigenvalues --   -0.59400  -0.55249  -0.31363  -0.31361
  Beta virt. eigenvalues --    0.01849   0.03822   0.03823   0.04079   0.08523
  Beta virt. eigenvalues --    0.09073   0.09073   0.14260   0.16538   0.16539
  Beta virt. eigenvalues --    0.21076   0.21077   0.23605   0.27323   0.41629

 Mulliken charges and spin densities:
               1          2
     1  C   -0.401789  -0.000000
     2  C   -0.401789   0.000000
     3  H    0.133934  -0.000000
     4  H    0.133927   0.000000
     5  H    0.133927  -0.000000
     6  H    0.133929  -0.000000
     7  H    0.133934   0.000000
     8  H    0.133929   0.000000
 Sum of Mulliken charges =  -0.00000   0.00000

 Dipole moment (field-independent basis, Debye):
    X=              0.0000    Y=             -0.0000    Z=             -0.0000  Tot=              0.0000
 Quadrupole moment (field-independent basis, Debye-Ang):
   XX=            -15.7455   YY=            -14.9664   ZZ=            -14.9666
   XY=             -0.0001   XZ=              0.0000   YZ=             -0.0002

 Normal termination of Gaussian 16 at Tue Nov 19 11:34:09 2024.
