 Gaussian 16, Revision A.03,
 Gaussian 16:  ES64L-G16RevA.03 25-Dec-2016

 --------------------------------------------
 #p opt UM062X/6-311+G** nosymm int=superfine
 --------------------------------------------

 -------------------
 Title Card Required
 -------------------
 Symbolic Z-matrix:
 Charge =  0 Multiplicity = 1

 SCF Done:  E(UM062X) =  -110.477714960     A.U. after   10 cycles
 SCF Done:  E(UM062X) =  -110.487609797     A.U. after   10 cycles
 SCF Done:  E(UM062X) =  -110.487620857     A.U. after    8 cycles
 Optimization completed.
    -- Stationary point found.

                          Input orientation:
 ---------------------------------------------------------------------
 Center     Atomic      Atomic             Coordinates (Angstroms)
 Number     Number       Type             X           Y           Z
 ---------------------------------------------------------------------
      1          7           0       -0.865428    0.000000    0.000000
      2          7           0        0.865428    0.000000    0.000000
      3          1           0       -0.944159   -1.027487    0.000000
      4          1           0        0.944159    1.027487    0.000000
 ---------------------------------------------------------------------

 Alpha  occ. eigenvalues --  -14.86409 -14.86390  -1.00018  -0.85419  -0.50944
 Alpha  occ. eigenvalues --   -0.48723  -0.39042  -0.37336
 Alpha virt. eigenvalues --   -0.12114   0.01739   0.05963   0.08513   0.12076
 Alpha virt. eigenvalues --    0.12606   0.13018   0.15231   0.16539   0.18604
 Alpha virt. eigenvalues --    0.21887   0.26373   0.54332   0.57483   0.75039

  Beta  occ. eigenvalues --  -14.86409 -14.86390  -1.00018  -0.85419  -0.50944
  Beta  occ. eigenvalues --   -0.48723  -0.39042  -0.37336
  Beta virt. eigenvalues --   -0.12114   0.01739   0.05963   0.08513   0.12076
  Beta virt. eigenvalues --    0.12606   0.13018   0.15231   0.16539   0.18604
  Beta virt. eigenvalues --    0.21887   0.26373   0.54332   0.57483   0.75039

 Mulliken charges and spin densities:
               1          2
     1  N   -0.250084  -0.000000
     2  N   -0.250084   0.000000
     3  H    0.250084   0.000000
     4  H    0.250084  -0.000000
 Sum of Mulliken charges =  -0.00000   0.00000

 Dipole moment (field-independent basis, Debye):
    X=              0.0000    Y=              0.0000    Z=              0.0000  Tot=              0.0000
 Quadrupole moment (field-independent basis, Debye-Ang):
   XX=            -13.6874   YY=            -10.6002   ZZ=            -13.5025
   XY=              3.8716   XZ=              0.0000   YZ=              0.0000

 Normal termination of Gaussian 16 at Thu May 15 15:33:29 2025.
