 Gaussian 16, Revision A.03,
 Gaussian 16:  ES64L-G16RevA.03 25-Dec-2016

 --------------------------------------------
 #p opt UM062X/6-311+G** nosymm int=superfine
 --------------------------------------------

 -------------------
 Title Card Required
 -------------------
 Symbolic Z-matrix:
 Charge =  0 Multiplicity = 1

 SCF Done:  E(UM062X) =  -111.723046432     A.U. after   14 cycles
 SCF Done:  E(UM062X) =  -111.742771542     A.U. after   14 cycles
 SCF Done:  E(UM062X) =  -111.750037545     A.U. after   14 cycles
 SCF Done:  E(UM062X) =  -111.751048213     A.U. after   11 cycles
 SCF Done:  E(UM062X) =  -111.752357375     A.U. after   13 cycles
 SCF Done:  E(UM062X) =  -111.752590956     A.U. after   11 cycles
 SCF Done:  E(UM062X) =  -111.752692465     A.U. after   11 cycles
 SCF Done:  E(UM062X) =  -111.752696535     A.U. after    9 cycles
 SCF Done:  E(UM062X) =  -111.752696967     A.U. after    8 cycles
 SCF Done:  E(UM062X) =  -111.752696993     A.U. after    7 cycles
 Optimization completed.
    -- Stationary point found.

                          Input orientation:
 ---------------------------------------------------------------------
 Center     Atomic      Atomic             Coordinates (Angstroms)
 Number     Number       Type             X           Y           Z
 ---------------------------------------------------------------------
      1          7           0       -1.111540    0.000000    0.000000
      2          7           0        1.111540    0.000000    0.000000
      3          1           0       -1.120011   -0.821270   -0.612737
      4          1           0        1.119885    0.417055   -0.935944
      5          1           0       -1.119849   -0.417278    0.935844
      6          1           0        1.119979    0.821411    0.612549
 ---------------------------------------------------------------------

 Alpha  occ. eigenvalues --  -14.79402 -14.79397  -0.96537  -0.91672  -0.55642
 Alpha  occ. eigenvalues --   -0.52602  -0.41383  -0.39527  -0.34142
 Alpha virt. eigenvalues --   -0.07649   0.04556   0.07611   0.08835   0.11591
 Alpha virt. eigenvalues --    0.13385   0.13611   0.15472   0.16001   0.20839
 Alpha virt. eigenvalues --    0.22209   0.27553   0.27582   0.51380   0.52044

  Beta  occ. eigenvalues --  -14.79402 -14.79397  -0.96537  -0.91672  -0.55642
  Beta  occ. eigenvalues --   -0.52602  -0.41383  -0.39527  -0.34142
  Beta virt. eigenvalues --   -0.07649   0.04556   0.07611   0.08835   0.11591
  Beta virt. eigenvalues --    0.13385   0.13611   0.15472   0.16001   0.20839
  Beta virt. eigenvalues --    0.22209   0.27553   0.27582   0.51380   0.52044

 Mulliken charges and spin densities:
               1          2
     1  N   -0.517229  -0.000000
     2  N   -0.517230   0.000000
     3  H    0.258609   0.000000
     4  H    0.258609  -0.000000
     5  H    0.258620   0.000000
     6  H    0.258621  -0.000000
 Sum of Mulliken charges =  -0.00000   0.00000

 Dipole moment (field-independent basis, Debye):
    X=              0.0000    Y=             -0.0001    Z=             -0.0004  Tot=              0.0004
 Quadrupole moment (field-independent basis, Debye-Ang):
   XX=            -15.4304   YY=            -14.0081   ZZ=            -11.2770
   XY=              5.1169   XZ=             -1.3351   YZ=              0.7649

 Normal termination of Gaussian 16 at Thu May 15 14:32:21 2025.
