 Gaussian 16, Revision A.03,
 Gaussian 16:  ES64L-G16RevA.03 25-Dec-2016

 ---------------------------------------
 #p UM062X/6-311+G** force int=superfine
 ---------------------------------------

 -------------------
 Title Card Required
 -------------------
 Symbolic Z-matrix:
 Charge =  1 Multiplicity = 2

                         Standard orientation:
 ---------------------------------------------------------------------
 Center     Atomic      Atomic             Coordinates (Angstroms)
 Number     Number       Type             X           Y           Z
 ---------------------------------------------------------------------
      1          6           0       -0.000000    0.770512    0.000000
      2          6           0       -0.000000   -0.770512    0.000000
      3          1           0       -0.946027    1.302743    0.000000
      4          1           0        0.945998    1.302793    0.000000
      5          1           0        0.946027   -1.302743    0.000000
      6          1           0       -0.945998   -1.302793    0.000000
 ---------------------------------------------------------------------

 SCF Done:  E(UM062X) =  -78.1734143856     A.U. after    9 cycles

 The electronic state is 2-AU.
 Alpha  occ. eigenvalues --  -10.90452 -10.90404  -1.14866  -0.98329  -0.83418
 Alpha  occ. eigenvalues --   -0.76899  -0.74269  -0.63765
 Alpha virt. eigenvalues --   -0.31514  -0.14594  -0.13133  -0.11915  -0.09328
 Alpha virt. eigenvalues --   -0.07628  -0.07055  -0.04696  -0.04561  -0.02127
 Alpha virt. eigenvalues --   -0.01492  -0.00730   0.03968   0.10314   0.19584

  Beta  occ. eigenvalues --  -10.90226 -10.90190  -1.11153  -0.96341  -0.82468
  Beta  occ. eigenvalues --   -0.75875  -0.73929
  Beta virt. eigenvalues --   -0.40250  -0.23990  -0.16321  -0.12891  -0.12172
  Beta virt. eigenvalues --   -0.09647  -0.08426  -0.07109  -0.04710  -0.03900
  Beta virt. eigenvalues --   -0.01628  -0.01574   0.00819   0.04401   0.10790

 Mulliken charges and spin densities:
               1          2
     1  C   -0.056729   0.538536
     2  C   -0.056729   0.538536
     3  H    0.278362  -0.019268
     4  H    0.278367  -0.019268
     5  H    0.278362  -0.019268
     6  H    0.278367  -0.019268
 Sum of Mulliken charges =   1.00000   1.00000

 Dipole moment (field-independent basis, Debye):
    X=             -0.0000    Y=             -0.0000    Z=              0.0000  Tot=              0.0000
 Quadrupole moment (field-independent basis, Debye-Ang):
   XX=             -8.4147   YY=             -4.9481   ZZ=            -11.7576
   XY=              0.0001   XZ=              0.0000   YZ=              0.0000

 Normal termination of Gaussian 16 at Tue Nov 19 11:54:36 2024.
