 Gaussian 16, Revision A.03,
 Gaussian 16:  ES64L-G16RevA.03 25-Dec-2016

 --------------------------------------------
 #p opt UM062X/6-311+G** nosymm int=superfine
 --------------------------------------------

 -------------------
 Title Card Required
 -------------------
 Symbolic Z-matrix:
 Charge =  0 Multiplicity = 1

 SCF Done:  E(UM062X) =  -83.1201327210     A.U. after   10 cycles
 SCF Done:  E(UM062X) =  -83.1361207208     A.U. after    9 cycles
 SCF Done:  E(UM062X) =  -83.1398243725     A.U. after    8 cycles
 SCF Done:  E(UM062X) =  -83.1398531868     A.U. after    7 cycles
 Optimization completed.
    -- Stationary point found.

                          Input orientation:
 ---------------------------------------------------------------------
 Center     Atomic      Atomic             Coordinates (Angstroms)
 Number     Number       Type             X           Y           Z
 ---------------------------------------------------------------------
      1          5           0       -2.127429    0.000000    0.000000
      2          7           0        2.127429    0.000000    0.000000
      3          1           0        2.492011   -0.945081    0.000002
      4          1           0       -2.136520   -0.593890    1.028614
      5          1           0        2.491912    0.472587   -0.818485
      6          1           0        2.491899    0.472586    0.818491
      7          1           0       -2.136553    1.187746    0.000013
      8          1           0       -2.136538   -0.593870   -1.028626
 ---------------------------------------------------------------------

 Alpha  occ. eigenvalues --  -14.72711  -7.04473  -0.96009  -0.57736  -0.53839
 Alpha  occ. eigenvalues --   -0.53839  -0.40141  -0.40140  -0.34055
 Alpha virt. eigenvalues --   -0.02382   0.02692   0.04742   0.04742   0.04878
 Alpha virt. eigenvalues --    0.08550   0.10597   0.10597   0.16789   0.18055
 Alpha virt. eigenvalues --    0.18055   0.18949   0.18949   0.21910   0.27343

  Beta  occ. eigenvalues --  -14.72711  -7.04473  -0.96009  -0.57736  -0.53839
  Beta  occ. eigenvalues --   -0.53839  -0.40141  -0.40140  -0.34055
  Beta virt. eigenvalues --   -0.02382   0.02692   0.04742   0.04742   0.04878
  Beta virt. eigenvalues --    0.08550   0.10597   0.10597   0.16789   0.18055
  Beta virt. eigenvalues --    0.18055   0.18949   0.18949   0.21910   0.27343

 Mulliken charges and spin densities:
               1          2
     1  B    0.023532   0.000000
     2  N   -0.730572  -0.000000
     3  H    0.244339   0.000000
     4  H   -0.008655  -0.000000
     5  H    0.244340   0.000000
     6  H    0.244340  -0.000000
     7  H   -0.008669   0.000000
     8  H   -0.008655  -0.000000
 Sum of Mulliken charges =  -0.00000   0.00000

 Dipole moment (field-independent basis, Debye):
    X=              1.8851    Y=              0.0001    Z=              0.0000  Tot=              1.8851
 Quadrupole moment (field-independent basis, Debye-Ang):
   XX=             -9.3121   YY=            -15.6217   ZZ=            -15.6217
   XY=              0.0001   XZ=             -0.0000   YZ=              0.0000

 Normal termination of Gaussian 16 at Mon Apr 21 17:40:30 2025.
