 Gaussian 16, Revision A.03,
 Gaussian 16:  ES64L-G16RevA.03 25-Dec-2016

 --------------------------------------------
 #p opt UM062X/6-311+G** nosymm int=superfine
 --------------------------------------------

 -------------------
 Title Card Required
 -------------------
 Symbolic Z-matrix:
 Charge =  1 Multiplicity = 2

 SCF Done:  E(UM062X) =  -1615.49486727     A.U. after   27 cycles
 SCF Done:  E(UM062X) =  -1615.55422557     A.U. after   24 cycles
 SCF Done:  E(UM062X) =  -1615.57261497     A.U. after   30 cycles
 SCF Done:  E(UM062X) =  -1615.58206714     A.U. after   22 cycles
 SCF Done:  E(UM062X) =  -1615.58339787     A.U. after   21 cycles
 SCF Done:  E(UM062X) =  -1615.58354956     A.U. after   26 cycles
 SCF Done:  E(UM062X) =  -1615.49149887     A.U. after   27 cycles
 SCF Done:  E(UM062X) =  -1615.57623957     A.U. after   27 cycles
 SCF Done:  E(UM062X) =  -1615.58372860     A.U. after   22 cycles
 SCF Done:  E(UM062X) =  -1615.58393828     A.U. after   20 cycles
 SCF Done:  E(UM062X) =  -1615.58432225     A.U. after   19 cycles
 SCF Done:  E(UM062X) =  -1615.58436253     A.U. after   19 cycles
 SCF Done:  E(UM062X) =  -1615.58440051     A.U. after   20 cycles
 SCF Done:  E(UM062X) =  -1615.58442165     A.U. after   19 cycles
 SCF Done:  E(UM062X) =  -1615.58442891     A.U. after   19 cycles
 SCF Done:  E(UM062X) =  -1615.58443093     A.U. after   20 cycles
 SCF Done:  E(UM062X) =  -1615.58443128     A.U. after   16 cycles
 SCF Done:  E(UM062X) =  -1615.58443143     A.U. after   15 cycles
 SCF Done:  E(UM062X) =  -1615.58443151     A.U. after   15 cycles
 SCF Done:  E(UM062X) =  -1615.58443153     A.U. after   14 cycles
 Optimization completed.
    -- Stationary point found.

                          Input orientation:
 ---------------------------------------------------------------------
 Center     Atomic      Atomic             Coordinates (Angstroms)
 Number     Number       Type             X           Y           Z
 ---------------------------------------------------------------------
      1          6           0       -1.555064   -0.000000    0.000000
      2          6           0        1.555064   -0.000000   -0.000000
      3          6           0        0.000057   -2.077686    0.002223
      4          6           0        0.000030   -3.473732    0.003690
      5          6           0       -1.133220   -4.298154    0.216889
      6          6           0       -1.300303   -1.471575    0.184635
      7          6           0        0.663829   -5.692480   -0.120593
      8          1           0        1.292388   -6.562937   -0.242992
      9          6           0       -1.617824    0.778740    1.210740
     10          6           0       -0.663797   -5.692193    0.132938
     11          1           0       -1.292362   -6.562371    0.257269
     12          6           0        1.133258   -4.298634   -0.207667
     13          6           0        1.300420   -1.471985   -0.181507
     14          6           0        1.758962    2.199696   -1.315477
     15          6           0       -1.679573    0.390922   -1.379917
     16          6           0       -1.858797    2.796726    2.582394
     17          1           0       -1.983196    3.872272    2.632317
     18          6           0       -2.340587   -3.696398    0.449750
     19          1           0       -3.246004   -4.264062    0.630527
     20          6           0       -1.680071    1.731097   -1.891840
     21          6           0        2.396812   -2.279062   -0.414319
     22          1           0        3.361507   -1.798978   -0.544511
     23          6           0        1.679777    0.393851    1.379057
     24          6           0        1.679869    1.735083    1.888189
     25          6           0        2.340654   -3.697402   -0.441774
     26          1           0        3.246074   -4.265483   -0.621223
     27          6           0       -1.759547    2.202393    1.310873
     28          6           0       -1.503237    0.071688    2.443656
     29          1           0       -1.347920   -0.996123    2.424621
     30          6           0        1.764294   -0.648872    2.355836
     31          1           0        1.796145   -1.677696    2.031234
     32          6           0       -1.797942    2.065657    3.750417
     33          1           0       -1.887796    2.559157    4.710507
     34          6           0       -2.396708   -2.278103    0.419236
     35          1           0       -3.361389   -1.797721    0.548408
     36          6           0       -1.718118    1.936779   -3.285927
     37          1           0       -1.699228    2.958089   -3.648219
     38          6           0        1.617950    0.776184   -1.212384
     39          6           0       -1.741957    3.136867    0.216788
     40          1           0       -1.774692    4.176121    0.529237
     41          6           0       -1.799998    0.900271   -4.186991
     42          1           0       -1.847458    1.101464   -5.250344
     43          6           0       -1.675249    2.940109   -1.114915
     44          1           0       -1.652082    3.844903   -1.714896
     45          6           0        1.718569    1.943712    3.281813
     46          1           0        1.699413    2.965771    3.641971
     47          6           0       -1.597348    0.686031    3.672079
     48          1           0       -1.512046    0.091479    4.573552
     49          6           0       -1.763399   -0.653872   -2.354556
     50          1           0       -1.795167   -1.682016   -2.027806
     51          6           0        1.801379    0.909123    4.185004
     52          1           0        1.849366    1.112563    5.247905
     53          6           0        1.858671    2.791359   -2.588194
     54          1           0        1.982492    3.866867   -2.640348
     55          6           0        1.841296   -0.405171    3.705373
     56          1           0        1.928504   -1.237345    4.393236
     57          6           0        1.798912    2.057751   -3.754689
     58          1           0        1.889165    2.549234   -4.715775
     59          6           0        1.740054    3.136492   -0.223377
     60          1           0        1.771573    4.175114   -0.538048
     61          6           0       -1.839799   -0.413031   -3.704636
     62          1           0       -1.926467   -1.246652   -4.390813
     63          6           0        1.673721    2.942474    1.108735
     64          1           0        1.649665    3.848495    1.706825
     65          6           0        1.504273    0.066455   -2.443831
     66          1           0        1.349327   -1.001369   -2.422591
     67          6           0        1.598842    0.678217   -3.673516
     68          1           0        1.514311    0.081698   -4.573763
 ---------------------------------------------------------------------

 Alpha  occ. eigenvalues --  -10.70713 -10.70711 -10.68633 -10.68632 -10.68593
 Alpha  occ. eigenvalues --  -10.68592 -10.68250 -10.68249 -10.68229 -10.68228
 Alpha  occ. eigenvalues --  -10.67323 -10.67318 -10.67058 -10.66689 -10.66688
 Alpha  occ. eigenvalues --  -10.66585 -10.66584 -10.65948 -10.65947 -10.65846
 Alpha  occ. eigenvalues --  -10.65845 -10.65732 -10.65732 -10.65728 -10.65727
 Alpha  occ. eigenvalues --  -10.65611 -10.65611 -10.65607 -10.65606 -10.65508
 Alpha  occ. eigenvalues --  -10.65508 -10.65431 -10.65430 -10.65328 -10.65328
 Alpha  occ. eigenvalues --  -10.65321 -10.65321 -10.64886 -10.64886 -10.63822
 Alpha  occ. eigenvalues --  -10.63722 -10.63661  -1.11937  -1.10315  -1.10053
 Alpha  occ. eigenvalues --   -1.08316  -1.07803  -1.05340  -1.04959  -1.02527
 Alpha  occ. eigenvalues --   -1.02132  -1.01003  -1.00267  -0.97946  -0.97646
 Alpha  occ. eigenvalues --   -0.96746  -0.96297  -0.94908  -0.93541  -0.93477
 Alpha  occ. eigenvalues --   -0.92854  -0.91753  -0.87372  -0.87208  -0.84990
 Alpha  occ. eigenvalues --   -0.84805  -0.83056  -0.81508  -0.80869  -0.79779
 Alpha  occ. eigenvalues --   -0.79683  -0.79536  -0.77380  -0.76334  -0.76175
 Alpha  occ. eigenvalues --   -0.75873  -0.75355  -0.73360  -0.70182  -0.69635
 Alpha  occ. eigenvalues --   -0.68842  -0.68546  -0.67757  -0.67659  -0.66913
 Alpha  occ. eigenvalues --   -0.66886  -0.65734  -0.65360  -0.65224  -0.64710
 Alpha  occ. eigenvalues --   -0.63231  -0.62785  -0.62402  -0.62118  -0.60982
 Alpha  occ. eigenvalues --   -0.60966  -0.60529  -0.60362  -0.60106  -0.60036
 Alpha  occ. eigenvalues --   -0.59550  -0.58819  -0.58812  -0.58114  -0.57695
 Alpha  occ. eigenvalues --   -0.57472  -0.57060  -0.55971  -0.55661  -0.55660
 Alpha  occ. eigenvalues --   -0.54938  -0.53989  -0.53025  -0.52850  -0.52628
 Alpha  occ. eigenvalues --   -0.52404  -0.52363  -0.52152  -0.51029  -0.50948
 Alpha  occ. eigenvalues --   -0.50890  -0.50885  -0.49721  -0.49529  -0.49523
 Alpha  occ. eigenvalues --   -0.48603  -0.48439  -0.47894  -0.45466  -0.44734
 Alpha  occ. eigenvalues --   -0.43978  -0.42782  -0.40533  -0.40421  -0.39278
 Alpha  occ. eigenvalues --   -0.38156  -0.37533  -0.37057  -0.30575
 Alpha virt. eigenvalues --   -0.21080  -0.16040  -0.15517  -0.14342  -0.10696
 Alpha virt. eigenvalues --   -0.09985  -0.08928  -0.08560  -0.08353  -0.07554
 Alpha virt. eigenvalues --   -0.07550  -0.07436  -0.06650  -0.06327  -0.06159

  Beta  occ. eigenvalues --  -10.70559 -10.70558 -10.68679 -10.68678 -10.68634
  Beta  occ. eigenvalues --  -10.68633 -10.68210 -10.68209 -10.68183 -10.68182
  Beta  occ. eigenvalues --  -10.67342 -10.67337 -10.67029 -10.66686 -10.66684
  Beta  occ. eigenvalues --  -10.66578 -10.66577 -10.65908 -10.65908 -10.65811
  Beta  occ. eigenvalues --  -10.65811 -10.65702 -10.65701 -10.65691 -10.65690
  Beta  occ. eigenvalues --  -10.65631 -10.65630 -10.65626 -10.65625 -10.65506
  Beta  occ. eigenvalues --  -10.65506 -10.65445 -10.65445 -10.65347 -10.65346
  Beta  occ. eigenvalues --  -10.65308 -10.65307 -10.64885 -10.64884 -10.63822
  Beta  occ. eigenvalues --  -10.63722 -10.63658  -1.11788  -1.10148  -1.09974
  Beta  occ. eigenvalues --   -1.08209  -1.07711  -1.05175  -1.04819  -1.02414
  Beta  occ. eigenvalues --   -1.02035  -1.00827  -1.00101  -0.97844  -0.97553
  Beta  occ. eigenvalues --   -0.96634  -0.96203  -0.94862  -0.93473  -0.93383
  Beta  occ. eigenvalues --   -0.92787  -0.91670  -0.87075  -0.86853  -0.84924
  Beta  occ. eigenvalues --   -0.84745  -0.82978  -0.81412  -0.80768  -0.79696
  Beta  occ. eigenvalues --   -0.79616  -0.79465  -0.77275  -0.76188  -0.76022
  Beta  occ. eigenvalues --   -0.75713  -0.75317  -0.73242  -0.70066  -0.69492
  Beta  occ. eigenvalues --   -0.68721  -0.68432  -0.67711  -0.67615  -0.66793
  Beta  occ. eigenvalues --   -0.66774  -0.65650  -0.65212  -0.65082  -0.64615
  Beta  occ. eigenvalues --   -0.63048  -0.62735  -0.62322  -0.62047  -0.60837
  Beta  occ. eigenvalues --   -0.60726  -0.60404  -0.60123  -0.60043  -0.59983
  Beta  occ. eigenvalues --   -0.59415  -0.58728  -0.58683  -0.58045  -0.57554
  Beta  occ. eigenvalues --   -0.57185  -0.56779  -0.55702  -0.55618  -0.55610
  Beta  occ. eigenvalues --   -0.54912  -0.53688  -0.52924  -0.52766  -0.52565
  Beta  occ. eigenvalues --   -0.52300  -0.52252  -0.52126  -0.50965  -0.50867
  Beta  occ. eigenvalues --   -0.50800  -0.50441  -0.49479  -0.49377  -0.48877
  Beta  occ. eigenvalues --   -0.48380  -0.48062  -0.47607  -0.44769  -0.44211
  Beta  occ. eigenvalues --   -0.43261  -0.42433  -0.40358  -0.40197  -0.38694
  Beta  occ. eigenvalues --   -0.38044  -0.37233  -0.36989
  Beta virt. eigenvalues --   -0.20927  -0.18146  -0.15880  -0.15491  -0.14400
  Beta virt. eigenvalues --   -0.10362  -0.09576  -0.08550  -0.08519  -0.08073
  Beta virt. eigenvalues --   -0.07606  -0.07568  -0.07230  -0.06636  -0.06261

 Mulliken charges and spin densities:
               1          2
     1  C    0.033866   0.379836
     2  C    0.034540   0.380049
     3  C    0.321567   0.016033
     4  C    0.209939  -0.011976
     5  C    0.136616   0.006315
     6  C   -0.024863  -0.038290
     7  C   -0.309172   0.000683
     8  H    0.176050  -0.000012
     9  C    0.086468  -0.055204
    10  C   -0.309015   0.000683
    11  H    0.176051  -0.000012
    12  C    0.136843   0.006294
    13  C   -0.025310  -0.038315
    14  C    0.529002   0.025767
    15  C    0.388353  -0.087923
    16  C   -0.410934  -0.033335
    17  H    0.165542   0.001150
    18  C   -0.499434   0.002104
    19  H    0.175706   0.000152
    20  C    0.248384   0.108579
    21  C   -0.090531   0.023491
    22  H    0.175977  -0.000349
    23  C    0.388524  -0.087982
    24  C    0.247830   0.108644
    25  C   -0.499181   0.002104
    26  H    0.175702   0.000152
    27  C    0.530034   0.025876
    28  C   -0.007341   0.082437
    29  H    0.209965  -0.004395
    30  C   -0.260808   0.039371
    31  H    0.225064  -0.003188
    32  C   -0.404039   0.059131
    33  H    0.182477  -0.003358
    34  C   -0.090866   0.023442
    35  H    0.175945  -0.000348
    36  C   -0.020517  -0.062246
    37  H    0.160086   0.001515
    38  C    0.087028  -0.055118
    39  C   -0.323904   0.055046
    40  H    0.164585  -0.002852
    41  C   -0.225676   0.071698
    42  H    0.180949  -0.003725
    43  C   -0.353997   0.011328
    44  H    0.160505  -0.000501
    45  C   -0.021051  -0.062279
    46  H    0.160108   0.001517
    47  C   -0.022218  -0.041460
    48  H    0.168109   0.000112
    49  C   -0.260675   0.039319
    50  H    0.225072  -0.003190
    51  C   -0.226263   0.071618
    52  H    0.180960  -0.003721
    53  C   -0.411397  -0.033294
    54  H    0.165539   0.001150
    55  C   -0.556339  -0.035382
    56  H    0.176150   0.001394
    57  C   -0.404345   0.059130
    58  H    0.182470  -0.003357
    59  C   -0.322277   0.055143
    60  H    0.164522  -0.002860
    61  C   -0.557401  -0.035385
    62  H    0.176156   0.001394
    63  C   -0.353052   0.011283
    64  H    0.160423  -0.000500
    65  C   -0.007966   0.082446
    66  H    0.209973  -0.004395
    67  C   -0.022627  -0.041546
    68  H    0.168120   0.000111
 Sum of Mulliken charges =   1.00000   1.00000

 Dipole moment (field-independent basis, Debye):
    X=              0.0000    Y=              2.4946    Z=             -0.0026  Tot=              2.4946
 Quadrupole moment (field-independent basis, Debye-Ang):
   XX=           -222.4505   YY=           -174.8963   ZZ=           -176.2234
   XY=             -0.0125   XZ=             -0.3007   YZ=             -0.0018

 Normal termination of Gaussian 16 at Fri Nov  8 13:16:29 2024.
