 Gaussian 16, Revision A.03,
 Gaussian 16:  ES64L-G16RevA.03 25-Dec-2016

 --------------------------------------------
 #p opt UM062X/6-311+G** nosymm int=superfine
 --------------------------------------------

 -------------------
 Title Card Required
 -------------------
 Symbolic Z-matrix:
 Charge =  0 Multiplicity = 3

 SCF Done:  E(UM062X) =  -50.4702995357     A.U. after   10 cycles
 SCF Done:  E(UM062X) =  -50.4712331991     A.U. after   12 cycles
 SCF Done:  E(UM062X) =  -50.4712408326     A.U. after    9 cycles
 Optimization completed.
    -- Stationary point found.

                          Input orientation:
 ---------------------------------------------------------------------
 Center     Atomic      Atomic             Coordinates (Angstroms)
 Number     Number       Type             X           Y           Z
 ---------------------------------------------------------------------
      1          5           0       -2.103410    0.000000    0.000000
      2          5           0        2.103410    0.000000    0.000000
      3          1           0       -3.309257   -0.000082    0.000000
      4          1           0        3.309257    0.000082   -0.000000
 ---------------------------------------------------------------------

 Alpha  occ. eigenvalues --   -7.14491  -7.14491  -0.56941  -0.56816  -0.33213
 Alpha  occ. eigenvalues --   -0.31403  -0.17572
 Alpha virt. eigenvalues --   -0.10558  -0.06377  -0.05670   0.02720   0.02905
 Alpha virt. eigenvalues --    0.05565   0.06856   0.07080   0.07734   0.08075
 Alpha virt. eigenvalues --    0.11291   0.16152   0.21792   0.33095   0.39358

  Beta  occ. eigenvalues --   -7.13593  -7.13593  -0.53646  -0.53537  -0.23222
  Beta virt. eigenvalues --   -0.12422  -0.04470  -0.03950  -0.03396  -0.02835
  Beta virt. eigenvalues --    0.01926   0.02400   0.07043   0.07347   0.08014
  Beta virt. eigenvalues --    0.08098   0.08821   0.09621   0.16094   0.23157

 Mulliken charges and spin densities:
               1          2
     1  B   -0.058785   0.930022
     2  B   -0.058785   0.930024
     3  H    0.058785   0.069977
     4  H    0.058785   0.069977
 Sum of Mulliken charges =  -0.00000   2.00000

 Dipole moment (field-independent basis, Debye):
    X=             -0.0000    Y=             -0.0000    Z=              0.0000  Tot=              0.0000
 Quadrupole moment (field-independent basis, Debye-Ang):
   XX=             -7.0209   YY=            -13.6835   ZZ=            -17.6656
   XY=              0.0000   XZ=             -0.0000   YZ=             -0.0000

 1\1\GINC-NODE06\FOpt\UM062X\6-311+G(d,p)\B2H2(3)\SZHAO\21-Apr-2025\0\\
 #p opt UM062X/6-311+G** nosymm int=superfine\\Title Card Required\\0,3
 \B,-2.10341047,0.,0.\B,2.10341047,0.,0.\H,-3.3092574633,-0.0000822792,
 0.0000000006\H,3.3092574627,0.0000822793,-0.0000000005\\Version=ES64L-
 G16RevA.03\HF=-50.4712408\S2=2.02408\S2-1=0.\S2A=2.00002\RMSD=4.241e-0
 9\RMSF=4.522e-07\Dipole=-0.0000014,0.,0.\Quadrupole=4.2891789,-0.66427
 17,-3.6249072,0.0000242,0.,-0.0000191\PG=C*V [C*(H1B1B1H1)]\\@

 Normal termination of Gaussian 16 at Mon Apr 21 17:29:57 2025.
