 Gaussian 16, Revision A.03,
 Gaussian 16:  ES64L-G16RevA.03 25-Dec-2016

 --------------------------------------------
 #p opt UM062X/6-311+G** nosymm int=superfine
 --------------------------------------------

 -------------------
 Title Card Required
 -------------------
 Symbolic Z-matrix:
 Charge =  0 Multiplicity = 1

 SCF Done:  E(UM062X) =  -581.135278594     A.U. after    9 cycles
 SCF Done:  E(UM062X) =  -581.155821785     A.U. after    8 cycles
 SCF Done:  E(UM062X) =  -581.169159526     A.U. after    9 cycles
 SCF Done:  E(UM062X) =  -581.169179478     A.U. after    8 cycles
 SCF Done:  E(UM062X) =  -581.169179853     A.U. after    7 cycles
 Optimization completed.
    -- Stationary point found.

                          Input orientation:
 ---------------------------------------------------------------------
 Center     Atomic      Atomic             Coordinates (Angstroms)
 Number     Number       Type             X           Y           Z
 ---------------------------------------------------------------------
      1         14           0       -1.887518    0.000000    0.000000
      2         14           0        1.887518    0.000000    0.000000
      3          1           0       -2.960507   -1.079951    0.001654
      4          1           0        2.960507    1.079952    0.001072
      5          1           0       -2.960514    1.079944    0.001966
      6          1           0        2.960514   -1.079943    0.002546
 ---------------------------------------------------------------------

 Alpha  occ. eigenvalues --  -67.00925 -67.00925  -5.55674  -5.55673  -3.86900
 Alpha  occ. eigenvalues --   -3.86900  -3.86365  -3.86365  -3.86240  -3.86240
 Alpha  occ. eigenvalues --   -0.57116  -0.56744  -0.37461  -0.37323  -0.30832
 Alpha  occ. eigenvalues --   -0.25344
 Alpha virt. eigenvalues --   -0.08679  -0.06960   0.02031   0.02092   0.03261
 Alpha virt. eigenvalues --    0.04535   0.05979   0.06123   0.06222   0.06270
 Alpha virt. eigenvalues --    0.09597   0.09942   0.12005   0.14294   0.27946

  Beta  occ. eigenvalues --  -67.00925 -67.00925  -5.55674  -5.55673  -3.86900
  Beta  occ. eigenvalues --   -3.86900  -3.86365  -3.86365  -3.86240  -3.86240
  Beta  occ. eigenvalues --   -0.57116  -0.56744  -0.37461  -0.37323  -0.30832
  Beta  occ. eigenvalues --   -0.25344
  Beta virt. eigenvalues --   -0.08679  -0.06960   0.02031   0.02092   0.03261
  Beta virt. eigenvalues --    0.04535   0.05979   0.06123   0.06222   0.06270
  Beta virt. eigenvalues --    0.09597   0.09942   0.12005   0.14294   0.27946

 Mulliken charges and spin densities:
               1          2
     1  Si   0.317754  -0.000000
     2  Si   0.317754   0.000000
     3  H   -0.158877   0.000000
     4  H   -0.158877  -0.000000
     5  H   -0.158877   0.000000
     6  H   -0.158877  -0.000000
 Sum of Mulliken charges =  -0.00000  -0.00000

 Dipole moment (field-independent basis, Debye):
    X=             -0.0000    Y=              0.0000    Z=              0.0003  Tot=              0.0003
 Quadrupole moment (field-independent basis, Debye-Ang):
   XX=            -37.7175   YY=            -32.8723   ZZ=            -24.4017
   XY=             -0.0000   XZ=              0.0000   YZ=              0.0023

 Normal termination of Gaussian 16 at Mon Apr 21 20:33:17 2025.
