 Gaussian 16, Revision A.03,
 Gaussian 16:  ES64L-G16RevA.03 25-Dec-2016

 ---------------------------------------
 #p UM062X/6-311+G** force int=superfine
 ---------------------------------------

 -------------------
 Title Card Required
 -------------------
 Symbolic Z-matrix:
 Charge =  0 Multiplicity = 1

                         Standard orientation:
 ---------------------------------------------------------------------
 Center     Atomic      Atomic             Coordinates (Angstroms)
 Number     Number       Type             X           Y           Z
 ---------------------------------------------------------------------
      1          6           0        0.000000    0.470639    0.000000
      2          6           0       -0.000000   -0.470639    0.000000
      3          1           0        0.879997    1.129308    0.000000
      4          1           0       -0.879869    1.129362    0.000000
      5          1           0       -0.879997   -1.129308    0.000000
      6          1           0        0.879869   -1.129362   -0.000000
 ---------------------------------------------------------------------

 SCF Done:  E(UM062X) =  -78.1932971007     A.U. after    9 cycles

 The electronic state is 1-AG.
 Alpha  occ. eigenvalues --  -10.49208 -10.47002  -0.94980  -0.62295  -0.59078
 Alpha  occ. eigenvalues --   -0.53305  -0.43773  -0.33363
 Alpha virt. eigenvalues --    0.03256   0.04141   0.04266   0.06530   0.07350
 Alpha virt. eigenvalues --    0.08929   0.09843   0.16096   0.17393   0.18363
 Alpha virt. eigenvalues --    0.20403   0.25061   0.34923   0.42171   0.42790

  Beta  occ. eigenvalues --  -10.49208 -10.47002  -0.94980  -0.62295  -0.59078
  Beta  occ. eigenvalues --   -0.53305  -0.43773  -0.33363
  Beta virt. eigenvalues --    0.03256   0.04141   0.04266   0.06530   0.07350
  Beta virt. eigenvalues --    0.08929   0.09843   0.16096   0.17393   0.18363
  Beta virt. eigenvalues --    0.20403   0.25061   0.34923   0.42171   0.42790

 Mulliken charges and spin densities:
               1          2
     1  C   -0.251914  -0.000000
     2  C   -0.251914  -0.000000
     3  H    0.125947  -0.000000
     4  H    0.125967   0.000000
     5  H    0.125947  -0.000000
     6  H    0.125967   0.000000
 Sum of Mulliken charges =  -0.00000  -0.00000

 Dipole moment (field-independent basis, Debye):
    X=              0.0000    Y=             -0.0000    Z=             -0.0000  Tot=              0.0000
 Quadrupole moment (field-independent basis, Debye-Ang):
   XX=            -12.4111   YY=            -12.5552   ZZ=            -14.0577
   XY=             -0.0003   XZ=             -0.0000   YZ=              0.0000

 Normal termination of Gaussian 16 at Tue Nov 19 11:41:02 2024.
