 Gaussian 16, Revision A.03,
 Gaussian 16:  ES64L-G16RevA.03 25-Dec-2016

 --------------------------------------------
 #p opt UM062X/6-311+G** nosymm int=superfine
 --------------------------------------------

 -------------------
 Title Card Required
 -------------------
 Symbolic Z-matrix:
 Charge =  0 Multiplicity = 1

 SCF Done:  E(UM062X) =  -797.440356861     A.U. after   13 cycles
 SCF Done:  E(UM062X) =  -797.441385358     A.U. after   12 cycles
 SCF Done:  E(UM062X) =  -797.442335315     A.U. after   13 cycles
 SCF Done:  E(UM062X) =  -797.442355550     A.U. after   11 cycles
 SCF Done:  E(UM062X) =  -797.442355598     A.U. after   10 cycles
 SCF Done:  E(UM062X) =  -797.442355605     A.U. after   10 cycles
 Optimization completed.
    -- Stationary point found.

                          Input orientation:
 ---------------------------------------------------------------------
 Center     Atomic      Atomic             Coordinates (Angstroms)
 Number     Number       Type             X           Y           Z
 ---------------------------------------------------------------------
      1         16           0       -1.668191    0.000000    0.000000
      2         16           0        1.668191    0.000000    0.000000
      3          1           0       -1.591136   -1.332517   -0.174083
      4          1           0        1.591935    0.201957    1.328679
 ---------------------------------------------------------------------

 Alpha  occ. eigenvalues --  -89.94793 -89.94793  -8.30948  -8.30947  -6.23109
 Alpha  occ. eigenvalues --   -6.23109  -6.22839  -6.22839  -6.22280  -6.22279
 Alpha  occ. eigenvalues --   -0.82075  -0.80637  -0.47357  -0.47321  -0.34037
 Alpha  occ. eigenvalues --   -0.33499  -0.33157
 Alpha virt. eigenvalues --   -0.18556   0.01968   0.03134   0.04567   0.05016
 Alpha virt. eigenvalues --    0.06324   0.07135   0.07367   0.07500   0.10797
 Alpha virt. eigenvalues --    0.13149   0.30389   0.31165   0.32795   0.35637

  Beta  occ. eigenvalues --  -89.94793 -89.94793  -8.30948  -8.30947  -6.23109
  Beta  occ. eigenvalues --   -6.23109  -6.22839  -6.22839  -6.22280  -6.22279
  Beta  occ. eigenvalues --   -0.82075  -0.80637  -0.47357  -0.47321  -0.34037
  Beta  occ. eigenvalues --   -0.33499  -0.33157
  Beta virt. eigenvalues --   -0.18556   0.01968   0.03134   0.04567   0.05016
  Beta virt. eigenvalues --    0.06324   0.07135   0.07367   0.07500   0.10797
  Beta virt. eigenvalues --    0.13149   0.30389   0.31165   0.32795   0.35637

 Mulliken charges and spin densities:
               1          2
     1  S   -0.087305   0.000000
     2  S   -0.087360  -0.000000
     3  H    0.087331  -0.000000
     4  H    0.087334   0.000000
 Sum of Mulliken charges =  -0.00000   0.00000

 Dipole moment (field-independent basis, Debye):
    X=              0.0005    Y=             -0.9173    Z=              0.9366  Tot=              1.3110
 Quadrupole moment (field-independent basis, Debye-Ang):
   XX=            -25.1341   YY=            -28.0054   ZZ=            -28.0529
   XY=              2.2297   XZ=              2.1847   YZ=              1.1334

 Normal termination of Gaussian 16 at Mon Apr 21 21:16:59 2025.
