 Gaussian 16, Revision A.03,
 Gaussian 16:  ES64L-G16RevA.03 25-Dec-2016

 --------------------------------------------
 #p opt UM062X/6-311+G** nosymm int=superfine
 --------------------------------------------

 -------------------
 Title Card Required
 -------------------
 Symbolic Z-matrix:
 Charge =  0 Multiplicity = 1

 SCF Done:  E(UM062X) =  -797.394458172     A.U. after   18 cycles
 SCF Done:  E(UM062X) =  -797.394464109     A.U. after   13 cycles
 SCF Done:  E(UM062X) =  -797.394466359     A.U. after   12 cycles
 SCF Done:  E(UM062X) =  -797.394483998     A.U. after   17 cycles
 SCF Done:  E(UM062X) =  -797.394504285     A.U. after   17 cycles
 SCF Done:  E(UM062X) =  -797.394503013     A.U. after   12 cycles
 SCF Done:  E(UM062X) =  -797.394505207     A.U. after   16 cycles
 SCF Done:  E(UM062X) =  -797.394505341     A.U. after   16 cycles
 SCF Done:  E(UM062X) =  -797.394507352     A.U. after   12 cycles
 SCF Done:  E(UM062X) =  -797.394507906     A.U. after   12 cycles
 SCF Done:  E(UM062X) =  -797.394508126     A.U. after   12 cycles
 SCF Done:  E(UM062X) =  -797.394508310     A.U. after   11 cycles
 SCF Done:  E(UM062X) =  -797.394508154     A.U. after   15 cycles
 Optimization completed.
    -- Stationary point found.

                          Input orientation:
 ---------------------------------------------------------------------
 Center     Atomic      Atomic             Coordinates (Angstroms)
 Number     Number       Type             X           Y           Z
 ---------------------------------------------------------------------
      1         16           0       -2.118191    0.000000    0.000000
      2         16           0        2.118191    0.000000    0.000000
      3          1           0       -1.960509    0.301669   -1.302556
      4          1           0        1.968122    0.957163    0.934814
 ---------------------------------------------------------------------

 Alpha  occ. eigenvalues --  -89.94498 -89.94495  -8.30737  -8.30735  -6.22883
 Alpha  occ. eigenvalues --   -6.22881  -6.22633  -6.22630  -6.22065  -6.22063
 Alpha  occ. eigenvalues --   -0.81482  -0.81135  -0.47398  -0.47341  -0.33474
 Alpha  occ. eigenvalues --   -0.33301  -0.30824
 Alpha virt. eigenvalues --   -0.21788   0.01887   0.03029   0.04388   0.04886
 Alpha virt. eigenvalues --    0.06559   0.06749   0.07304   0.07435   0.09054
 Alpha virt. eigenvalues --    0.12984   0.30639   0.31082   0.32555   0.35287

  Beta  occ. eigenvalues --  -89.94498 -89.94495  -8.30737  -8.30735  -6.22883
  Beta  occ. eigenvalues --   -6.22881  -6.22633  -6.22630  -6.22065  -6.22063
  Beta  occ. eigenvalues --   -0.81482  -0.81135  -0.47398  -0.47341  -0.33474
  Beta  occ. eigenvalues --   -0.33301  -0.30824
  Beta virt. eigenvalues --   -0.21788   0.01887   0.03029   0.04388   0.04886
  Beta virt. eigenvalues --    0.06559   0.06749   0.07304   0.07435   0.09054
  Beta virt. eigenvalues --    0.12984   0.30639   0.31082   0.32555   0.35287

 Mulliken charges and spin densities:
               1          2
     1  S   -0.082434   0.000000
     2  S   -0.082888   0.000000
     3  H    0.082680   0.000000
     4  H    0.082642   0.000000
 Sum of Mulliken charges =  -0.00000   0.00000

 Dipole moment (field-independent basis, Debye):
    X=              0.0034    Y=              1.0448    Z=             -0.3061  Tot=              1.0888
 Quadrupole moment (field-independent basis, Debye-Ang):
   XX=            -25.6021   YY=            -29.8667   ZZ=            -26.3412
   XY=              1.1184   XZ=              3.8006   YZ=              1.1295

 Normal termination of Gaussian 16 at Tue Apr 22 01:57:09 2025.
