 Gaussian 16, Revision A.03,
 Gaussian 16:  ES64L-G16RevA.03 25-Dec-2016

 --------------------------------------------
 #p opt UM062X/6-311+G** nosymm int=superfine
 --------------------------------------------

 -------------------
 Title Card Required
 -------------------
 Symbolic Z-matrix:
 Charge = -1 Multiplicity = 2

 SCF Done:  E(UM062X) =  -53.2239831354     A.U. after   11 cycles
 SCF Done:  E(UM062X) =  -53.2252772261     A.U. after   10 cycles
 SCF Done:  E(UM062X) =  -53.2255326364     A.U. after   10 cycles
 SCF Done:  E(UM062X) =  -53.2255330194     A.U. after    8 cycles
 Optimization completed.
    -- Stationary point found.

                          Input orientation:
 ---------------------------------------------------------------------
 Center     Atomic      Atomic             Coordinates (Angstroms)
 Number     Number       Type             X           Y           Z
 ---------------------------------------------------------------------
      1          5           0       -1.440672    0.000000    0.000000
      2          5           0        1.440672    0.000000    0.000000
      3          1           0        1.570283   -1.193752   -0.000009
      4          1           0       -1.569929   -0.596907    1.033845
      5          1           0        1.570065    0.596923   -1.033820
      6          1           0        1.569894    0.596893    1.033857
      7          1           0       -1.570289    1.193751    0.000004
      8          1           0       -1.570024   -0.596910   -1.033832
 ---------------------------------------------------------------------

 Alpha  occ. eigenvalues --   -6.82217  -6.82214  -0.39202  -0.36549  -0.20439
 Alpha  occ. eigenvalues --   -0.20439  -0.18923  -0.18923  -0.00799
 Alpha virt. eigenvalues --    0.15424   0.17229   0.17586   0.17586   0.19044
 Alpha virt. eigenvalues --    0.19044   0.21886   0.22915   0.23452   0.32978
 Alpha virt. eigenvalues --    0.32979   0.36701   0.36702   0.38979   0.40576

  Beta  occ. eigenvalues --   -6.82163  -6.82162  -0.36842  -0.35028  -0.20046
  Beta  occ. eigenvalues --   -0.20045  -0.18736  -0.18736
  Beta virt. eigenvalues --    0.13678   0.14828   0.17008   0.17008   0.17373
  Beta virt. eigenvalues --    0.18577   0.18577   0.23926   0.24199   0.29367
  Beta virt. eigenvalues --    0.32695   0.32695   0.36785   0.36786   0.39410

 Mulliken charges and spin densities:
               1          2
     1  B   -0.285220   0.604878
     2  B   -0.285220   0.604878
     3  H   -0.071622  -0.034984
     4  H   -0.071576  -0.034946
     5  H   -0.071584  -0.034948
     6  H   -0.071574  -0.034946
     7  H   -0.071623  -0.034984
     8  H   -0.071581  -0.034948
 Sum of Mulliken charges =  -1.00000   1.00000

 Dipole moment (field-independent basis, Debye):
    X=              0.0000    Y=             -0.0000    Z=              0.0000  Tot=              0.0000
 Quadrupole moment (field-independent basis, Debye-Ang):
   XX=            -35.2268   YY=            -24.0710   ZZ=            -24.0707
   XY=              0.0002   XZ=              0.0000   YZ=              0.0000

 Normal termination of Gaussian 16 at Mon Apr 21 16:52:15 2025.
