 Gaussian 16, Revision A.03,
 Gaussian 16:  ES64L-G16RevA.03 25-Dec-2016

 ---------------------------------------------------------
 #p opt UM062X/6-311+G** nosymm int=superfine SCF=NoVarAcc
 ---------------------------------------------------------

 -------------------
 Title Card Required
 -------------------
 Symbolic Z-matrix:
 Charge =  1 Multiplicity = 2

 SCF Done:  E(UM062X) =  -77.9002689800     A.U. after   10 cycles
 SCF Done:  E(UM062X) =  -77.9041989044     A.U. after    9 cycles
 SCF Done:  E(UM062X) =  -77.9067639246     A.U. after   10 cycles
 SCF Done:  E(UM062X) =  -77.9067672947     A.U. after    7 cycles
 Optimization completed.
    -- Stationary point found.

                          Input orientation:
 ---------------------------------------------------------------------
 Center     Atomic      Atomic             Coordinates (Angstroms)
 Number     Number       Type             X           Y           Z
 ---------------------------------------------------------------------
      1          6           0       -2.031027    0.000000    0.000000
      2          6           0        2.031027    0.000000    0.000000
      3          1           0       -2.589566   -0.942706    0.000000
      4          1           0       -2.589509    0.942740    0.000000
      5          1           0        2.589566    0.942706    0.000000
      6          1           0        2.589509   -0.942740    0.000000
 ---------------------------------------------------------------------

 Alpha  occ. eigenvalues --  -10.88384 -10.88384  -0.99705  -0.99656  -0.74390
 Alpha  occ. eigenvalues --   -0.74363  -0.57892  -0.56739
 Alpha virt. eigenvalues --   -0.31606  -0.31312  -0.12607  -0.10805  -0.08952
 Alpha virt. eigenvalues --   -0.07033  -0.06337  -0.05703  -0.04156  -0.01431
 Alpha virt. eigenvalues --   -0.00271   0.00407   0.02300   0.05351   0.27421

  Beta  occ. eigenvalues --  -10.87594 -10.87593  -0.97526  -0.97360  -0.73361
  Beta  occ. eigenvalues --   -0.73324  -0.46466
  Beta virt. eigenvalues --   -0.36308  -0.29796  -0.29411  -0.12380  -0.10926
  Beta virt. eigenvalues --   -0.08781  -0.06840  -0.06454  -0.04437  -0.03931
  Beta virt. eigenvalues --   -0.01210   0.00459   0.00775   0.02405   0.06081

 Mulliken charges and spin densities:
               1          2
     1  C    0.023606   0.486274
     2  C    0.023607   0.486274
     3  H    0.238197   0.006863
     4  H    0.238196   0.006863
     5  H    0.238197   0.006863
     6  H    0.238196   0.006863
 Sum of Mulliken charges =   1.00000   1.00000

 Dipole moment (field-independent basis, Debye):
    X=              0.0000    Y=              0.0000    Z=              0.0000  Tot=              0.0000
 Quadrupole moment (field-independent basis, Debye-Ang):
   XX=             20.9558   YY=             -9.4391   ZZ=            -10.7371
   XY=             -0.0001   XZ=              0.0000   YZ=              0.0000

 Normal termination of Gaussian 16 at Tue Dec  3 13:34:00 2024.
