 Gaussian 16, Revision A.03,
 Gaussian 16:  ES64L-G16RevA.03 25-Dec-2016

 --------------------------------------------
 #p opt UM062X/6-311+G** nosymm int=superfine
 --------------------------------------------

 -------------------
 Title Card Required
 -------------------
 Symbolic Z-matrix:
 Charge =  0 Multiplicity = 1

 SCF Done:  E(UM062X) =  -382.252414183     A.U. after   14 cycles
 SCF Done:  E(UM062X) =  -382.262560293     A.U. after   11 cycles
 SCF Done:  E(UM062X) =  -382.268202012     A.U. after   11 cycles
 SCF Done:  E(UM062X) =  -382.268283375     A.U. after   12 cycles
 SCF Done:  E(UM062X) =  -382.268326300     A.U. after   10 cycles
 SCF Done:  E(UM062X) =  -382.268349129     A.U. after   12 cycles
 SCF Done:  E(UM062X) =  -382.268355022     A.U. after    9 cycles
 SCF Done:  E(UM062X) =  -382.268356901     A.U. after    9 cycles
 SCF Done:  E(UM062X) =  -382.268357852     A.U. after    9 cycles
 SCF Done:  E(UM062X) =  -382.268358194     A.U. after    8 cycles
 Optimization completed.
    -- Stationary point found.

                          Input orientation:
 ---------------------------------------------------------------------
 Center     Atomic      Atomic             Coordinates (Angstroms)
 Number     Number       Type             X           Y           Z
 ---------------------------------------------------------------------
      1          6           0       -1.856264    0.000000    0.000000
      2         15           0        1.856264    0.000000    0.000000
      3          1           0        1.790380   -1.417644    0.028872
      4          1           0       -1.917816    1.052265    0.236209
      5          1           0        1.790383    0.079566    1.415680
      6          1           0       -1.917701   -0.318680   -1.030297
      7          1           0       -1.944781   -0.730695    0.790932
 ---------------------------------------------------------------------

 Alpha  occ. eigenvalues --  -78.03237 -10.59413  -6.85616  -4.97144  -4.97066
 Alpha  occ. eigenvalues --   -4.96882  -0.78677  -0.69415  -0.50794  -0.50743
 Alpha  occ. eigenvalues --   -0.43584  -0.34681  -0.24334
 Alpha virt. eigenvalues --   -0.11881   0.02134   0.03920   0.03988   0.04563
 Alpha virt. eigenvalues --    0.06299   0.06857   0.07198   0.07270   0.11538
 Alpha virt. eigenvalues --    0.17270   0.18355   0.18441   0.23233   0.30242

  Beta  occ. eigenvalues --  -78.03237 -10.59413  -6.85616  -4.97144  -4.97066
  Beta  occ. eigenvalues --   -4.96882  -0.78677  -0.69415  -0.50794  -0.50743
  Beta  occ. eigenvalues --   -0.43584  -0.34681  -0.24334
  Beta virt. eigenvalues --   -0.11881   0.02134   0.03920   0.03988   0.04563
  Beta virt. eigenvalues --    0.06299   0.06857   0.07198   0.07270   0.11538
  Beta virt. eigenvalues --    0.17270   0.18355   0.18441   0.23233   0.30242

 Mulliken charges and spin densities:
               1          2
     1  C   -0.515028   0.000002
     2  P   -0.045958  -0.000001
     3  H   -0.000115   0.000000
     4  H    0.187814  -0.000000
     5  H   -0.000113   0.000000
     6  H    0.187809  -0.000000
     7  H    0.185592  -0.000000
 Sum of Mulliken charges =  -0.00000  -0.00000

 Dipole moment (field-independent basis, Debye):
    X=             -1.4200    Y=             -0.5653    Z=              0.6103  Tot=              1.6457
 Quadrupole moment (field-independent basis, Debye-Ang):
   XX=            -22.2337   YY=            -22.3796   ZZ=            -22.4874
   XY=             -1.2214   XZ=              1.3185   YZ=              0.7032

 Normal termination of Gaussian 16 at Mon Apr 21 19:07:10 2025.
