 Gaussian 16, Revision A.03,
 Gaussian 16:  ES64L-G16RevA.03 25-Dec-2016

 ---------------------------------------------------
 #p UM062X/6-311+G** force int=superfine pop=saveNBO
 ---------------------------------------------------

 -------------------
 Title Card Required
 -------------------
 Symbolic Z-matrix:
 Charge =  0 Multiplicity = 1

                         Standard orientation:
 ---------------------------------------------------------------------
 Center     Atomic      Atomic             Coordinates (Angstroms)
 Number     Number       Type             X           Y           Z
 ---------------------------------------------------------------------
      1         15           0        0.000000    1.009490    0.000000
      2         15           0       -0.000000   -1.009490    0.000000
      3          1           0        1.417255    1.112351    0.000000
      4          1           0       -1.417255   -1.112351    0.000000
 ---------------------------------------------------------------------

 SCF Done:  E(UM062X) =  -683.843547144     A.U. after   10 cycles

 The electronic state is 1-AG.
 Alpha  occ. eigenvalues --  -78.03967 -78.03967  -6.86624  -6.86603  -4.98126
 Alpha  occ. eigenvalues --   -4.98116  -4.98083  -4.98035  -4.97899  -4.97864
 Alpha  occ. eigenvalues --   -0.77995  -0.61910  -0.42399  -0.41382  -0.32446
 Alpha  occ. eigenvalues --   -0.31201
 Alpha virt. eigenvalues --   -0.08008   0.01783   0.01880   0.03348   0.04055
 Alpha virt. eigenvalues --    0.04721   0.06630   0.07103   0.07186   0.08398
 Alpha virt. eigenvalues --    0.12573   0.13440   0.25121   0.29265   0.30782

  Beta  occ. eigenvalues --  -78.03967 -78.03967  -6.86624  -6.86603  -4.98126
  Beta  occ. eigenvalues --   -4.98116  -4.98083  -4.98035  -4.97899  -4.97864
  Beta  occ. eigenvalues --   -0.77995  -0.61910  -0.42399  -0.41382  -0.32446
  Beta  occ. eigenvalues --   -0.31201
  Beta virt. eigenvalues --   -0.08008   0.01783   0.01880   0.03348   0.04055
  Beta virt. eigenvalues --    0.04721   0.06630   0.07103   0.07186   0.08398
  Beta virt. eigenvalues --    0.12573   0.13440   0.25121   0.29265   0.30782

 Mulliken charges and spin densities:
               1          2
     1  P    0.020795   0.000000
     2  P    0.020795   0.000000
     3  H   -0.020795  -0.000000
     4  H   -0.020795  -0.000000
 Sum of Mulliken charges =  -0.00000   0.00000

 Dipole moment (field-independent basis, Debye):
    X=             -0.0000    Y=              0.0000    Z=             -0.0000  Tot=              0.0000
 Quadrupole moment (field-independent basis, Debye-Ang):
   XX=            -27.1597   YY=            -29.5061   ZZ=            -28.2015
   XY=              2.5731   XZ=              0.0000   YZ=             -0.0000

 Summary of Natural Population Analysis:

                                       Natural Population
                Natural  -----------------------------------------------
    Atom  No    Charge         Core      Valence    Rydberg      Total
 -----------------------------------------------------------------------
      P    1    0.01558      4.99948     2.46480    0.02013     7.48442
      P    2    0.01558      4.99948     2.46480    0.02013     7.48442
      H    3   -0.01558      0.00000     0.51266    0.00293     0.51558
      H    4   -0.01558      0.00000     0.51266    0.00293     0.51558
 =======================================================================
   * Total *   -0.00000      9.99897     5.95492    0.04612    16.00000

 Optimization completed.
    -- Stationary point found.
 Normal termination of Gaussian 16 at Wed Apr 16 06:14:45 2025.
