 Gaussian 16, Revision A.03,
 Gaussian 16:  ES64L-G16RevA.03 25-Dec-2016

 ---------------------------------------------------
 #p UM062X/6-311+G** force int=superfine pop=saveNBO
 ---------------------------------------------------

 -------------------
 Title Card Required
 -------------------
 Symbolic Z-matrix:
 Charge =  0 Multiplicity = 1

                         Standard orientation:
 ---------------------------------------------------------------------
 Center     Atomic      Atomic             Coordinates (Angstroms)
 Number     Number       Type             X           Y           Z
 ---------------------------------------------------------------------
      1          6           0        0.000000    0.000000   -1.984431
      2         16           0        0.000000    0.000000    0.744161
 ---------------------------------------------------------------------

 SCF Done:  E(UM062X) =  -435.897336974     A.U. after   16 cycles

 The electronic state is 1-SG.
 Alpha  occ. eigenvalues --  -89.94379 -10.81386  -8.30095  -6.22317  -6.21634
 Alpha  occ. eigenvalues --   -6.21634  -0.75318  -0.69357  -0.35059  -0.31004
 Alpha  occ. eigenvalues --   -0.31004
 Alpha virt. eigenvalues --   -0.16954  -0.16954  -0.12923   0.03324   0.05326
 Alpha virt. eigenvalues --    0.06050   0.06050   0.08739   0.08869   0.08869
 Alpha virt. eigenvalues --    0.14994   0.36014   0.36014   0.36396   0.52856

  Beta  occ. eigenvalues --  -89.94379 -10.81386  -8.30095  -6.22317  -6.21634
  Beta  occ. eigenvalues --   -6.21634  -0.75318  -0.69357  -0.35059  -0.31004
  Beta  occ. eigenvalues --   -0.31004
  Beta virt. eigenvalues --   -0.16954  -0.16954  -0.12923   0.03324   0.05326
  Beta virt. eigenvalues --    0.06050   0.06050   0.08739   0.08869   0.08869
  Beta virt. eigenvalues --    0.14994   0.36014   0.36014   0.36396   0.52856

 Mulliken charges and spin densities:
               1          2
     1  C    0.179666  -0.000000
     2  S   -0.179666   0.000000
 Sum of Mulliken charges =   0.00000   0.00000

 Dipole moment (field-independent basis, Debye):
    X=              0.0000    Y=              0.0000    Z=             -2.2701  Tot=              2.2701
 Quadrupole moment (field-independent basis, Debye-Ang):
   XX=            -20.7814   YY=            -20.7814   ZZ=            -15.2861
   XY=              0.0000   XZ=              0.0000   YZ=              0.0000

 Summary of Natural Population Analysis:

                                       Natural Population
                Natural  -----------------------------------------------
    Atom  No    Charge         Core      Valence    Rydberg      Total
 -----------------------------------------------------------------------
      C    1    0.14770      1.00000     1.85135    0.00095     2.85230
      S    2   -0.14770      4.99999     3.14687    0.00084     8.14770
 =======================================================================
   * Total *    0.00000      5.99999     4.99822    0.00179    11.00000

 Normal termination of Gaussian 16 at Mon Apr 21 19:46:39 2025.
