 Gaussian 16, Revision A.03,
 Gaussian 16:  ES64L-G16RevA.03 25-Dec-2016

 ---------------------------------------
 #p UM062X/6-311+G** force int=superfine
 ---------------------------------------

 -------------------
 Title Card Required
 -------------------
 Symbolic Z-matrix:
 Charge =  1 Multiplicity = 2

                         Standard orientation:
 ---------------------------------------------------------------------
 Center     Atomic      Atomic             Coordinates (Angstroms)
 Number     Number       Type             X           Y           Z
 ---------------------------------------------------------------------
      1          6           0        0.000000    0.544307    0.000000
      2          6           0       -0.000000   -0.544307    0.000000
      3          1           0       -0.841500    1.302896    0.000000
      4          1           0        0.854402    1.291691    0.000000
      5          1           0        0.841500   -1.302896    0.000000
      6          1           0       -0.854402   -1.291691    0.000000
 ---------------------------------------------------------------------

 SCF Done:  E(UM062X) =  -78.0417394997     A.U. after   10 cycles

 The electronic state is 2-AG.
 Alpha  occ. eigenvalues --  -10.82543 -10.81909  -1.22350  -0.97452  -0.86337
 Alpha  occ. eigenvalues --   -0.85588  -0.68601  -0.67438
 Alpha virt. eigenvalues --   -0.18592  -0.15989  -0.15114  -0.13796  -0.10271
 Alpha virt. eigenvalues --   -0.08702  -0.07415  -0.06868  -0.03090  -0.02932
 Alpha virt. eigenvalues --   -0.00260   0.02254   0.12280   0.16570   0.20471

  Beta  occ. eigenvalues --  -10.82539 -10.81889  -1.21115  -0.92671  -0.83352
  Beta  occ. eigenvalues --   -0.80061  -0.68232
  Beta virt. eigenvalues --   -0.46665  -0.18254  -0.15031  -0.15026  -0.13587
  Beta virt. eigenvalues --   -0.10116  -0.08600  -0.05319  -0.05276  -0.02673
  Beta virt. eigenvalues --   -0.02447   0.00119   0.02984   0.12624   0.16551

 Mulliken charges and spin densities:
               1          2
     1  C   -0.158811   0.120124
     2  C   -0.158811   0.120124
     3  H    0.329252   0.187260
     4  H    0.329559   0.192616
     5  H    0.329252   0.187260
     6  H    0.329559   0.192616
 Sum of Mulliken charges =   1.00000   1.00000

 Dipole moment (field-independent basis, Debye):
    X=              0.0000    Y=             -0.0000    Z=              0.0000  Tot=              0.0000
 Quadrupole moment (field-independent basis, Debye-Ang):
   XX=             -7.4354   YY=             -2.2717   ZZ=            -12.8389
   XY=              0.0322   XZ=              0.0000   YZ=              0.0000

 Normal termination of Gaussian 16 at Tue Nov 19 11:52:48 2024.
