 Gaussian 16, Revision A.03,
 Gaussian 16:  ES64L-G16RevA.03 25-Dec-2016

 --------------------------------------------
 #p opt UM062X/6-311+G** nosymm int=superfine
 --------------------------------------------

 -------------------
 Title Card Required
 -------------------
 Symbolic Z-matrix:
 Charge =  1 Multiplicity = 2

 SCF Done:  E(UM062X) =  -582.128482643     A.U. after   11 cycles
 SCF Done:  E(UM062X) =  -582.129318601     A.U. after    9 cycles
 SCF Done:  E(UM062X) =  -582.129662473     A.U. after   10 cycles
 SCF Done:  E(UM062X) =  -582.129664199     A.U. after    8 cycles
 Optimization completed.
    -- Stationary point found.

                          Input orientation:
 ---------------------------------------------------------------------
 Center     Atomic      Atomic             Coordinates (Angstroms)
 Number     Number       Type             X           Y           Z
 ---------------------------------------------------------------------
      1         14           0       -2.676292    0.000000    0.000000
      2         14           0        2.676292    0.000000    0.000000
      3          1           0        2.769839   -1.461037   -0.000019
      4          1           0       -2.769104   -0.730381    1.265426
      5          1           0        2.769648    0.730556   -1.265284
      6          1           0        2.768882    0.730464    1.265394
      7          1           0       -2.769867    1.461035   -0.000147
      8          1           0       -2.769399   -0.730643   -1.265252
 ---------------------------------------------------------------------

 Alpha  occ. eigenvalues --  -67.21626 -67.21626  -5.76488  -5.76488  -4.08184
 Alpha  occ. eigenvalues --   -4.08183  -4.07364  -4.07364  -4.07364  -4.07364
 Alpha  occ. eigenvalues --   -0.80232  -0.80054  -0.60707  -0.60706  -0.60683
 Alpha  occ. eigenvalues --   -0.60682  -0.38091
 Alpha virt. eigenvalues --   -0.30524  -0.11380  -0.11340  -0.09708  -0.08787
 Alpha virt. eigenvalues --   -0.08786  -0.07696  -0.07695  -0.07455  -0.06830
 Alpha virt. eigenvalues --   -0.06830  -0.05903  -0.05903  -0.04886   0.00102

  Beta  occ. eigenvalues --  -67.21342 -67.21342  -5.76403  -5.76402  -4.07518
  Beta  occ. eigenvalues --   -4.07518  -4.07266  -4.07266  -4.07266  -4.07265
  Beta  occ. eigenvalues --   -0.78500  -0.78432  -0.60629  -0.60629  -0.60604
  Beta  occ. eigenvalues --   -0.60603
  Beta virt. eigenvalues --   -0.30401  -0.23590  -0.15973  -0.11100  -0.11097
  Beta virt. eigenvalues --   -0.10470  -0.09845  -0.08288  -0.08288  -0.07428
  Beta virt. eigenvalues --   -0.06276  -0.06276  -0.05397  -0.05397  -0.05341

 Mulliken charges and spin densities:
               1          2
     1  Si   0.519426   0.564124
     2  Si   0.519426   0.564124
     3  H   -0.006473  -0.021375
     4  H   -0.006478  -0.021373
     5  H   -0.006472  -0.021376
     6  H   -0.006480  -0.021372
     7  H   -0.006473  -0.021375
     8  H   -0.006476  -0.021375
 Sum of Mulliken charges =   1.00000   1.00000

 Dipole moment (field-independent basis, Debye):
    X=              0.0000    Y=             -0.0000    Z=              0.0000  Tot=              0.0000
 Quadrupole moment (field-independent basis, Debye-Ang):
   XX=             13.2591   YY=            -26.2494   ZZ=            -26.2491
   XY=              0.0007   XZ=              0.0000   YZ=             -0.0000

 Normal termination of Gaussian 16 at Mon Apr 21 20:16:42 2025.
