 Gaussian 16, Revision A.03,
 Gaussian 16:  ES64L-G16RevA.03 25-Dec-2016

 --------------------------------------------
 #p opt UM062X/6-311+G** nosymm int=superfine
 --------------------------------------------

 -------------------
 Title Card Required
 -------------------
 Symbolic Z-matrix:
 Charge =  1 Multiplicity = 2

 SCF Done:  E(UM062X) =  -79.0873219240     A.U. after   19 cycles
 SCF Done:  E(UM062X) =  -79.1766569851     A.U. after   17 cycles
 SCF Done:  E(UM062X) =  -79.2591068587     A.U. after   16 cycles
 SCF Done:  E(UM062X) =  -79.3041214867     A.U. after   10 cycles
 SCF Done:  E(UM062X) =  -79.3066612007     A.U. after   10 cycles
 SCF Done:  E(UM062X) =  -79.3068154173     A.U. after    9 cycles
 SCF Done:  E(UM062X) =  -79.3068476700     A.U. after    9 cycles
 SCF Done:  E(UM062X) =  -79.3068532387     A.U. after    8 cycles
 Optimization completed.
    -- Stationary point found.

                          Input orientation:
 ---------------------------------------------------------------------
 Center     Atomic      Atomic             Coordinates (Angstroms)
 Number     Number       Type             X           Y           Z
 ---------------------------------------------------------------------
      1          6           0       -0.599202    0.000000    0.000000
      2          6           0        0.599202    0.000000    0.000000
      3          1           0        1.168753   -0.801589    0.469055
      4          1           0       -1.089522   -1.000711   -0.273264
      5          1           0        1.089551    1.000743    0.272999
      6          1           0        1.089689    0.252747   -1.005902
      7          1           0       -1.168755    0.801636   -0.468973
      8          1           0       -1.089723   -0.253011    1.005798
 ---------------------------------------------------------------------

 Alpha  occ. eigenvalues --  -10.80965 -10.80703  -1.22797  -0.99680  -0.84653
 Alpha  occ. eigenvalues --   -0.81530  -0.80069  -0.67894  -0.61789
 Alpha virt. eigenvalues --   -0.16193  -0.14271  -0.13490  -0.12165  -0.08745
 Alpha virt. eigenvalues --   -0.07163  -0.06964  -0.06611  -0.04594  -0.02731
 Alpha virt. eigenvalues --   -0.00946  -0.00719   0.06398   0.06428   0.14103

  Beta  occ. eigenvalues --  -10.80907 -10.80632  -1.21330  -0.95877  -0.83816
  Beta  occ. eigenvalues --   -0.79612  -0.74927  -0.66380
  Beta virt. eigenvalues --   -0.41792  -0.16276  -0.14295  -0.13040  -0.12236
  Beta virt. eigenvalues --   -0.08782  -0.06878  -0.06587  -0.04960  -0.04486
  Beta virt. eigenvalues --   -0.02226  -0.00827  -0.00530   0.06501   0.07011

 Mulliken charges and spin densities:
               1          2
     1  C   -0.395548   0.146264
     2  C   -0.395562   0.146255
     3  H    0.251505  -0.009357
     4  H    0.322052   0.181688
     5  H    0.322044   0.181624
     6  H    0.322007   0.181472
     7  H    0.251506  -0.009357
     8  H    0.321998   0.181411
 Sum of Mulliken charges =   1.00000   1.00000

 Dipole moment (field-independent basis, Debye):
    X=             -0.0000    Y=             -0.0003    Z=             -0.0004  Tot=              0.0005
 Quadrupole moment (field-independent basis, Debye-Ang):
   XX=             -6.9982   YY=             -9.9704   ZZ=            -10.7493
   XY=              1.8327   XZ=             -1.0700   YZ=             -0.6911

 Normal termination of Gaussian 16 at Sat Nov 16 15:36:25 2024.
