 Gaussian 16, Revision A.03,
 Gaussian 16:  ES64L-G16RevA.03 25-Dec-2016

 --------------------------------------------
 #p opt UM062X/6-311+G** nosymm int=superfine
 --------------------------------------------

 -------------------
 Title Card Required
 -------------------
 Symbolic Z-matrix:
 Charge =  0 Multiplicity = 1

 SCF Done:  E(UM062X) =  -83.1826525895     A.U. after   10 cycles
 SCF Done:  E(UM062X) =  -83.1837704516     A.U. after    9 cycles
 SCF Done:  E(UM062X) =  -83.1837958433     A.U. after    7 cycles
 SCF Done:  E(UM062X) =  -83.1837971217     A.U. after    7 cycles
 Optimization completed.
    -- Stationary point found.

                          Input orientation:
 ---------------------------------------------------------------------
 Center     Atomic      Atomic             Coordinates (Angstroms)
 Number     Number       Type             X           Y           Z
 ---------------------------------------------------------------------
      1          5           0       -0.927429    0.000000    0.000000
      2          7           0        0.927429    0.000000    0.000000
      3          1           0        1.275333   -0.952953   -0.000003
      4          1           0       -1.170673   -0.588386    1.019120
      5          1           0        1.275241    0.476526   -0.825294
      6          1           0        1.275235    0.476518    0.825301
      7          1           0       -1.170639    1.176786    0.000010
      8          1           0       -1.170676   -0.588370   -1.019129
 ---------------------------------------------------------------------

 Alpha  occ. eigenvalues --  -14.80841  -6.98099  -1.03530  -0.60939  -0.60938
 Alpha  occ. eigenvalues --   -0.56987  -0.40995  -0.34594  -0.34594
 Alpha virt. eigenvalues --   -0.01039   0.04408   0.04408   0.04770   0.08371
 Alpha virt. eigenvalues --    0.10992   0.10992   0.14820   0.15375   0.15376
 Alpha virt. eigenvalues --    0.17377   0.21101   0.21102   0.24876   0.31343

  Beta  occ. eigenvalues --  -14.80841  -6.98099  -1.03530  -0.60939  -0.60938
  Beta  occ. eigenvalues --   -0.56987  -0.40995  -0.34594  -0.34594
  Beta virt. eigenvalues --   -0.01039   0.04408   0.04408   0.04770   0.08371
  Beta virt. eigenvalues --    0.10992   0.10992   0.14820   0.15375   0.15376
  Beta virt. eigenvalues --    0.17377   0.21101   0.21102   0.24876   0.31343

 Mulliken charges and spin densities:
               1          2
     1  B   -0.147888   0.000000
     2  N   -0.612989   0.000000
     3  H    0.299443  -0.000000
     4  H   -0.045818  -0.000000
     5  H    0.299447  -0.000000
     6  H    0.299447  -0.000000
     7  H   -0.045823  -0.000000
     8  H   -0.045818  -0.000000
 Sum of Mulliken charges =  -0.00000   0.00000

 Dipole moment (field-independent basis, Debye):
    X=              4.9009    Y=              0.0001    Z=              0.0000  Tot=              4.9009
 Quadrupole moment (field-independent basis, Debye-Ang):
   XX=            -15.2110   YY=            -16.1011   ZZ=            -16.1012
   XY=             -0.0000   XZ=             -0.0000   YZ=              0.0000

 Normal termination of Gaussian 16 at Mon Apr 21 17:35:33 2025.
