 Gaussian 16, Revision A.03,
 Gaussian 16:  ES64L-G16RevA.03 25-Dec-2016

 --------------------------------------------
 #p opt UM062X/6-311+G** nosymm int=superfine
 --------------------------------------------

 -------------------
 Title Card Required
 -------------------
 Symbolic Z-matrix:
 Charge =  1 Multiplicity = 2

 SCF Done:  E(UM062X) =  -78.0806059696     A.U. after    9 cycles
 SCF Done:  E(UM062X) =  -78.1049265953     A.U. after    9 cycles
 SCF Done:  E(UM062X) =  -78.1146822654     A.U. after    9 cycles
 SCF Done:  E(UM062X) =  -78.1153722829     A.U. after    8 cycles
 SCF Done:  E(UM062X) =  -78.1153789369     A.U. after    6 cycles
 Optimization completed.
    -- Stationary point found.

                          Input orientation:
 ---------------------------------------------------------------------
 Center     Atomic      Atomic             Coordinates (Angstroms)
 Number     Number       Type             X           Y           Z
 ---------------------------------------------------------------------
      1          6           0       -0.904822    0.000000    0.000000
      2          6           0        0.904822    0.000000    0.000000
      3          1           0       -1.395927   -0.967193   -0.000000
      4          1           0       -1.395956    0.967136   -0.000000
      5          1           0        1.395927    0.967193    0.000000
      6          1           0        1.395956   -0.967136    0.000000
 ---------------------------------------------------------------------

 Alpha  occ. eigenvalues --  -10.91692 -10.91669  -1.09525  -0.99406  -0.81589
 Alpha  occ. eigenvalues --   -0.76389  -0.71418  -0.59086
 Alpha virt. eigenvalues --   -0.34705  -0.17960  -0.14360  -0.11268  -0.08888
 Alpha virt. eigenvalues --   -0.08745  -0.07368  -0.07327  -0.04709  -0.04424
 Alpha virt. eigenvalues --   -0.01903  -0.01287   0.02537   0.09654   0.18430

  Beta  occ. eigenvalues --  -10.91463 -10.91448  -1.06215  -0.97274  -0.80903
  Beta  occ. eigenvalues --   -0.76037  -0.70120
  Beta virt. eigenvalues --   -0.37236  -0.26471  -0.15941  -0.15884  -0.11639
  Beta virt. eigenvalues --   -0.08552  -0.08256  -0.07968  -0.07317  -0.04457
  Beta virt. eigenvalues --   -0.04014  -0.01498  -0.00671   0.01884   0.10240

 Mulliken charges and spin densities:
               1          2
     1  C   -0.064084   0.540230
     2  C   -0.064084   0.540230
     3  H    0.282043  -0.020116
     4  H    0.282041  -0.020115
     5  H    0.282043  -0.020116
     6  H    0.282041  -0.020115
 Sum of Mulliken charges =   1.00000   1.00000

 Dipole moment (field-independent basis, Debye):
    X=             -0.0000    Y=              0.0000    Z=             -0.0000  Tot=              0.0000
 Quadrupole moment (field-independent basis, Debye-Ang):
   XX=             -3.4555   YY=             -8.2739   ZZ=            -12.2221
   XY=              0.0001   XZ=              0.0000   YZ=              0.0000

 Normal termination of Gaussian 16 at Tue Nov 19 11:12:58 2024.
