 Gaussian 16, Revision A.03,
 Gaussian 16:  ES64L-G16RevA.03 25-Dec-2016

 ---------------------------------------------------
 #p UM062X/6-311+G** force int=superfine pop=saveNBO
 ---------------------------------------------------

 -------------------
 Title Card Required
 -------------------
 Symbolic Z-matrix:
 Charge =  0 Multiplicity = 1

                         Standard orientation:
 ---------------------------------------------------------------------
 Center     Atomic      Atomic             Coordinates (Angstroms)
 Number     Number       Type             X           Y           Z
 ---------------------------------------------------------------------
      1          8           0        0.000000    0.000000    1.993562
      2          8           0        0.000000    0.000000   -1.993562
 ---------------------------------------------------------------------

 SCF Done:  E(UM062X) =  -149.763094481     A.U. after   10 cycles

 Unable to determine electronic state:  partially filled degenerate orbitals.
 Alpha  occ. eigenvalues --  -19.82063 -19.82061  -1.09938  -1.09733  -0.48280
 Alpha  occ. eigenvalues --   -0.48220  -0.39132  -0.38744
 Alpha virt. eigenvalues --   -0.31603  -0.31143   0.08978   0.12362   0.14600
 Alpha virt. eigenvalues --    0.14685   0.16459   0.18492   0.18705   0.27007
 Alpha virt. eigenvalues --    0.99555   1.00836   1.00879   1.01564   1.02880

  Beta  occ. eigenvalues --  -19.82063 -19.82061  -1.09938  -1.09733  -0.48280
  Beta  occ. eigenvalues --   -0.48220  -0.39132  -0.38744
  Beta virt. eigenvalues --   -0.31603  -0.31143   0.08978   0.12362   0.14600
  Beta virt. eigenvalues --    0.14685   0.16459   0.18492   0.18705   0.27007
  Beta virt. eigenvalues --    0.99555   1.00836   1.00879   1.01564   1.02880

 Mulliken charges and spin densities:
               1          2
     1  O   -0.000000   0.000000
     2  O   -0.000000   0.000000
 Sum of Mulliken charges =  -0.00000   0.00000

 Dipole moment (field-independent basis, Debye):
    X=              0.0000    Y=              0.0000    Z=              0.0000  Tot=              0.0000
 Quadrupole moment (field-independent basis, Debye-Ang):
   XX=            -10.1463   YY=            -12.0446   ZZ=             -9.5097
   XY=             -0.0000   XZ=             -0.0000   YZ=              0.0000

 Summary of Natural Population Analysis:

                                       Natural Population
                Natural  -----------------------------------------------
    Atom  No    Charge         Core      Valence    Rydberg      Total
 -----------------------------------------------------------------------
      O    1    0.00000      1.00000     2.99889    0.00111     4.00000
      O    2    0.00000      1.00000     2.99889    0.00111     4.00000
 =======================================================================
   * Total *    0.00000      2.00000     5.99777    0.00223     8.00000

 Normal termination of Gaussian 16 at Mon Apr 21 19:51:25 2025.
