 Gaussian 16, Revision A.03,
 Gaussian 16:  ES64L-G16RevA.03 25-Dec-2016

 --------------------------------------------
 #p opt UM062X/6-311+G** nosymm int=superfine
 --------------------------------------------

 -------------------
 Title Card Required
 -------------------
 Symbolic Z-matrix:
 Charge =  0 Multiplicity = 1

 SCF Done:  E(UM062X) =  -382.255273396     A.U. after   13 cycles
 SCF Done:  E(UM062X) =  -382.265338070     A.U. after   11 cycles
 SCF Done:  E(UM062X) =  -382.270854073     A.U. after   11 cycles
 SCF Done:  E(UM062X) =  -382.270930256     A.U. after   10 cycles
 SCF Done:  E(UM062X) =  -382.270970561     A.U. after   11 cycles
 SCF Done:  E(UM062X) =  -382.270990755     A.U. after    9 cycles
 SCF Done:  E(UM062X) =  -382.270996018     A.U. after    9 cycles
 SCF Done:  E(UM062X) =  -382.270997842     A.U. after   10 cycles
 SCF Done:  E(UM062X) =  -382.270998673     A.U. after    7 cycles
 SCF Done:  E(UM062X) =  -382.270998915     A.U. after   11 cycles
 Optimization completed.
    -- Stationary point found.

                          Input orientation:
 ---------------------------------------------------------------------
 Center     Atomic      Atomic             Coordinates (Angstroms)
 Number     Number       Type             X           Y           Z
 ---------------------------------------------------------------------
      1          6           0       -1.831264    0.000000    0.000000
      2         15           0        1.831264    0.000000    0.000000
      3          1           0        1.766832   -1.417681    0.029346
      4          1           0       -1.897548    1.052006    0.236315
      5          1           0        1.766855    0.080114    1.415697
      6          1           0       -1.897432   -0.318271   -1.030183
      7          1           0       -1.923196   -0.730722    0.790584
 ---------------------------------------------------------------------

 Alpha  occ. eigenvalues --  -78.03254 -10.59352  -6.85629  -4.97157  -4.97079
 Alpha  occ. eigenvalues --   -4.96895  -0.78615  -0.69420  -0.50720  -0.50666
 Alpha  occ. eigenvalues --   -0.43590  -0.34688  -0.24482
 Alpha virt. eigenvalues --   -0.11677   0.02127   0.03938   0.03989   0.04568
 Alpha virt. eigenvalues --    0.06310   0.06878   0.07181   0.07275   0.11586
 Alpha virt. eigenvalues --    0.17313   0.18391   0.18483   0.23312   0.30216

  Beta  occ. eigenvalues --  -78.03254 -10.59352  -6.85629  -4.97157  -4.97079
  Beta  occ. eigenvalues --   -4.96895  -0.78615  -0.69420  -0.50720  -0.50666
  Beta  occ. eigenvalues --   -0.43590  -0.34688  -0.24482
  Beta virt. eigenvalues --   -0.11677   0.02127   0.03938   0.03989   0.04568
  Beta virt. eigenvalues --    0.06310   0.06878   0.07181   0.07275   0.11586
  Beta virt. eigenvalues --    0.17313   0.18391   0.18483   0.23312   0.30216

 Mulliken charges and spin densities:
               1          2
     1  C   -0.517479  -0.000000
     2  P   -0.045126   0.000000
     3  H    0.000582  -0.000000
     4  H    0.187878   0.000000
     5  H    0.000584  -0.000000
     6  H    0.187876   0.000000
     7  H    0.185685   0.000000
 Sum of Mulliken charges =  -0.00000   0.00000

 Dipole moment (field-independent basis, Debye):
    X=             -1.3849    Y=             -0.5637    Z=              0.6090  Tot=              1.6144
 Quadrupole moment (field-independent basis, Debye-Ang):
   XX=            -22.2361   YY=            -22.3701   ZZ=            -22.4789
   XY=             -1.2122   XZ=              1.3096   YZ=              0.7030

 Normal termination of Gaussian 16 at Mon Apr 21 19:07:08 2025.
