 Gaussian 16, Revision A.03,
 Gaussian 16:  ES64L-G16RevA.03 25-Dec-2016

 --------------------------------------------
 #p opt UM062X/6-311+G** nosymm int=superfine
 --------------------------------------------

 -------------------
 Title Card Required
 -------------------
 Symbolic Z-matrix:
 Charge = -1 Multiplicity = 2

 SCF Done:  E(UM062X) =  -52.0198216761     A.U. after   11 cycles
 SCF Done:  E(UM062X) =  -52.0202673467     A.U. after    9 cycles
 SCF Done:  E(UM062X) =  -52.0203933517     A.U. after   10 cycles
 SCF Done:  E(UM062X) =  -52.0203882011     A.U. after   10 cycles
 SCF Done:  E(UM062X) =  -52.0203899295     A.U. after   10 cycles
 SCF Done:  E(UM062X) =  -52.0203936871     A.U. after    9 cycles
 SCF Done:  E(UM062X) =  -52.0203940193     A.U. after    9 cycles
 Optimization completed.
    -- Stationary point found.

                          Input orientation:
 ---------------------------------------------------------------------
 Center     Atomic      Atomic             Coordinates (Angstroms)
 Number     Number       Type             X           Y           Z
 ---------------------------------------------------------------------
      1          5           0       -0.972274    0.000000    0.000000
      2          5           0        0.972274    0.000000    0.000000
      3          1           0       -1.605815   -1.029890   -0.000625
      4          1           0        1.605815    1.029890   -0.001111
      5          1           0       -1.605815    1.029890    0.000635
      6          1           0        1.605815   -1.029890    0.001123
 ---------------------------------------------------------------------

 Alpha  occ. eigenvalues --   -6.81753  -6.81730  -0.37153  -0.31550  -0.20141
 Alpha  occ. eigenvalues --   -0.16423  -0.09799  -0.00125
 Alpha virt. eigenvalues --    0.15738   0.17015   0.18178   0.19221   0.19428
 Alpha virt. eigenvalues --    0.22544   0.22630   0.26133   0.26815   0.34060
 Alpha virt. eigenvalues --    0.35895   0.37071   0.39983   0.44269   0.52318

  Beta  occ. eigenvalues --   -6.81729  -6.81711  -0.35122  -0.30399  -0.19771
  Beta  occ. eigenvalues --   -0.16358  -0.08978
  Beta virt. eigenvalues --    0.11719   0.14671   0.15344   0.17214   0.17381
  Beta virt. eigenvalues --    0.18669   0.18942   0.22444   0.23741   0.29362
  Beta virt. eigenvalues --    0.33234   0.35876   0.36891   0.40024   0.44324

 Mulliken charges and spin densities:
               1          2
     1  B   -0.361402   0.545089
     2  B   -0.361402   0.545089
     3  H   -0.069299  -0.022544
     4  H   -0.069299  -0.022544
     5  H   -0.069299  -0.022544
     6  H   -0.069299  -0.022544
 Sum of Mulliken charges =  -1.00000   1.00000

 Dipole moment (field-independent basis, Debye):
    X=              0.0000    Y=             -0.0000    Z=             -0.0000  Tot=              0.0000
 Quadrupole moment (field-independent basis, Debye-Ang):
   XX=            -29.2368   YY=            -23.2087   ZZ=            -22.6796
   XY=             -0.0000   XZ=             -0.0000   YZ=              0.0001

 Normal termination of Gaussian 16 at Mon Apr 21 17:16:35 2025.
