 Gaussian 16, Revision A.03,
 Gaussian 16:  ES64L-G16RevA.03 25-Dec-2016

 ---------------------------------------
 #p UM062X/6-311+G** force int=superfine
 ---------------------------------------

 -------------------
 Title Card Required
 -------------------
 Symbolic Z-matrix:
 Charge =  0 Multiplicity = 1

                         Standard orientation:
 ---------------------------------------------------------------------
 Center     Atomic      Atomic             Coordinates (Angstroms)
 Number     Number       Type             X           Y           Z
 ---------------------------------------------------------------------
      1          6           0        0.687227    0.000004   -0.000003
      2          6           0       -0.687228   -0.000004    0.000002
      3          1           0       -1.117462   -0.933089    0.380189
      4          1           0        1.117457   -0.137275    0.998177
      5          1           0       -1.117458    0.137277   -0.998176
      6          1           0       -1.117493    0.795806    0.617959
      7          1           0        1.117462    0.933090   -0.380186
      8          1           0        1.117496   -0.795807   -0.617956
 ---------------------------------------------------------------------

 SCF Done:  E(UM062X) =  -79.7819653017     A.U. after    8 cycles

 The electronic state is 1-A.
 Alpha  occ. eigenvalues --  -10.51178 -10.51098  -0.88183  -0.69139  -0.51594
 Alpha  occ. eigenvalues --   -0.51593  -0.46191  -0.38462  -0.38462
 Alpha virt. eigenvalues --    0.02146   0.04183   0.05285   0.05285   0.08788
 Alpha virt. eigenvalues --    0.08859   0.08859   0.14104   0.19111   0.19111
 Alpha virt. eigenvalues --    0.20441   0.20442   0.24096   0.27886   0.33885

  Beta  occ. eigenvalues --  -10.51178 -10.51098  -0.88183  -0.69139  -0.51594
  Beta  occ. eigenvalues --   -0.51593  -0.46191  -0.38462  -0.38462
  Beta virt. eigenvalues --    0.02146   0.04183   0.05285   0.05285   0.08788
  Beta virt. eigenvalues --    0.08859   0.08859   0.14104   0.19111   0.19111
  Beta virt. eigenvalues --    0.20441   0.20442   0.24096   0.27886   0.33885

 Mulliken charges and spin densities:
               1          2
     1  C   -0.454466  -0.000000
     2  C   -0.454466  -0.000000
     3  H    0.151489   0.000000
     4  H    0.151488   0.000000
     5  H    0.151488   0.000000
     6  H    0.151489   0.000000
     7  H    0.151489   0.000000
     8  H    0.151489   0.000000
 Sum of Mulliken charges =  -0.00000   0.00000

 Dipole moment (field-independent basis, Debye):
    X=             -0.0000    Y=              0.0000    Z=              0.0000  Tot=              0.0000
 Quadrupole moment (field-independent basis, Debye-Ang):
   XX=            -15.6321   YY=            -14.9659   ZZ=            -14.9660
   XY=             -0.0000   XZ=             -0.0000   YZ=             -0.0000

 Normal termination of Gaussian 16 at Tue Nov 19 12:41:22 2024.
