 Gaussian 16, Revision A.03,
 Gaussian 16:  ES64L-G16RevA.03 25-Dec-2016

 --------------------------------------------
 #p opt UM062X/6-311+G** nosymm int=superfine
 --------------------------------------------

 -------------------
 Title Card Required
 -------------------
 Symbolic Z-matrix:
 Charge = -1 Multiplicity = 2

 SCF Done:  E(UM062X) =  -51.8835918787     A.U. after   11 cycles
 SCF Done:  E(UM062X) =  -51.8880784847     A.U. after   10 cycles
 SCF Done:  E(UM062X) =  -51.8902049184     A.U. after   11 cycles
 SCF Done:  E(UM062X) =  -51.8902265273     A.U. after   11 cycles
 SCF Done:  E(UM062X) =  -51.8902224856     A.U. after   11 cycles
 SCF Done:  E(UM062X) =  -51.8902210649     A.U. after   12 cycles
 SCF Done:  E(UM062X) =  -51.8902261380     A.U. after   16 cycles
 SCF Done:  E(UM062X) =  -51.8902265830     A.U. after   10 cycles
 Optimization completed.
    -- Stationary point found.

                          Input orientation:
 ---------------------------------------------------------------------
 Center     Atomic      Atomic             Coordinates (Angstroms)
 Number     Number       Type             X           Y           Z
 ---------------------------------------------------------------------
      1          5           0       -1.497274    0.000000    0.000000
      2          5           0        1.497274    0.000000    0.000000
      3          1           0       -2.025543   -1.068625    0.000175
      4          1           0        2.025543    1.068625   -0.000340
      5          1           0       -2.025544    1.068625   -0.000320
      6          1           0        2.025544   -1.068625    0.000197
 ---------------------------------------------------------------------

 Alpha  occ. eigenvalues --   -6.88270  -6.88267  -0.37829  -0.36528  -0.23453
 Alpha  occ. eigenvalues --   -0.22850  -0.03958   0.01440
 Alpha virt. eigenvalues --    0.12508   0.14819   0.16469   0.18733   0.19117
 Alpha virt. eigenvalues --    0.20357   0.22314   0.22492   0.23773   0.25681
 Alpha virt. eigenvalues --    0.32396   0.34204   0.34357   0.41384   0.49291

  Beta  occ. eigenvalues --   -6.88234  -6.88232  -0.36250  -0.35221  -0.23358
  Beta  occ. eigenvalues --   -0.22812  -0.02690
  Beta virt. eigenvalues --    0.10740   0.13289   0.13741   0.13981   0.16083
  Beta virt. eigenvalues --    0.17293   0.18524   0.19694   0.21624   0.22641
  Beta virt. eigenvalues --    0.24137   0.31503   0.33202   0.34292   0.41060

 Mulliken charges and spin densities:
               1          2
     1  B   -0.422906   0.546112
     2  B   -0.422906   0.546117
     3  H   -0.038547  -0.023057
     4  H   -0.038547  -0.023057
     5  H   -0.038547  -0.023057
     6  H   -0.038547  -0.023057
 Sum of Mulliken charges =  -1.00000   1.00000

 Dipole moment (field-independent basis, Debye):
    X=             -0.0000    Y=             -0.0000    Z=             -0.0001  Tot=              0.0001
 Quadrupole moment (field-independent basis, Debye-Ang):
   XX=            -32.7345   YY=            -23.5651   ZZ=            -26.0483
   XY=             -0.0000   XZ=             -0.0000   YZ=             -0.0006

 Normal termination of Gaussian 16 at Mon Apr 21 17:24:13 2025.
