 Gaussian 16, Revision A.03,
 Gaussian 16:  ES64L-G16RevA.03 25-Dec-2016

 --------------------------------------------
 #p opt UM062X/6-311+G** nosymm int=superfine
 --------------------------------------------

 -------------------
 Title Card Required
 -------------------
 Symbolic Z-matrix:
 Charge =  1 Multiplicity = 2

 SCF Done:  E(UM062X) =  -79.3339429157     A.U. after   10 cycles
 SCF Done:  E(UM062X) =  -79.3341275884     A.U. after    9 cycles
 Optimization completed.
    -- Stationary point found.

                          Input orientation:
 ---------------------------------------------------------------------
 Center     Atomic      Atomic             Coordinates (Angstroms)
 Number     Number       Type             X           Y           Z
 ---------------------------------------------------------------------
      1          6           0       -1.597873    0.000000    0.000000
      2          6           0        1.597873    0.000000    0.000000
      3          1           0        1.643199   -0.937515    0.542611
      4          1           0       -1.641812   -0.938626   -0.540803
      5          1           0        1.642614    0.938715    0.540582
      6          1           0        1.641848   -0.001161   -1.083270
      7          1           0       -1.643233    0.937612   -0.542443
      8          1           0       -1.642592    0.000938    1.083240
 ---------------------------------------------------------------------

 Alpha  occ. eigenvalues --  -10.84832 -10.84829  -1.03665  -1.02504  -0.74423
 Alpha  occ. eigenvalues --   -0.74423  -0.73885  -0.73885  -0.51594
 Alpha virt. eigenvalues --   -0.35995  -0.13803  -0.10188  -0.10181  -0.10180
 Alpha virt. eigenvalues --   -0.06240  -0.06240  -0.05056  -0.03276  -0.01760
 Alpha virt. eigenvalues --   -0.01757   0.01297   0.01299   0.04589   0.07765

  Beta  occ. eigenvalues --  -10.84631 -10.84631  -1.00860  -1.00084  -0.73899
  Beta  occ. eigenvalues --   -0.73898  -0.73376  -0.73376
  Beta virt. eigenvalues --   -0.32613  -0.25892  -0.15463  -0.11138  -0.11137
  Beta virt. eigenvalues --   -0.10017  -0.06391  -0.06391  -0.05308  -0.02384
  Beta virt. eigenvalues --   -0.02067  -0.02065   0.01599   0.01601   0.05504

 Mulliken charges and spin densities:
               1          2
     1  C   -0.270311   0.565195
     2  C   -0.270314   0.565196
     3  H    0.256798  -0.021726
     4  H    0.256749  -0.021730
     5  H    0.256776  -0.021729
     6  H    0.256739  -0.021740
     7  H    0.256799  -0.021726
     8  H    0.256765  -0.021740
 Sum of Mulliken charges =   1.00000   1.00000

 Dipole moment (field-independent basis, Debye):
    X=             -0.0000    Y=             -0.0000    Z=             -0.0001  Tot=              0.0001
 Quadrupole moment (field-independent basis, Debye-Ang):
   XX=              1.1677   YY=            -11.0508   ZZ=            -11.0510
   XY=             -0.0015   XZ=              0.0009   YZ=              0.0000

 Normal termination of Gaussian 16 at Wed Nov 13 12:37:13 2024.
