 Gaussian 16, Revision A.03,
 Gaussian 16:  ES64L-G16RevA.03 25-Dec-2016

 --------------------------------------------
 #p opt UM062X/6-311+G** nosymm int=superfine
 --------------------------------------------

 -------------------
 Title Card Required
 -------------------
 Symbolic Z-matrix:
 Charge =  0 Multiplicity = 1

 SCF Done:  E(UM062X) =  -76.9910568071     A.U. after   10 cycles
 SCF Done:  E(UM062X) =  -77.0357191164     A.U. after    9 cycles
 SCF Done:  E(UM062X) =  -77.1026954834     A.U. after   10 cycles
 SCF Done:  E(UM062X) =  -77.1083123806     A.U. after    9 cycles
 SCF Done:  E(UM062X) =  -77.1083357145     A.U. after    7 cycles
 Optimization completed.
    -- Stationary point found.

                          Input orientation:
 ---------------------------------------------------------------------
 Center     Atomic      Atomic             Coordinates (Angstroms)
 Number     Number       Type             X           Y           Z
 ---------------------------------------------------------------------
      1          6           0       -0.831937    0.000000    0.000000
      2          6           0        0.831937    0.000000    0.000000
      3          1           0       -1.907364   -0.000000    0.000000
      4          1           0        1.907324   -0.000000    0.000000
 ---------------------------------------------------------------------

 Alpha  occ. eigenvalues --  -10.65384 -10.65351  -0.78008  -0.69457  -0.53450
 Alpha  occ. eigenvalues --   -0.30473  -0.30473
 Alpha virt. eigenvalues --   -0.04057  -0.04057   0.00343   0.02319   0.06437
 Alpha virt. eigenvalues --    0.08382   0.08382   0.09522   0.11155   0.11155
 Alpha virt. eigenvalues --    0.17693   0.22677   0.28046   0.46696   0.58602

  Beta  occ. eigenvalues --  -10.65384 -10.65351  -0.78008  -0.69457  -0.53450
  Beta  occ. eigenvalues --   -0.30473  -0.30473
  Beta virt. eigenvalues --   -0.04057  -0.04057   0.00343   0.02319   0.06437
  Beta virt. eigenvalues --    0.08382   0.08382   0.09522   0.11155   0.11155
  Beta virt. eigenvalues --    0.17693   0.22677   0.28046   0.46696   0.58602

 Mulliken charges and spin densities:
               1          2
     1  C   -0.243003   0.000000
     2  C   -0.243006  -0.000000
     3  H    0.243010   0.000000
     4  H    0.242999   0.000000
 Sum of Mulliken charges =  -0.00000  -0.00000

 Dipole moment (field-independent basis, Debye):
    X=             -0.0001    Y=             -0.0000    Z=              0.0000  Tot=              0.0001
 Quadrupole moment (field-independent basis, Debye-Ang):
   XX=             -5.1120   YY=            -15.6729   ZZ=            -15.6729
   XY=              0.0000   XZ=              0.0000   YZ=             -0.0000

 Normal termination of Gaussian 16 at Tue Dec  3 20:13:43 2024.
