 Gaussian 16, Revision A.03,
 Gaussian 16:  ES64L-G16RevA.03 25-Dec-2016

 ---------------------------------------
 #p UM062X/6-311+G** force int=superfine
 ---------------------------------------

 -------------------
 Title Card Required
 -------------------
 Symbolic Z-matrix:
 Charge =  0 Multiplicity = 1

                         Standard orientation:
 ---------------------------------------------------------------------
 Center     Atomic      Atomic             Coordinates (Angstroms)
 Number     Number       Type             X           Y           Z
 ---------------------------------------------------------------------
      1          6           0       -0.000000    0.662872    0.000000
      2          6           0       -0.000000   -0.662872    0.000000
      3          1           0       -0.923157    1.231244    0.000000
      4          1           0        0.923831    1.230401    0.000000
      5          1           0        0.923157   -1.231244    0.000000
      6          1           0       -0.923831   -1.230401    0.000000
 ---------------------------------------------------------------------

 SCF Done:  E(UM062X) =  -78.5635570308     A.U. after    8 cycles

 The electronic state is 1-AG.
 Alpha  occ. eigenvalues --  -10.53852 -10.53736  -0.86177  -0.66287  -0.54360
 Alpha  occ. eigenvalues --   -0.48686  -0.41789  -0.33587
 Alpha virt. eigenvalues --    0.02770   0.03399   0.04082   0.05111   0.07709
 Alpha virt. eigenvalues --    0.08203   0.09727   0.13498   0.16047   0.17369
 Alpha virt. eigenvalues --    0.20006   0.23165   0.31403   0.36126   0.44020

  Beta  occ. eigenvalues --  -10.53852 -10.53736  -0.86177  -0.66287  -0.54360
  Beta  occ. eigenvalues --   -0.48686  -0.41789  -0.33587
  Beta virt. eigenvalues --    0.02770   0.03399   0.04082   0.05111   0.07709
  Beta virt. eigenvalues --    0.08203   0.09727   0.13498   0.16047   0.17369
  Beta virt. eigenvalues --    0.20006   0.23165   0.31403   0.36126   0.44020

 Mulliken charges and spin densities:
               1          2
     1  C   -0.295955  -0.000000
     2  C   -0.295955  -0.000000
     3  H    0.148020   0.000000
     4  H    0.147935   0.000000
     5  H    0.148020   0.000000
     6  H    0.147935   0.000000
 Sum of Mulliken charges =  -0.00000   0.00000

 Dipole moment (field-independent basis, Debye):
    X=              0.0000    Y=             -0.0000    Z=              0.0000  Tot=              0.0000
 Quadrupole moment (field-independent basis, Debye-Ang):
   XX=            -12.3101   YY=            -12.2626   ZZ=            -15.8934
   XY=             -0.0021   XZ=              0.0000   YZ=              0.0000

 Optimization completed.
    -- Stationary point found.
 Normal termination of Gaussian 16 at Tue Nov 19 11:44:11 2024.
