 Gaussian 16, Revision A.03,
 Gaussian 16:  ES64L-G16RevA.03 25-Dec-2016

 --------------------------------------------
 #p opt UM062X/6-311+G** nosymm int=superfine
 --------------------------------------------

 -------------------
 Title Card Required
 -------------------
 Symbolic Z-matrix:
 Charge =  0 Multiplicity = 1

 SCF Done:  E(UM062X) =  -94.2522000245     A.U. after   12 cycles
 SCF Done:  E(UM062X) =  -94.2556805167     A.U. after   11 cycles
 SCF Done:  E(UM062X) =  -94.2572155078     A.U. after   17 cycles
 SCF Done:  E(UM062X) =  -94.2575038411     A.U. after   10 cycles
 SCF Done:  E(UM062X) =  -94.2585029851     A.U. after   17 cycles
 SCF Done:  E(UM062X) =  -94.2597747516     A.U. after   26 cycles
 SCF Done:  E(UM062X) =  -94.2601905164     A.U. after   18 cycles
 SCF Done:  E(UM062X) =  -94.2600278233     A.U. after   37 cycles
 SCF Done:  E(UM062X) =  -94.2605124682     A.U. after   37 cycles
 SCF Done:  E(UM062X) =  -94.2604977049     A.U. after  112 cycles
 SCF Done:  E(UM062X) =  -94.2606095760     A.U. after   17 cycles
 SCF Done:  E(UM062X) =  -94.2607426308     A.U. after   41 cycles
 SCF Done:  E(UM062X) =  -94.2608833749     A.U. after   27 cycles
 SCF Done:  E(UM062X) =  -94.2609197662     A.U. after   65 cycles
 SCF Done:  E(UM062X) =  -94.2609694971     A.U. after   45 cycles
 SCF Done:  E(UM062X) =  -94.2609818497     A.U. after   10 cycles
 SCF Done:  E(UM062X) =  -94.2609957771     A.U. after   11 cycles
 SCF Done:  E(UM062X) =  -94.2609968342     A.U. after   10 cycles
 SCF Done:  E(UM062X) =  -94.2609968359     A.U. after    9 cycles
 SCF Done:  E(UM062X) =  -94.2609968340     A.U. after    6 cycles
 Optimization completed.
    -- Stationary point found.

                          Input orientation:
 ---------------------------------------------------------------------
 Center     Atomic      Atomic             Coordinates (Angstroms)
 Number     Number       Type             X           Y           Z
 ---------------------------------------------------------------------
      1          6           0       -1.781637    0.000000   -0.000000
      2          7           0        1.781637    0.000000   -0.000000
      3          1           0       -2.469571   -0.866212   -0.006815
      4          1           0        0.739469   -0.000309   -0.000012
      5          1           0       -2.470493    0.865474    0.006964
 ---------------------------------------------------------------------

 Alpha  occ. eigenvalues --  -14.80791 -10.63022  -0.87206  -0.77704  -0.49853
 Alpha  occ. eigenvalues --   -0.44415  -0.33833  -0.31808
 Alpha virt. eigenvalues --   -0.10807  -0.10294   0.01088   0.05269   0.06766
 Alpha virt. eigenvalues --    0.07370   0.13611   0.14086   0.15925   0.17625
 Alpha virt. eigenvalues --    0.18046   0.18529   0.23676   0.42727   0.46556

  Beta  occ. eigenvalues --  -14.80791 -10.63022  -0.87206  -0.77704  -0.49853
  Beta  occ. eigenvalues --   -0.44415  -0.33833  -0.31808
  Beta virt. eigenvalues --   -0.10807  -0.10294   0.01088   0.05269   0.06766
  Beta virt. eigenvalues --    0.07370   0.13611   0.14086   0.15925   0.17625
  Beta virt. eigenvalues --    0.18046   0.18529   0.23676   0.42727   0.46556

 Mulliken charges and spin densities:
               1          2
     1  C   -0.316896   0.000000
     2  N   -0.258009   0.000000
     3  H    0.148685  -0.000000
     4  H    0.277504  -0.000000
     5  H    0.148716   0.000000
 Sum of Mulliken charges =  -0.00000   0.00000

 Dipole moment (field-independent basis, Debye):
    X=             -4.2383    Y=             -0.0016    Z=              0.0002  Tot=              4.2383
 Quadrupole moment (field-independent basis, Debye-Ang):
   XX=            -13.7970   YY=            -12.2109   ZZ=            -14.9226
   XY=             -0.0004   XZ=             -0.0002   YZ=              0.0225

 Normal termination of Gaussian 16 at Mon Apr 21 18:37:47 2025.
