 Gaussian 16, Revision A.03,
 Gaussian 16:  ES64L-G16RevA.03 25-Dec-2016

 --------------------------------------------
 #p opt UM062X/6-311+G** nosymm int=superfine
 --------------------------------------------

 -------------------
 Title Card Required
 -------------------
 Symbolic Z-matrix:
 Charge =  0 Multiplicity = 1

 SCF Done:  E(UM062X) =  -382.320109693     A.U. after   12 cycles
 SCF Done:  E(UM062X) =  -382.327508987     A.U. after   10 cycles
 SCF Done:  E(UM062X) =  -382.330121022     A.U. after   10 cycles
 SCF Done:  E(UM062X) =  -382.330143631     A.U. after    9 cycles
 SCF Done:  E(UM062X) =  -382.330157816     A.U. after    9 cycles
 SCF Done:  E(UM062X) =  -382.330158942     A.U. after    8 cycles
 SCF Done:  E(UM062X) =  -382.330159036     A.U. after    7 cycles
 Optimization completed.
    -- Stationary point found.

                          Input orientation:
 ---------------------------------------------------------------------
 Center     Atomic      Atomic             Coordinates (Angstroms)
 Number     Number       Type             X           Y           Z
 ---------------------------------------------------------------------
      1          6           0       -1.431264    0.000000    0.000000
      2         15           0        1.431264    0.000000    0.000000
      3          1           0        1.411253   -1.418315    0.029337
      4          1           0       -1.600019    1.042092    0.233681
      5          1           0        1.411267    0.084180    1.416094
      6          1           0       -1.599984   -0.312927   -1.021102
      7          1           0       -1.613423   -0.724300    0.782144
 ---------------------------------------------------------------------

 Alpha  occ. eigenvalues --  -78.03208 -10.57714  -6.85534  -4.97062  -4.97008
 Alpha  occ. eigenvalues --   -4.96815  -0.77644  -0.69304  -0.49218  -0.49179
 Alpha  occ. eigenvalues --   -0.43575  -0.34810  -0.27768
 Alpha virt. eigenvalues --   -0.06613   0.01778   0.04006   0.04382   0.04717
 Alpha virt. eigenvalues --    0.06426   0.06816   0.07406   0.07539   0.12615
 Alpha virt. eigenvalues --    0.17531   0.18854   0.19127   0.25033   0.30101

  Beta  occ. eigenvalues --  -78.03208 -10.57714  -6.85534  -4.97062  -4.97008
  Beta  occ. eigenvalues --   -4.96815  -0.77644  -0.69304  -0.49218  -0.49179
  Beta  occ. eigenvalues --   -0.43575  -0.34810  -0.27768
  Beta virt. eigenvalues --   -0.06613   0.01778   0.04006   0.04382   0.04717
  Beta virt. eigenvalues --    0.06426   0.06816   0.07406   0.07539   0.12615
  Beta virt. eigenvalues --    0.17531   0.18854   0.19127   0.25033   0.30101

 Mulliken charges and spin densities:
               1          2
     1  C   -0.551362  -0.000000
     2  P   -0.024603  -0.000000
     3  H    0.012009   0.000000
     4  H    0.184426   0.000000
     5  H    0.012021   0.000000
     6  H    0.184442   0.000000
     7  H    0.183067  -0.000000
 Sum of Mulliken charges =  -0.00000  -0.00000

 Dipole moment (field-independent basis, Debye):
    X=             -0.8680    Y=             -0.5225    Z=              0.5661  Tot=              1.1605
 Quadrupole moment (field-independent basis, Debye-Ang):
   XX=            -22.7227   YY=            -22.1752   ZZ=            -22.2888
   XY=             -1.0934   XZ=              1.1847   YZ=              0.7083

 Normal termination of Gaussian 16 at Mon Apr 21 19:00:42 2025.
