 Gaussian 16, Revision A.03,
 Gaussian 16:  ES64L-G16RevA.03 25-Dec-2016

 --------------------------------------------
 #p opt UM062X/6-311+G** nosymm int=superfine
 --------------------------------------------

 -------------------
 Title Card Required
 -------------------
 Symbolic Z-matrix:
 Charge =  1 Multiplicity = 2

 SCF Done:  E(UM062X) =  -79.3181056837     A.U. after   10 cycles
 SCF Done:  E(UM062X) =  -79.3191706746     A.U. after    9 cycles
 SCF Done:  E(UM062X) =  -79.3191778595     A.U. after    9 cycles
 Optimization completed.
    -- Stationary point found.

                          Input orientation:
 ---------------------------------------------------------------------
 Center     Atomic      Atomic             Coordinates (Angstroms)
 Number     Number       Type             X           Y           Z
 ---------------------------------------------------------------------
      1          6           0       -1.940274    0.000000    0.000000
      2          6           0        1.940274    0.000000    0.000000
      3          1           0        1.968737   -0.937597    0.542661
      4          1           0       -1.967043   -0.938696   -0.540840
      5          1           0        1.968013    0.938789    0.540631
      6          1           0        1.967061   -0.001167   -1.083355
      7          1           0       -1.968789    0.937701   -0.542480
      8          1           0       -1.967980    0.000945    1.083333
 ---------------------------------------------------------------------

 Alpha  occ. eigenvalues --  -10.83677 -10.83676  -1.02235  -1.01858  -0.73270
 Alpha  occ. eigenvalues --   -0.73270  -0.73136  -0.73136  -0.47842
 Alpha virt. eigenvalues --   -0.37517  -0.12834  -0.10175  -0.09511  -0.09511
 Alpha virt. eigenvalues --   -0.06225  -0.06225  -0.04393  -0.02987  -0.00216
 Alpha virt. eigenvalues --   -0.00214   0.01344   0.01346   0.02821   0.08606

  Beta  occ. eigenvalues --  -10.83459 -10.83459  -0.99579  -0.99336  -0.72752
  Beta  occ. eigenvalues --   -0.72751  -0.72598  -0.72598
  Beta virt. eigenvalues --   -0.32695  -0.26617  -0.16460  -0.10944  -0.10943
  Beta virt. eigenvalues --   -0.10212  -0.06227  -0.06227  -0.05158  -0.02038
  Beta virt. eigenvalues --   -0.00483  -0.00480   0.01609   0.01611   0.02592

 Mulliken charges and spin densities:
               1          2
     1  C   -0.252960   0.557223
     2  C   -0.252959   0.557224
     3  H    0.251004  -0.019075
     4  H    0.250964  -0.019077
     5  H    0.250985  -0.019079
     6  H    0.250970  -0.019070
     7  H    0.251005  -0.019074
     8  H    0.250991  -0.019071
 Sum of Mulliken charges =   1.00000   1.00000

 Dipole moment (field-independent basis, Debye):
    X=              0.0000    Y=             -0.0000    Z=             -0.0001  Tot=              0.0001
 Quadrupole moment (field-independent basis, Debye-Ang):
   XX=              6.7651   YY=            -11.1110   ZZ=            -11.1111
   XY=             -0.0018   XZ=              0.0010   YZ=              0.0000

 Normal termination of Gaussian 16 at Wed Nov 13 12:54:16 2024.
