 Gaussian 16, Revision A.03,
 Gaussian 16:  ES64L-G16RevA.03 25-Dec-2016

 --------------------------------------------
 #p opt UM062X/6-311+G** nosymm int=superfine
 --------------------------------------------

 -------------------
 Title Card Required
 -------------------
 Symbolic Z-matrix:
 Charge =  0 Multiplicity = 1

 SCF Done:  E(UM062X) =  -95.8333162984     A.U. after   11 cycles
 SCF Done:  E(UM062X) =  -95.8335135628     A.U. after    9 cycles
 SCF Done:  E(UM062X) =  -95.8335168288     A.U. after    8 cycles
 Optimization completed.
    -- Stationary point found.

                          Input orientation:
 ---------------------------------------------------------------------
 Center     Atomic      Atomic             Coordinates (Angstroms)
 Number     Number       Type             X           Y           Z
 ---------------------------------------------------------------------
      1          6           0       -0.755542    0.000000    0.000000
      2          7           0        0.755542    0.000000    0.000000
      3          1           0        1.093806   -0.955398    0.017677
      4          1           0       -1.097989    1.034250   -0.017306
      5          1           0        1.093756    0.446330    0.844934
      6          1           0       -1.098010   -0.483853   -0.914248
      7          1           0       -1.202623   -0.508305    0.860346
 ---------------------------------------------------------------------

 Alpha  occ. eigenvalues --  -14.72585 -10.55456  -0.97032  -0.75203  -0.55854
 Alpha  occ. eigenvalues --   -0.50247  -0.46311  -0.43705  -0.30884
 Alpha virt. eigenvalues --    0.01487   0.03913   0.05042   0.05922   0.11216
 Alpha virt. eigenvalues --    0.13865   0.16061   0.18297   0.19496   0.21545
 Alpha virt. eigenvalues --    0.21890   0.23384   0.26014   0.28964   0.43172

  Beta  occ. eigenvalues --  -14.72585 -10.55456  -0.97032  -0.75203  -0.55854
  Beta  occ. eigenvalues --   -0.50247  -0.46311  -0.43705  -0.30884
  Beta virt. eigenvalues --    0.01487   0.03913   0.05042   0.05922   0.11216
  Beta virt. eigenvalues --    0.13865   0.16061   0.18297   0.19496   0.21545
  Beta virt. eigenvalues --    0.21890   0.23384   0.26014   0.28964   0.43172

 Mulliken charges and spin densities:
               1          2
     1  C   -0.405514   0.000000
     2  N   -0.511943  -0.000000
     3  H    0.234523   0.000000
     4  H    0.155030  -0.000000
     5  H    0.234509  -0.000000
     6  H    0.155048  -0.000000
     7  H    0.138347  -0.000000
 Sum of Mulliken charges =  -0.00000   0.00000

 Dipole moment (field-independent basis, Debye):
    X=             -0.6057    Y=             -0.7272    Z=              1.2323  Tot=              1.5538
 Quadrupole moment (field-independent basis, Debye-Ang):
   XX=            -14.5118   YY=            -13.2910   ZZ=            -14.4801
   XY=             -1.1565   XZ=              1.9592   YZ=              1.0770

 Normal termination of Gaussian 16 at Mon Apr 21 18:09:57 2025.
