 Gaussian 16, Revision A.03,
 Gaussian 16:  ES64L-G16RevA.03 25-Dec-2016

 --------------------------------------------
 #p opt UM062X/6-311+G** nosymm int=superfine
 --------------------------------------------

 -------------------
 Title Card Required
 -------------------
 Symbolic Z-matrix:
 Charge =  0 Multiplicity = 1

 SCF Done:  E(UM062X) =  -111.823061310     A.U. after   11 cycles
 SCF Done:  E(UM062X) =  -111.829806639     A.U. after   12 cycles
 SCF Done:  E(UM062X) =  -111.830259302     A.U. after   10 cycles
 SCF Done:  E(UM062X) =  -111.830355507     A.U. after   11 cycles
 SCF Done:  E(UM062X) =  -111.830368202     A.U. after   10 cycles
 SCF Done:  E(UM062X) =  -111.830371144     A.U. after    8 cycles
 SCF Done:  E(UM062X) =  -111.830374402     A.U. after   10 cycles
 SCF Done:  E(UM062X) =  -111.830378573     A.U. after    9 cycles
 SCF Done:  E(UM062X) =  -111.830453041     A.U. after   12 cycles
 SCF Done:  E(UM062X) =  -111.830725564     A.U. after   12 cycles
 SCF Done:  E(UM062X) =  -111.830643933     A.U. after   11 cycles
 SCF Done:  E(UM062X) =  -111.830788237     A.U. after   10 cycles
 SCF Done:  E(UM062X) =  -111.830807395     A.U. after    9 cycles
 SCF Done:  E(UM062X) =  -111.830808183     A.U. after    8 cycles
 SCF Done:  E(UM062X) =  -111.830808255     A.U. after    7 cycles
 Optimization completed.
    -- Stationary point found.

                          Input orientation:
 ---------------------------------------------------------------------
 Center     Atomic      Atomic             Coordinates (Angstroms)
 Number     Number       Type             X           Y           Z
 ---------------------------------------------------------------------
      1          7           0       -0.836540    0.000000    0.000000
      2          7           0        0.836540    0.000000    0.000000
      3          1           0       -1.009188   -0.791944   -0.617975
      4          1           0        1.009257    0.384671   -0.927945
      5          1           0       -1.009232   -0.385054    0.927790
      6          1           0        1.009147    0.792212    0.617647
 ---------------------------------------------------------------------

 Alpha  occ. eigenvalues --  -14.76976 -14.76963  -1.01394  -0.87519  -0.57938
 Alpha  occ. eigenvalues --   -0.49715  -0.46494  -0.42590  -0.30900
 Alpha virt. eigenvalues --    0.04114   0.04629   0.08735   0.09468   0.13078
 Alpha virt. eigenvalues --    0.13713   0.15748   0.16075   0.16378   0.22408
 Alpha virt. eigenvalues --    0.22894   0.25719   0.28206   0.52571   0.52581

  Beta  occ. eigenvalues --  -14.76976 -14.76963  -1.01394  -0.87519  -0.57938
  Beta  occ. eigenvalues --   -0.49715  -0.46494  -0.42590  -0.30900
  Beta virt. eigenvalues --    0.04114   0.04629   0.08735   0.09468   0.13078
  Beta virt. eigenvalues --    0.13713   0.15748   0.16075   0.16378   0.22408
  Beta virt. eigenvalues --    0.22894   0.25719   0.28206   0.52571   0.52581

 Mulliken charges and spin densities:
               1          2
     1  N   -0.517861  -0.000000
     2  N   -0.517859   0.000000
     3  H    0.258914   0.000000
     4  H    0.258919   0.000000
     5  H    0.258946  -0.000000
     6  H    0.258940   0.000000
 Sum of Mulliken charges =  -0.00000  -0.00000

 Dipole moment (field-independent basis, Debye):
    X=             -0.0000    Y=             -0.0002    Z=             -0.0007  Tot=              0.0007
 Quadrupole moment (field-independent basis, Debye-Ang):
   XX=            -14.9074   YY=            -14.0525   ZZ=            -11.0271
   XY=              4.6582   XZ=             -1.2275   YZ=              0.8565

 Normal termination of Gaussian 16 at Thu May 15 14:23:35 2025.
