 Gaussian 16, Revision A.03,
 Gaussian 16:  ES64L-G16RevA.03 25-Dec-2016

 --------------------------------------------
 #p opt UM062X/6-311+G** nosymm int=superfine
 --------------------------------------------

 -------------------
 Title Card Required
 -------------------
 Symbolic Z-matrix:
 Charge =  1 Multiplicity = 2

 SCF Done:  E(UM062X) =  -1615.35583362     A.U. after   28 cycles
 SCF Done:  E(UM062X) =  -1615.44922498     A.U. after   26 cycles
 SCF Done:  E(UM062X) =  -1615.56093197     A.U. after   25 cycles
 SCF Done:  E(UM062X) =  -1615.57570012     A.U. after   25 cycles
 SCF Done:  E(UM062X) =  -1615.57594726     A.U. after   24 cycles
 SCF Done:  E(UM062X) =  -1615.57692512     A.U. after   24 cycles
 SCF Done:  E(UM062X) =  -1615.57203437     A.U. after   25 cycles
 SCF Done:  E(UM062X) =  -1615.55240116     A.U. after   31 cycles
 SCF Done:  E(UM062X) =  -1615.54939670     A.U. after   29 cycles
 SCF Done:  E(UM062X) =  -1615.57695615     A.U. after   23 cycles
 SCF Done:  E(UM062X) =  -1615.57732219     A.U. after   22 cycles
 SCF Done:  E(UM062X) =  -1615.57733792     A.U. after   22 cycles
 SCF Done:  E(UM062X) =  -1615.57735254     A.U. after   19 cycles
 SCF Done:  E(UM062X) =  -1615.57735764     A.U. after   19 cycles
 SCF Done:  E(UM062X) =  -1615.57735947     A.U. after   18 cycles
 SCF Done:  E(UM062X) =  -1615.57736025     A.U. after   18 cycles
 SCF Done:  E(UM062X) =  -1615.57736071     A.U. after   18 cycles
 SCF Done:  E(UM062X) =  -1615.57736086     A.U. after   18 cycles
 SCF Done:  E(UM062X) =  -1615.57736091     A.U. after   16 cycles
 SCF Done:  E(UM062X) =  -1615.57736091     A.U. after   15 cycles
 Optimization completed.
    -- Stationary point found.

                          Input orientation:
 ---------------------------------------------------------------------
 Center     Atomic      Atomic             Coordinates (Angstroms)
 Number     Number       Type             X           Y           Z
 ---------------------------------------------------------------------
      1          6           0       -1.640630    0.000000    0.000000
      2          6           0        1.640630    0.000000   -0.000000
      3          6           0       -0.000009   -2.055451   -0.002184
      4          6           0       -0.000018   -3.456634   -0.003710
      5          6           0       -1.132900   -4.289647    0.193419
      6          6           0       -1.322311   -1.466233    0.164197
      7          6           0        0.664577   -5.682733   -0.125007
      8          1           0        1.297117   -6.551030   -0.242070
      9          6           0       -1.661039    0.764457    1.220742
     10          6           0       -0.664646   -5.682983    0.112786
     11          1           0       -1.297174   -6.551521    0.228106
     12          6           0        1.132850   -4.289231   -0.202632
     13          6           0        1.322291   -1.465884   -0.167278
     14          6           0        1.785680    2.191689   -1.337699
     15          6           0       -1.753374    0.409539   -1.374206
     16          6           0       -1.841498    2.769085    2.622853
     17          1           0       -1.953386    3.845145    2.688688
     18          6           0       -2.347772   -3.703086    0.413341
     19          1           0       -3.249791   -4.279511    0.582570
     20          6           0       -1.745619    1.756831   -1.868677
     21          6           0        2.411134   -2.286494   -0.388463
     22          1           0        3.380813   -1.813287   -0.507090
     23          6           0        1.753406    0.406656    1.375059
     24          6           0        1.745656    1.752903    1.872363
     25          6           0        2.347758   -3.702206   -0.421138
     26          1           0        3.249786   -4.278272   -0.591538
     27          6           0       -1.785898    2.188865    1.342294
     28          6           0       -1.516187    0.042250    2.442549
     29          1           0       -1.374581   -1.027025    2.407712
     30          6           0        1.824210   -0.627903    2.361952
     31          1           0        1.859264   -1.659064    2.045215
     32          6           0       -1.751314    2.024078    3.780174
     33          1           0       -1.807157    2.507080    4.748151
     34          6           0       -2.411140   -2.287304    0.383723
     35          1           0       -3.380808   -1.814344    0.503427
     36          6           0       -1.767411    1.980253   -3.260088
     37          1           0       -1.743309    3.006029   -3.609195
     38          6           0        1.661001    0.767018   -1.219141
     39          6           0       -1.787844    3.135944    0.259241
     40          1           0       -1.815316    4.171433    0.584311
     41          6           0       -1.835890    0.955189   -4.175457
     42          1           0       -1.868890    1.170032   -5.236696
     43          6           0       -1.738164    2.955425   -1.075789
     44          1           0       -1.721358    3.867843   -1.664237
     45          6           0        1.767649    1.973399    3.264238
     46          1           0        1.743580    2.998438    3.615508
     47          6           0       -1.566613    0.643594    3.679794
     48          1           0       -1.460743    0.037732    4.571517
     49          6           0       -1.824105   -0.622940   -2.363279
     50          1           0       -1.859220   -1.654761   -2.048702
     51          6           0        1.836266    0.946413    4.177442
     52          1           0        1.869437    1.159031    5.239123
     53          6           0        1.841282    2.774604   -2.617034
     54          1           0        1.953026    3.850816   -2.680597
     55          6           0        1.881661   -0.372373    3.710023
     56          1           0        1.957664   -1.198377    4.406618
     57          6           0        1.751286    2.032016   -3.775921
     58          1           0        1.807152    2.517055   -4.742877
     59          6           0        1.787398    3.136493   -0.252656
     60          1           0        1.814578    4.172670   -0.575551
     61          6           0       -1.881394   -0.364574   -3.710816
     62          1           0       -1.957368   -1.189109   -4.409153
     63          6           0        1.737879    2.953160    1.081996
     64          1           0        1.720926    3.864337    1.672360
     65          6           0        1.516260    0.047364   -2.442465
     66          1           0        1.374740   -1.021994   -2.409882
     67          6           0        1.566714    0.651304   -3.678443
     68          1           0        1.460958    0.047297   -4.571438
 ---------------------------------------------------------------------

 Alpha  occ. eigenvalues --  -10.70664 -10.70663 -10.68664 -10.68663 -10.68610
 Alpha  occ. eigenvalues --  -10.68610 -10.68255 -10.68255 -10.68252 -10.68252
 Alpha  occ. eigenvalues --  -10.67522 -10.67468 -10.67440 -10.66711 -10.66711
 Alpha  occ. eigenvalues --  -10.66607 -10.66607 -10.65928 -10.65928 -10.65867
 Alpha  occ. eigenvalues --  -10.65867 -10.65730 -10.65730 -10.65698 -10.65698
 Alpha  occ. eigenvalues --  -10.65612 -10.65612 -10.65591 -10.65591 -10.65409
 Alpha  occ. eigenvalues --  -10.65409 -10.65398 -10.65398 -10.65343 -10.65343
 Alpha  occ. eigenvalues --  -10.65226 -10.65225 -10.64844 -10.64843 -10.63798
 Alpha  occ. eigenvalues --  -10.63751 -10.63650  -1.11765  -1.10353  -1.09979
 Alpha  occ. eigenvalues --   -1.08268  -1.07816  -1.05192  -1.04980  -1.02494
 Alpha  occ. eigenvalues --   -1.02147  -1.01023  -1.00182  -0.97929  -0.97654
 Alpha  occ. eigenvalues --   -0.96697  -0.96305  -0.94853  -0.93545  -0.93465
 Alpha  occ. eigenvalues --   -0.92861  -0.91702  -0.87344  -0.87138  -0.84978
 Alpha  occ. eigenvalues --   -0.84815  -0.83015  -0.81527  -0.80723  -0.79750
 Alpha  occ. eigenvalues --   -0.79666  -0.79535  -0.77308  -0.76295  -0.76160
 Alpha  occ. eigenvalues --   -0.75889  -0.75306  -0.73282  -0.70134  -0.69609
 Alpha  occ. eigenvalues --   -0.68729  -0.68530  -0.67752  -0.67653  -0.66894
 Alpha  occ. eigenvalues --   -0.66891  -0.65733  -0.65348  -0.65227  -0.64667
 Alpha  occ. eigenvalues --   -0.63221  -0.62725  -0.62403  -0.62103  -0.60944
 Alpha  occ. eigenvalues --   -0.60928  -0.60517  -0.60208  -0.60070  -0.60016
 Alpha  occ. eigenvalues --   -0.59529  -0.58807  -0.58731  -0.58096  -0.57634
 Alpha  occ. eigenvalues --   -0.57389  -0.57165  -0.55931  -0.55658  -0.55653
 Alpha  occ. eigenvalues --   -0.54921  -0.54046  -0.53001  -0.52847  -0.52606
 Alpha  occ. eigenvalues --   -0.52417  -0.52352  -0.52056  -0.51032  -0.50951
 Alpha  occ. eigenvalues --   -0.50871  -0.50790  -0.49632  -0.49552  -0.49484
 Alpha  occ. eigenvalues --   -0.48388  -0.48378  -0.47946  -0.45609  -0.44722
 Alpha  occ. eigenvalues --   -0.43868  -0.42789  -0.40594  -0.40413  -0.39259
 Alpha  occ. eigenvalues --   -0.38137  -0.37533  -0.37013  -0.30253
 Alpha virt. eigenvalues --   -0.21388  -0.16038  -0.15510  -0.14349  -0.10720
 Alpha virt. eigenvalues --   -0.09980  -0.08929  -0.08569  -0.08340  -0.07576
 Alpha virt. eigenvalues --   -0.07546  -0.07448  -0.06642  -0.06303  -0.06178

  Beta  occ. eigenvalues --  -10.70504 -10.70503 -10.68712 -10.68711 -10.68654
  Beta  occ. eigenvalues --  -10.68653 -10.68216 -10.68215 -10.68206 -10.68206
  Beta  occ. eigenvalues --  -10.67516 -10.67488 -10.67436 -10.66708 -10.66707
  Beta  occ. eigenvalues --  -10.66600 -10.66600 -10.65888 -10.65887 -10.65831
  Beta  occ. eigenvalues --  -10.65831 -10.65698 -10.65698 -10.65659 -10.65659
  Beta  occ. eigenvalues --  -10.65632 -10.65632 -10.65610 -10.65609 -10.65425
  Beta  occ. eigenvalues --  -10.65425 -10.65396 -10.65396 -10.65362 -10.65362
  Beta  occ. eigenvalues --  -10.65213 -10.65213 -10.64843 -10.64842 -10.63795
  Beta  occ. eigenvalues --  -10.63751 -10.63650  -1.11618  -1.10184  -1.09904
  Beta  occ. eigenvalues --   -1.08163  -1.07726  -1.05024  -1.04835  -1.02384
  Beta  occ. eigenvalues --   -1.02053  -1.00844  -1.00019  -0.97827  -0.97561
  Beta  occ. eigenvalues --   -0.96588  -0.96213  -0.94808  -0.93477  -0.93370
  Beta  occ. eigenvalues --   -0.92796  -0.91619  -0.87043  -0.86782  -0.84913
  Beta  occ. eigenvalues --   -0.84755  -0.82939  -0.81431  -0.80627  -0.79669
  Beta  occ. eigenvalues --   -0.79599  -0.79465  -0.77205  -0.76153  -0.76001
  Beta  occ. eigenvalues --   -0.75728  -0.75266  -0.73165  -0.70018  -0.69465
  Beta  occ. eigenvalues --   -0.68614  -0.68415  -0.67708  -0.67610  -0.66776
  Beta  occ. eigenvalues --   -0.66775  -0.65645  -0.65197  -0.65084  -0.64573
  Beta  occ. eigenvalues --   -0.63049  -0.62673  -0.62324  -0.62035  -0.60799
  Beta  occ. eigenvalues --   -0.60707  -0.60397  -0.60056  -0.59963  -0.59899
  Beta  occ. eigenvalues --   -0.59388  -0.58712  -0.58603  -0.58024  -0.57523
  Beta  occ. eigenvalues --   -0.57132  -0.56808  -0.55691  -0.55611  -0.55607
  Beta  occ. eigenvalues --   -0.54891  -0.53752  -0.52902  -0.52764  -0.52549
  Beta  occ. eigenvalues --   -0.52314  -0.52237  -0.52034  -0.50968  -0.50849
  Beta  occ. eigenvalues --   -0.50791  -0.50359  -0.49459  -0.49406  -0.48876
  Beta  occ. eigenvalues --   -0.48314  -0.47748  -0.47673  -0.44865  -0.44216
  Beta  occ. eigenvalues --   -0.43156  -0.42438  -0.40353  -0.40287  -0.38667
  Beta  occ. eigenvalues --   -0.38050  -0.37194  -0.36973
  Beta virt. eigenvalues --   -0.20653  -0.18289  -0.15921  -0.15499  -0.14414
  Beta virt. eigenvalues --   -0.10370  -0.09567  -0.08552  -0.08548  -0.08026
  Beta virt. eigenvalues --   -0.07619  -0.07565  -0.07262  -0.06631  -0.06275

 Mulliken charges and spin densities:
               1          2
     1  C    0.044318   0.375126
     2  C    0.044507   0.375151
     3  C    0.361199   0.023505
     4  C    0.217052  -0.017291
     5  C    0.117429   0.007200
     6  C    0.000604  -0.043123
     7  C   -0.316381   0.000614
     8  H    0.176013  -0.000000
     9  C    0.023678  -0.050241
    10  C   -0.316326   0.000613
    11  H    0.176013  -0.000000
    12  C    0.117419   0.007196
    13  C    0.000578  -0.043133
    14  C    0.573742   0.028070
    15  C    0.360563  -0.082892
    16  C   -0.433112  -0.036309
    17  H    0.165099   0.001166
    18  C   -0.472954   0.001610
    19  H    0.175400   0.000109
    20  C    0.263395   0.109259
    21  C   -0.099433   0.023447
    22  H    0.177163  -0.000457
    23  C    0.360593  -0.082903
    24  C    0.263279   0.109281
    25  C   -0.472815   0.001611
    26  H    0.175400   0.000109
    27  C    0.573938   0.028087
    28  C   -0.042167   0.084302
    29  H    0.211812  -0.004792
    30  C   -0.251106   0.038664
    31  H    0.223910  -0.003555
    32  C   -0.399485   0.061906
    33  H    0.182469  -0.003545
    34  C   -0.099502   0.023430
    35  H    0.177158  -0.000457
    36  C   -0.025936  -0.064549
    37  H    0.159181   0.001486
    38  C    0.023757  -0.050242
    39  C   -0.343945   0.049705
    40  H    0.163604  -0.002459
    41  C   -0.208949   0.074859
    42  H    0.181070  -0.003955
    43  C   -0.365291   0.010972
    44  H    0.160549  -0.000448
    45  C   -0.026110  -0.064568
    46  H    0.159189   0.001487
    47  C    0.028283  -0.040691
    48  H    0.167576   0.000242
    49  C   -0.251062   0.038651
    50  H    0.223908  -0.003555
    51  C   -0.209092   0.074845
    52  H    0.181071  -0.003954
    53  C   -0.433295  -0.036302
    54  H    0.165101   0.001166
    55  C   -0.562700  -0.036309
    56  H    0.176427   0.001485
    57  C   -0.399576   0.061905
    58  H    0.182470  -0.003546
    59  C   -0.343607   0.049726
    60  H    0.163589  -0.002461
    61  C   -0.562903  -0.036311
    62  H    0.176430   0.001485
    63  C   -0.365093   0.010960
    64  H    0.160533  -0.000448
    65  C   -0.042302   0.084314
    66  H    0.211821  -0.004792
    67  C    0.028275  -0.040701
    68  H    0.167580   0.000242
 Sum of Mulliken charges =   1.00000   1.00000

 Dipole moment (field-independent basis, Debye):
    X=             -0.0002    Y=              2.5308    Z=              0.0028  Tot=              2.5308
 Quadrupole moment (field-independent basis, Debye-Ang):
   XX=           -222.2553   YY=           -174.7900   ZZ=           -176.3111
   XY=             -0.0030   XZ=              0.6518   YZ=              0.0014

 Normal termination of Gaussian 16 at Fri Nov  8 09:44:05 2024.
