 Gaussian 16, Revision A.03,
 Gaussian 16:  ES64L-G16RevA.03 25-Dec-2016

 --------------------------------------------
 #p opt UM062X/6-311+G** nosymm int=superfine
 --------------------------------------------

 -------------------
 Title Card Required
 -------------------
 Symbolic Z-matrix:
 Charge =  0 Multiplicity = 1

 SCF Done:  E(UM062X) =  -83.1342846303     A.U. after   10 cycles
 SCF Done:  E(UM062X) =  -83.1476922915     A.U. after    9 cycles
 SCF Done:  E(UM062X) =  -83.1498246470     A.U. after    9 cycles
 SCF Done:  E(UM062X) =  -83.1498327747     A.U. after    7 cycles
 Optimization completed.
    -- Stationary point found.

                          Input orientation:
 ---------------------------------------------------------------------
 Center     Atomic      Atomic             Coordinates (Angstroms)
 Number     Number       Type             X           Y           Z
 ---------------------------------------------------------------------
      1          5           0       -1.452429    0.000000    0.000000
      2          7           0        1.452429    0.000000    0.000000
      3          1           0        1.810880   -0.947375    0.000003
      4          1           0       -1.491446   -0.594234    1.029213
      5          1           0        1.810759    0.473745   -0.820475
      6          1           0        1.810746    0.473744    0.820480
      7          1           0       -1.491450    1.188440    0.000013
      8          1           0       -1.491459   -0.594215   -1.029223
 ---------------------------------------------------------------------

 Alpha  occ. eigenvalues --  -14.74350  -7.03051  -0.97316  -0.56307  -0.55204
 Alpha  occ. eigenvalues --   -0.55204  -0.38704  -0.38703  -0.35693
 Alpha virt. eigenvalues --   -0.00622   0.02106   0.04830   0.04830   0.06366
 Alpha virt. eigenvalues --    0.08572   0.10999   0.10999   0.17249   0.17249
 Alpha virt. eigenvalues --    0.18181   0.20063   0.20064   0.23124   0.29242

  Beta  occ. eigenvalues --  -14.74350  -7.03051  -0.97316  -0.56307  -0.55204
  Beta  occ. eigenvalues --   -0.55204  -0.38704  -0.38703  -0.35693
  Beta virt. eigenvalues --   -0.00622   0.02106   0.04830   0.04830   0.06366
  Beta virt. eigenvalues --    0.08572   0.10999   0.10999   0.17249   0.17249
  Beta virt. eigenvalues --    0.18181   0.20063   0.20064   0.23124   0.29242

 Mulliken charges and spin densities:
               1          2
     1  B    0.016277  -0.000000
     2  N   -0.751187   0.000000
     3  H    0.257245  -0.000000
     4  H   -0.012276   0.000000
     5  H    0.257246  -0.000000
     6  H    0.257246   0.000000
     7  H   -0.012276   0.000000
     8  H   -0.012276   0.000000
 Sum of Mulliken charges =  -0.00000  -0.00000

 Dipole moment (field-independent basis, Debye):
    X=              2.4710    Y=              0.0002    Z=              0.0000  Tot=              2.4710
 Quadrupole moment (field-independent basis, Debye-Ang):
   XX=            -12.0757   YY=            -15.7643   ZZ=            -15.7643
   XY=             -0.0000   XZ=             -0.0000   YZ=              0.0000

 Normal termination of Gaussian 16 at Mon Apr 21 17:33:39 2025.
