 Gaussian 16, Revision A.03,
 Gaussian 16:  ES64L-G16RevA.03 25-Dec-2016

 --------------------------------------------
 #p opt UM062X/6-311+G** nosymm int=superfine
 --------------------------------------------

 -------------------
 Title Card Required
 -------------------
 Symbolic Z-matrix:
 Charge =  0 Multiplicity = 1

 SCF Done:  E(UM062X) =  -110.296886797     A.U. after   13 cycles
 SCF Done:  E(UM062X) =  -110.308895020     A.U. after   12 cycles
 SCF Done:  E(UM062X) =  -110.312185474     A.U. after   12 cycles
 SCF Done:  E(UM062X) =  -110.312189352     A.U. after    9 cycles
 Optimization completed.
    -- Stationary point found.

                          Input orientation:
 ---------------------------------------------------------------------
 Center     Atomic      Atomic             Coordinates (Angstroms)
 Number     Number       Type             X           Y           Z
 ---------------------------------------------------------------------
      1          7           0       -1.190428    0.000000    0.000000
      2          7           0        1.190428    0.000000    0.000000
      3          1           0       -1.088136   -1.031228    0.000000
      4          1           0        1.088136    1.031228    0.000000
 ---------------------------------------------------------------------

 Alpha  occ. eigenvalues --  -14.88660 -14.88654  -0.94389  -0.90175  -0.49792
 Alpha  occ. eigenvalues --   -0.47655  -0.36594  -0.32675
 Alpha virt. eigenvalues --   -0.18154  -0.12889   0.05714   0.07753   0.10661
 Alpha virt. eigenvalues --    0.12252   0.13269   0.14820   0.16051   0.19339
 Alpha virt. eigenvalues --    0.19982   0.24690   0.53168   0.56144   0.75619

  Beta  occ. eigenvalues --  -14.88660 -14.88654  -0.94389  -0.90175  -0.49792
  Beta  occ. eigenvalues --   -0.47655  -0.36594  -0.32675
  Beta virt. eigenvalues --   -0.18154  -0.12889   0.05714   0.07753   0.10661
  Beta virt. eigenvalues --    0.12252   0.13269   0.14820   0.16051   0.19339
  Beta virt. eigenvalues --    0.19982   0.24690   0.53168   0.56144   0.75619

 Mulliken charges and spin densities:
               1          2
     1  N   -0.247052   0.000000
     2  N   -0.247052  -0.000000
     3  H    0.247052  -0.000000
     4  H    0.247052   0.000000
 Sum of Mulliken charges =  -0.00000   0.00000

 Dipole moment (field-independent basis, Debye):
    X=             -0.0000    Y=             -0.0000    Z=              0.0000  Tot=              0.0000
 Quadrupole moment (field-independent basis, Debye-Ang):
   XX=            -13.6744   YY=            -10.9043   ZZ=            -14.0891
   XY=              4.2702   XZ=              0.0000   YZ=              0.0000

 Normal termination of Gaussian 16 at Thu May 15 15:36:18 2025.
