 Gaussian 16, Revision A.03,
 Gaussian 16:  ES64L-G16RevA.03 25-Dec-2016

 --------------------------------------------
 #p opt UM062X/6-311+G** nosymm int=superfine
 --------------------------------------------

 -------------------
 Title Card Required
 -------------------
 Symbolic Z-matrix:
 Charge =  1 Multiplicity = 2

 SCF Done:  E(UM062X) =  -580.974385730     A.U. after   10 cycles
 SCF Done:  E(UM062X) =  -580.974451913     A.U. after    8 cycles
 SCF Done:  E(UM062X) =  -580.974465676     A.U. after    9 cycles
 SCF Done:  E(UM062X) =  -580.974076956     A.U. after   10 cycles
 SCF Done:  E(UM062X) =  -580.974472733     A.U. after    8 cycles
 SCF Done:  E(UM062X) =  -580.974472709     A.U. after    7 cycles
 SCF Done:  E(UM062X) =  -580.974473058     A.U. after    7 cycles
 Optimization completed.
    -- Stationary point found.

                          Input orientation:
 ---------------------------------------------------------------------
 Center     Atomic      Atomic             Coordinates (Angstroms)
 Number     Number       Type             X           Y           Z
 ---------------------------------------------------------------------
      1         14           0       -1.241295    0.000000    0.000000
      2         14           0        1.241295    0.000000    0.000000
      3          1           0       -1.952412   -1.282720   -0.000630
      4          1           0        1.952412    1.282720    0.000611
      5          1           0       -1.952414    1.282719    0.000594
      6          1           0        1.952414   -1.282719   -0.000633
 ---------------------------------------------------------------------

 Alpha  occ. eigenvalues --  -67.26074 -67.26074  -5.80642  -5.80638  -4.12324
 Alpha  occ. eigenvalues --   -4.12320  -4.11587  -4.11561  -4.11489  -4.11486
 Alpha  occ. eigenvalues --   -0.84906  -0.78744  -0.65016  -0.63166  -0.58119
 Alpha  occ. eigenvalues --   -0.46279
 Alpha virt. eigenvalues --   -0.28427  -0.21252  -0.16054  -0.13601  -0.11419
 Alpha virt. eigenvalues --   -0.10820  -0.09536  -0.08788  -0.08495  -0.07847
 Alpha virt. eigenvalues --   -0.06907  -0.05785  -0.01182   0.04929   0.08645

  Beta  occ. eigenvalues --  -67.25784 -67.25784  -5.80559  -5.80557  -4.11605
  Beta  occ. eigenvalues --   -4.11601  -4.11523  -4.11492  -4.11383  -4.11380
  Beta  occ. eigenvalues --   -0.82729  -0.77417  -0.64885  -0.63280  -0.57505
  Beta virt. eigenvalues --   -0.31139  -0.23588  -0.18937  -0.15794  -0.14725
  Beta virt. eigenvalues --   -0.12192  -0.10772  -0.09527  -0.08893  -0.07981
  Beta virt. eigenvalues --   -0.07252  -0.06630  -0.03908  -0.02531   0.04840

 Mulliken charges and spin densities:
               1          2
     1  Si   0.433480   0.552936
     2  Si   0.433480   0.552936
     3  H    0.033260  -0.026468
     4  H    0.033260  -0.026468
     5  H    0.033260  -0.026468
     6  H    0.033260  -0.026468
 Sum of Mulliken charges =   1.00000   1.00000

 Dipole moment (field-independent basis, Debye):
    X=             -0.0000    Y=             -0.0000    Z=              0.0000  Tot=              0.0000
 Quadrupole moment (field-independent basis, Debye-Ang):
   XX=            -12.9156   YY=            -23.4430   ZZ=            -23.8727
   XY=             -0.0000   XZ=             -0.0000   YZ=              0.0002

 Normal termination of Gaussian 16 at Mon Apr 21 20:18:23 2025.
