 Gaussian 16, Revision A.03,
 Gaussian 16:  ES64L-G16RevA.03 25-Dec-2016

 ---------------------------------------------------
 #p UM062X/6-311+G** force int=superfine pop=saveNBO
 ---------------------------------------------------

 -------------------
 Title Card Required
 -------------------
 Symbolic Z-matrix:
 Charge =  0 Multiplicity = 1

                         Standard orientation:
 ---------------------------------------------------------------------
 Center     Atomic      Atomic             Coordinates (Angstroms)
 Number     Number       Type             X           Y           Z
 ---------------------------------------------------------------------
      1          8           0        0.000000    0.000000   -1.260091
      2         16           0        0.000000    0.000000    0.630045
 ---------------------------------------------------------------------

 SCF Done:  E(UM062X) =  -473.211364777     A.U. after   12 cycles

 Unable to determine electronic state:  an orbital has unidentified symmetry.
 Alpha  occ. eigenvalues --  -90.02382 -19.73804  -8.37947  -6.30080  -6.29941
 Alpha  occ. eigenvalues --   -6.29097  -1.08577  -0.79344  -0.47611  -0.45457
 Alpha  occ. eigenvalues --   -0.42051  -0.34191
 Alpha virt. eigenvalues --   -0.19027  -0.06240   0.02413   0.04595   0.05260
 Alpha virt. eigenvalues --    0.06368   0.18775   0.20711   0.21082   0.27534
 Alpha virt. eigenvalues --    0.33111   0.33478   0.34050   0.60503   0.73520

  Beta  occ. eigenvalues --  -90.02382 -19.73804  -8.37947  -6.30080  -6.29941
  Beta  occ. eigenvalues --   -6.29097  -1.08577  -0.79344  -0.47611  -0.45457
  Beta  occ. eigenvalues --   -0.42051  -0.34191
  Beta virt. eigenvalues --   -0.19027  -0.06240   0.02413   0.04595   0.05260
  Beta virt. eigenvalues --    0.06368   0.18775   0.20711   0.21082   0.27534
  Beta virt. eigenvalues --    0.33111   0.33478   0.34050   0.60503   0.73520

 Mulliken charges and spin densities:
               1          2
     1  O   -0.246237  -0.000000
     2  S    0.246237  -0.000000
 Sum of Mulliken charges =   0.00000  -0.00000

 Dipole moment (field-independent basis, Debye):
    X=              0.0000    Y=              0.0000    Z=              2.3979  Tot=              2.3979
 Quadrupole moment (field-independent basis, Debye-Ang):
   XX=            -20.2840   YY=            -16.6022   ZZ=            -18.6809
   XY=              0.0000   XZ=              0.0000   YZ=              0.0000

 Summary of Natural Population Analysis:

                                       Natural Population
                Natural  -----------------------------------------------
    Atom  No    Charge         Core      Valence    Rydberg      Total
 -----------------------------------------------------------------------
      O    1   -0.22640      0.99999     3.22241    0.00400     4.22640
      S    2    0.22640      4.99994     2.76318    0.01049     7.77360
 =======================================================================
   * Total *   -0.00000      5.99993     5.98558    0.01449    12.00000

 Normal termination of Gaussian 16 at Mon Apr 21 20:00:39 2025.
