 Gaussian 16, Revision A.03,
 Gaussian 16:  ES64L-G16RevA.03 25-Dec-2016

 --------------------------------------------
 #p opt UM062X/6-311+G** nosymm int=superfine
 --------------------------------------------

 -------------------
 Title Card Required
 -------------------
 Symbolic Z-matrix:
 Charge =  1 Multiplicity = 2

 SCF Done:  E(UM062X) =  -579.672761876     A.U. after   14 cycles
 SCF Done:  E(UM062X) =  -579.673517270     A.U. after   12 cycles
 SCF Done:  E(UM062X) =  -579.674197771     A.U. after   12 cycles
 SCF Done:  E(UM062X) =  -579.675394695     A.U. after   14 cycles
 SCF Done:  E(UM062X) =  -579.675917728     A.U. after   14 cycles
 SCF Done:  E(UM062X) =  -579.676270399     A.U. after   14 cycles
 SCF Done:  E(UM062X) =  -579.676386709     A.U. after   11 cycles
 SCF Done:  E(UM062X) =  -579.676406024     A.U. after   11 cycles
 SCF Done:  E(UM062X) =  -579.676407541     A.U. after    9 cycles
 SCF Done:  E(UM062X) =  -579.676409802     A.U. after   11 cycles
 SCF Done:  E(UM062X) =  -579.676414861     A.U. after   10 cycles
 SCF Done:  E(UM062X) =  -579.676418461     A.U. after   11 cycles
 SCF Done:  E(UM062X) =  -579.676418468     A.U. after    8 cycles
 Optimization completed.
    -- Stationary point found.

                          Input orientation:
 ---------------------------------------------------------------------
 Center     Atomic      Atomic             Coordinates (Angstroms)
 Number     Number       Type             X           Y           Z
 ---------------------------------------------------------------------
      1         14           0       -2.352975    0.000000    0.000000
      2         14           0        2.352975    0.000000    0.000000
      3          1           0       -2.464518   -1.504402    0.000000
      4          1           0        2.464975    1.504358    0.000000
 ---------------------------------------------------------------------

 Alpha  occ. eigenvalues --  -67.26097 -67.26097  -5.80268  -5.80267  -4.11367
 Alpha  occ. eigenvalues --   -4.11367  -4.11281  -4.11280  -4.10633  -4.10633
 Alpha  occ. eigenvalues --   -0.75093  -0.74717  -0.51828  -0.51662  -0.39126
 Alpha virt. eigenvalues --   -0.29701  -0.26989  -0.26447  -0.10541  -0.09192
 Alpha virt. eigenvalues --   -0.08324  -0.07755  -0.07495  -0.06439  -0.05503
 Alpha virt. eigenvalues --   -0.05411  -0.04790  -0.02379   0.12739   0.14374

  Beta  occ. eigenvalues --  -67.25842 -67.25842  -5.80196  -5.80195  -4.11219
  Beta  occ. eigenvalues --   -4.11219  -4.10680  -4.10680  -4.10534  -4.10533
  Beta  occ. eigenvalues --   -0.73269  -0.73098  -0.51193  -0.51015
  Beta virt. eigenvalues --   -0.27610  -0.26824  -0.26052  -0.23891  -0.14381
  Beta virt. eigenvalues --   -0.10847  -0.09086  -0.08270  -0.07947  -0.06462
  Beta virt. eigenvalues --   -0.05594  -0.05310  -0.05040  -0.02498   0.09384

 Mulliken charges and spin densities:
               1          2
     1  Si   0.583835   0.507980
     2  Si   0.583815   0.507996
     3  H   -0.083829  -0.007989
     4  H   -0.083821  -0.007987
 Sum of Mulliken charges =   1.00000   1.00000

 Dipole moment (field-independent basis, Debye):
    X=              0.0001    Y=             -0.0000    Z=              0.0000  Tot=              0.0001
 Quadrupole moment (field-independent basis, Debye-Ang):
   XX=              7.5620   YY=            -27.8120   ZZ=            -20.0162
   XY=              2.4381   XZ=              0.0000   YZ=             -0.0000

 Normal termination of Gaussian 16 at Mon Apr 21 20:43:59 2025.
