 Gaussian 16, Revision A.03,
 Gaussian 16:  ES64L-G16RevA.03 25-Dec-2016

 ---------------------------------------------------
 #p UM062X/6-311+G** force int=superfine pop=saveNBO
 ---------------------------------------------------

 -------------------
 Title Card Required
 -------------------
 Symbolic Z-matrix:
 Charge =  0 Multiplicity = 1

                         Standard orientation:
 ---------------------------------------------------------------------
 Center     Atomic      Atomic             Coordinates (Angstroms)
 Number     Number       Type             X           Y           Z
 ---------------------------------------------------------------------
      1         16           0        0.000000    0.000000    1.100200
      2         16           0        0.000000    0.000000   -1.100200
 ---------------------------------------------------------------------

 SCF Done:  E(UM062X) =  -796.274055512     A.U. after    9 cycles

 Unable to determine electronic state:  partially filled degenerate orbitals.
 Alpha  occ. eigenvalues --  -89.97468 -89.97468  -8.33349  -8.33343  -6.25433
 Alpha  occ. eigenvalues --   -6.25432  -6.25346  -6.25332  -6.24570  -6.24570
 Alpha  occ. eigenvalues --   -0.86322  -0.71966  -0.43028  -0.38900  -0.37796
 Alpha  occ. eigenvalues --   -0.29926
 Alpha virt. eigenvalues --   -0.17505  -0.05033   0.03162   0.04670   0.04743
 Alpha virt. eigenvalues --    0.05459   0.07155   0.07611   0.08182   0.14730
 Alpha virt. eigenvalues --    0.31213   0.32445   0.33152   0.34325   0.36109

  Beta  occ. eigenvalues --  -89.97468 -89.97468  -8.33349  -8.33343  -6.25433
  Beta  occ. eigenvalues --   -6.25432  -6.25346  -6.25332  -6.24570  -6.24570
  Beta  occ. eigenvalues --   -0.86322  -0.71966  -0.43028  -0.38900  -0.37796
  Beta  occ. eigenvalues --   -0.29926
  Beta virt. eigenvalues --   -0.17505  -0.05033   0.03162   0.04670   0.04743
  Beta virt. eigenvalues --    0.05459   0.07155   0.07611   0.08182   0.14730
  Beta virt. eigenvalues --    0.31213   0.32445   0.33152   0.34325   0.36109

 Mulliken charges and spin densities:
               1          2
     1  S    0.000000   0.000000
     2  S    0.000000   0.000000
 Sum of Mulliken charges =   0.00000   0.00000

 Dipole moment (field-independent basis, Debye):
    X=              0.0000    Y=              0.0000    Z=              0.0000  Tot=              0.0000
 Quadrupole moment (field-independent basis, Debye-Ang):
   XX=            -24.4244   YY=            -29.4405   ZZ=            -24.3721
   XY=              0.0000   XZ=              0.0000   YZ=              0.0000

 Summary of Natural Population Analysis:

                                       Natural Population
                Natural  -----------------------------------------------
    Atom  No    Charge         Core      Valence    Rydberg      Total
 -----------------------------------------------------------------------
      S    1   -0.00000      4.99993     2.98929    0.01078     8.00000
      S    2   -0.00000      4.99993     2.98929    0.01078     8.00000
 =======================================================================
   * Total *   -0.00000      9.99987     5.97858    0.02156    16.00000

 Normal termination of Gaussian 16 at Mon Apr 21 20:08:44 2025.
