 Gaussian 16, Revision A.03,
 Gaussian 16:  ES64L-G16RevA.03 25-Dec-2016

 --------------------------------------------
 #p opt UM062X/6-311+G** nosymm int=superfine
 --------------------------------------------

 -------------------
 Title Card Required
 -------------------
 Symbolic Z-matrix:
 Charge =  0 Multiplicity = 1

 SCF Done:  E(UM062X) =  -381.081728018     A.U. after   13 cycles
 SCF Done:  E(UM062X) =  -381.083881891     A.U. after   11 cycles
 SCF Done:  E(UM062X) =  -381.084065005     A.U. after   11 cycles
 SCF Done:  E(UM062X) =  -381.079463420     A.U. after   13 cycles
 SCF Done:  E(UM062X) =  -381.084054060     A.U. after   11 cycles
 SCF Done:  E(UM062X) =  -381.084153756     A.U. after    7 cycles
 SCF Done:  E(UM062X) =  -381.084066590     A.U. after   11 cycles
 SCF Done:  E(UM062X) =  -381.084198968     A.U. after    9 cycles
 SCF Done:  E(UM062X) =  -381.084199525     A.U. after    9 cycles
 SCF Done:  E(UM062X) =  -381.084199769     A.U. after    9 cycles
 Optimization completed.
    -- Stationary point found.

                          Input orientation:
 ---------------------------------------------------------------------
 Center     Atomic      Atomic             Coordinates (Angstroms)
 Number     Number       Type             X           Y           Z
 ---------------------------------------------------------------------
      1          6           0       -1.130452    0.000000    0.000000
      2         15           0        1.130452    0.000000    0.000000
      3          1           0       -1.655153   -0.947702    0.010287
      4          1           0        1.106806   -1.419747    0.015851
      5          1           0       -1.643249    0.953648   -0.010323
 ---------------------------------------------------------------------

 Alpha  occ. eigenvalues --  -78.05913 -10.61881  -6.87835  -4.99321  -4.99244
 Alpha  occ. eigenvalues --   -4.99109  -0.76851  -0.66138  -0.51826  -0.39975
 Alpha  occ. eigenvalues --   -0.34819  -0.27085
 Alpha virt. eigenvalues --   -0.09246  -0.01316   0.02213   0.04311   0.05402
 Alpha virt. eigenvalues --    0.05466   0.06716   0.07363   0.10407   0.11014
 Alpha virt. eigenvalues --    0.14741   0.18882   0.21101   0.30341   0.31768

  Beta  occ. eigenvalues --  -78.05913 -10.61881  -6.87835  -4.99321  -4.99244
  Beta  occ. eigenvalues --   -4.99109  -0.76851  -0.66138  -0.51826  -0.39975
  Beta  occ. eigenvalues --   -0.34819  -0.27085
  Beta virt. eigenvalues --   -0.09246  -0.01316   0.02213   0.04311   0.05402
  Beta virt. eigenvalues --    0.05466   0.06716   0.07363   0.10407   0.11014
  Beta virt. eigenvalues --    0.14741   0.18882   0.21101   0.30341   0.31768

 Mulliken charges and spin densities:
               1          2
     1  C   -0.454506   0.000000
     2  P    0.095843  -0.000000
     3  H    0.188415  -0.000000
     4  H   -0.018736   0.000000
     5  H    0.188983  -0.000000
 Sum of Mulliken charges =  -0.00000   0.00000

 Dipole moment (field-independent basis, Debye):
    X=             -0.7830    Y=             -0.5776    Z=              0.0064  Tot=              0.9730
 Quadrupole moment (field-independent basis, Debye-Ang):
   XX=            -18.7807   YY=            -20.1263   ZZ=            -24.0900
   XY=             -1.1822   XZ=              0.0131   YZ=             -0.0435

 Normal termination of Gaussian 16 at Mon Apr 21 19:09:50 2025.
