 Gaussian 16, Revision A.03,
 Gaussian 16:  ES64L-G16RevA.03 25-Dec-2016

 --------------------------------------------
 #p opt UM062X/6-311+G** nosymm int=superfine
 --------------------------------------------

 -------------------
 Title Card Required
 -------------------
 Symbolic Z-matrix:
 Charge =  0 Multiplicity = 1

 SCF Done:  E(UM062X) =  -78.2648953728     A.U. after    8 cycles
 SCF Done:  E(UM062X) =  -78.3114812946     A.U. after    8 cycles
 SCF Done:  E(UM062X) =  -78.3616621828     A.U. after   10 cycles
 SCF Done:  E(UM062X) =  -78.3724574688     A.U. after    8 cycles
 SCF Done:  E(UM062X) =  -78.3739652557     A.U. after    9 cycles
 SCF Done:  E(UM062X) =  -78.3739784482     A.U. after    8 cycles
 SCF Done:  E(UM062X) =  -78.3739800281     A.U. after    7 cycles
 Optimization completed.
    -- Stationary point found.

                          Input orientation:
 ---------------------------------------------------------------------
 Center     Atomic      Atomic             Coordinates (Angstroms)
 Number     Number       Type             X           Y           Z
 ---------------------------------------------------------------------
      1          6           0       -1.007565    0.000000    0.000000
      2          6           0        1.007565    0.000000    0.000000
      3          1           0       -1.472133   -0.972852   -0.000000
      4          1           0       -1.472123    0.972857   -0.000000
      5          1           0        1.472133    0.972852   -0.000000
      6          1           0        1.472123   -0.972857    0.000000
 ---------------------------------------------------------------------

 Alpha  occ. eigenvalues --  -10.61064 -10.61050  -0.77491  -0.71479  -0.52992
 Alpha  occ. eigenvalues --   -0.49831  -0.37881  -0.26120
 Alpha virt. eigenvalues --   -0.06580   0.01732   0.03362   0.05389   0.07330
 Alpha virt. eigenvalues --    0.09100   0.09384   0.09882   0.11397   0.15335
 Alpha virt. eigenvalues --    0.16454   0.20664   0.21273   0.28140   0.39690

  Beta  occ. eigenvalues --  -10.61064 -10.61050  -0.77491  -0.71479  -0.52992
  Beta  occ. eigenvalues --   -0.49831  -0.37881  -0.26120
  Beta virt. eigenvalues --   -0.06580   0.01732   0.03362   0.05389   0.07330
  Beta virt. eigenvalues --    0.09100   0.09384   0.09882   0.11397   0.15335
  Beta virt. eigenvalues --    0.16454   0.20664   0.21273   0.28140   0.39690

 Mulliken charges and spin densities:
               1          2
     1  C   -0.360496   0.000000
     2  C   -0.360496  -0.000000
     3  H    0.180248  -0.000000
     4  H    0.180248   0.000000
     5  H    0.180248   0.000000
     6  H    0.180248   0.000000
 Sum of Mulliken charges =  -0.00000   0.00000

 Dipole moment (field-independent basis, Debye):
    X=              0.0000    Y=             -0.0000    Z=             -0.0000  Tot=              0.0000
 Quadrupole moment (field-independent basis, Debye-Ang):
   XX=            -11.2340   YY=            -12.0885   ZZ=            -18.1699
   XY=              0.0000   XZ=              0.0000   YZ=              0.0000

 Normal termination of Gaussian 16 at Tue Nov 19 11:04:26 2024.
