 Gaussian 16, Revision A.03,
 Gaussian 16:  ES64L-G16RevA.03 25-Dec-2016

 --------------------------------------------
 #p opt UM062X/6-311+G** nosymm int=superfine
 --------------------------------------------

 -------------------
 Title Card Required
 -------------------
 Symbolic Z-matrix:
 Charge = -1 Multiplicity = 2

 SCF Done:  E(UM062X) =  -53.1927337386     A.U. after   12 cycles
 SCF Done:  E(UM062X) =  -53.1978836363     A.U. after   10 cycles
 SCF Done:  E(UM062X) =  -53.1990478449     A.U. after   10 cycles
 SCF Done:  E(UM062X) =  -53.1990606461     A.U. after    8 cycles
 Optimization completed.
    -- Stationary point found.

                          Input orientation:
 ---------------------------------------------------------------------
 Center     Atomic      Atomic             Coordinates (Angstroms)
 Number     Number       Type             X           Y           Z
 ---------------------------------------------------------------------
      1          5           0       -2.440672    0.000000    0.000000
      2          5           0        2.440672    0.000000    0.000000
      3          1           0        2.486167   -1.197033   -0.000016
      4          1           0       -2.485859   -0.598518    1.036671
      5          1           0        2.486033    0.598535   -1.036654
      6          1           0        2.485787    0.598504    1.036681
      7          1           0       -2.486175    1.197033   -0.000001
      8          1           0       -2.485952   -0.598522   -1.036664
 ---------------------------------------------------------------------

 Alpha  occ. eigenvalues --   -6.85600  -6.85600  -0.40825  -0.40621  -0.22731
 Alpha  occ. eigenvalues --   -0.22731  -0.22659  -0.22659   0.01527
 Alpha virt. eigenvalues --    0.09519   0.16239   0.17385   0.17385   0.17939
 Alpha virt. eigenvalues --    0.17939   0.18064   0.23586   0.23884   0.32625
 Alpha virt. eigenvalues --    0.32626   0.33232   0.33232   0.33885   0.38351

  Beta  occ. eigenvalues --   -6.85563  -6.85563  -0.39194  -0.39055  -0.22589
  Beta  occ. eigenvalues --   -0.22589  -0.22495  -0.22495
  Beta virt. eigenvalues --    0.04295   0.12586   0.12782   0.13855   0.13855
  Beta virt. eigenvalues --    0.17313   0.17313   0.19062   0.22654   0.24499
  Beta virt. eigenvalues --    0.31341   0.31618   0.31620   0.32246   0.32246

 Mulliken charges and spin densities:
               1          2
     1  B   -0.366340   0.544552
     2  B   -0.366340   0.544552
     3  H   -0.044529  -0.014816
     4  H   -0.044563  -0.014867
     5  H   -0.044570  -0.014869
     6  H   -0.044561  -0.014867
     7  H   -0.044530  -0.014816
     8  H   -0.044567  -0.014869
 Sum of Mulliken charges =  -1.00000   1.00000

 Dipole moment (field-independent basis, Debye):
    X=             -0.0000    Y=             -0.0000    Z=              0.0001  Tot=              0.0001
 Quadrupole moment (field-independent basis, Debye-Ang):
   XX=            -52.0821   YY=            -24.3975   ZZ=            -24.3976
   XY=              0.0000   XZ=              0.0000   YZ=              0.0000

 Normal termination of Gaussian 16 at Mon Apr 21 16:54:51 2025.
