 Gaussian 16, Revision A.03,
 Gaussian 16:  ES64L-G16RevA.03 25-Dec-2016

 --------------------------------------------
 #p opt UM062X/6-311+G** nosymm int=superfine
 --------------------------------------------

 -------------------
 Title Card Required
 -------------------
 Symbolic Z-matrix:
 Charge = -1 Multiplicity = 2

 SCF Done:  E(UM062X) =  -51.8486616158     A.U. after   11 cycles
 SCF Done:  E(UM062X) =  -51.8486752331     A.U. after   13 cycles
 Optimization completed.
    -- Stationary point found.

                          Input orientation:
 ---------------------------------------------------------------------
 Center     Atomic      Atomic             Coordinates (Angstroms)
 Number     Number       Type             X           Y           Z
 ---------------------------------------------------------------------
      1          5           0       -1.922274    0.000000    0.000000
      2          5           0        1.922274    0.000000    0.000000
      3          1           0       -2.593679   -1.012654   -0.000027
      4          1           0        2.593679    1.012654   -0.000502
      5          1           0       -2.593681    1.012653   -0.000020
      6          1           0        2.593681   -1.012653    0.000454
 ---------------------------------------------------------------------

 Alpha  occ. eigenvalues --   -6.87386  -6.87386  -0.37577  -0.37424  -0.21658
 Alpha  occ. eigenvalues --   -0.21562  -0.05605  -0.01183
 Alpha virt. eigenvalues --    0.11938   0.13489   0.15272   0.15916   0.16026
 Alpha virt. eigenvalues --    0.17703   0.20161   0.21066   0.21172   0.23279
 Alpha virt. eigenvalues --    0.32336   0.33701   0.34377   0.37904   0.50401

  Beta  occ. eigenvalues --   -6.86778  -6.86777  -0.36264  -0.36041  -0.20988
  Beta  occ. eigenvalues --   -0.20874   0.01382
  Beta virt. eigenvalues --    0.13123   0.13200   0.14437   0.14498   0.17226
  Beta virt. eigenvalues --    0.18060   0.18184   0.22445   0.22707   0.23914
  Beta virt. eigenvalues --    0.25244   0.32383   0.33812   0.34462   0.38710

 Mulliken charges and spin densities:
               1          2
     1  B   -0.339444   0.491809
     2  B   -0.339444   0.491809
     3  H   -0.080278   0.004095
     4  H   -0.080278   0.004095
     5  H   -0.080278   0.004095
     6  H   -0.080278   0.004095
 Sum of Mulliken charges =  -1.00000   1.00000

 Dipole moment (field-independent basis, Debye):
    X=             -0.0000    Y=             -0.0000    Z=             -0.0002  Tot=              0.0002
 Quadrupole moment (field-independent basis, Debye-Ang):
   XX=            -41.5902   YY=            -24.6178   ZZ=            -19.0365
   XY=              0.0000   XZ=             -0.0000   YZ=              0.0013

 Normal termination of Gaussian 16 at Mon Apr 21 17:25:47 2025.
