 Gaussian 16, Revision A.03,
 Gaussian 16:  ES64L-G16RevA.03 25-Dec-2016

 --------------------------------------------
 #p opt UM062X/6-311+G** nosymm int=superfine
 --------------------------------------------

 -------------------
 Title Card Required
 -------------------
 Symbolic Z-matrix:
 Charge =  0 Multiplicity = 1

 SCF Done:  E(UM062X) =  -474.555421818     A.U. after   12 cycles
 SCF Done:  E(UM062X) =  -474.556122997     A.U. after   11 cycles
 SCF Done:  E(UM062X) =  -474.555859068     A.U. after   11 cycles
 SCF Done:  E(UM062X) =  -474.556176756     A.U. after   10 cycles
 SCF Done:  E(UM062X) =  -474.556177062     A.U. after    9 cycles
 Optimization completed.
    -- Stationary point found.

                          Input orientation:
 ---------------------------------------------------------------------
 Center     Atomic      Atomic             Coordinates (Angstroms)
 Number     Number       Type             X           Y           Z
 ---------------------------------------------------------------------
      1          8           0       -0.914392    0.000000    0.000000
      2         16           0        0.914392    0.000000    0.000000
      3          1           0       -1.141216   -0.936050   -0.022466
      4          1           0        1.023180    0.146316    1.331520
 ---------------------------------------------------------------------

 Alpha  occ. eigenvalues --  -89.95115 -19.66626  -8.31273  -6.23514  -6.23125
 Alpha  occ. eigenvalues --   -6.22624  -1.13831  -0.81788  -0.57266  -0.50835
 Alpha  occ. eigenvalues --   -0.45616  -0.39232  -0.32475
 Alpha virt. eigenvalues --   -0.03577   0.01573   0.04411   0.05197   0.06858
 Alpha virt. eigenvalues --    0.08731   0.16072   0.18723   0.20064   0.22762
 Alpha virt. eigenvalues --    0.28488   0.32100   0.33974   0.35238   0.41196

  Beta  occ. eigenvalues --  -89.95115 -19.66626  -8.31273  -6.23514  -6.23125
  Beta  occ. eigenvalues --   -6.22624  -1.13831  -0.81788  -0.57266  -0.50835
  Beta  occ. eigenvalues --   -0.45616  -0.39232  -0.32475
  Beta virt. eigenvalues --   -0.03577   0.01573   0.04411   0.05197   0.06858
  Beta virt. eigenvalues --    0.08731   0.16072   0.18723   0.20064   0.22762
  Beta virt. eigenvalues --    0.28488   0.32100   0.33974   0.35238   0.41196

 Mulliken charges and spin densities:
               1          2
     1  O   -0.426066   0.000000
     2  S    0.072509   0.000000
     3  H    0.275065  -0.000000
     4  H    0.078492  -0.000000
 Sum of Mulliken charges =  -0.00000   0.00000

 Dipole moment (field-independent basis, Debye):
    X=              0.7850    Y=             -1.5399    Z=              1.0335  Tot=              2.0139
 Quadrupole moment (field-independent basis, Debye-Ang):
   XX=            -18.8613   YY=            -19.7164   ZZ=            -18.3559
   XY=              2.6411   XZ=              1.5064   YZ=              0.5007

 Normal termination of Gaussian 16 at Thu May 15 12:51:48 2025.
