 Gaussian 16, Revision A.03,
 Gaussian 16:  ES64L-G16RevA.03 25-Dec-2016

 --------------------------------------------
 #p opt UM062X/6-311+G** nosymm int=superfine
 --------------------------------------------

 -------------------
 Title Card Required
 -------------------
 Symbolic Z-matrix:
 Charge =  0 Multiplicity = 1

 SCF Done:  E(UM062X) =  -81.7275875659     A.U. after   33 cycles
 SCF Done:  E(UM062X) =  -81.7351989673     A.U. after   16 cycles
 SCF Done:  E(UM062X) =  -81.7532615184     A.U. after   15 cycles
 SCF Done:  E(UM062X) =  -81.7578012766     A.U. after   16 cycles
 SCF Done:  E(UM062X) =  -81.7600707161     A.U. after   13 cycles
 SCF Done:  E(UM062X) =  -81.7610433263     A.U. after   14 cycles
 SCF Done:  E(UM062X) =  -81.7615857313     A.U. after   12 cycles
 SCF Done:  E(UM062X) =  -81.7622498919     A.U. after   14 cycles
 SCF Done:  E(UM062X) =  -81.7630063421     A.U. after   12 cycles
 SCF Done:  E(UM062X) =  -81.7636463109     A.U. after   14 cycles
 SCF Done:  E(UM062X) =  -81.7646970768     A.U. after   12 cycles
 SCF Done:  E(UM062X) =  -81.7656431461     A.U. after   11 cycles
 SCF Done:  E(UM062X) =  -81.7670814824     A.U. after   14 cycles
 SCF Done:  E(UM062X) =  -81.7681172266     A.U. after   12 cycles
 SCF Done:  E(UM062X) =  -81.7689349446     A.U. after   14 cycles
 SCF Done:  E(UM062X) =  -81.7693080957     A.U. after   12 cycles
 SCF Done:  E(UM062X) =  -81.7693780472     A.U. after   11 cycles
 SCF Done:  E(UM062X) =  -81.7693836636     A.U. after   12 cycles
 SCF Done:  E(UM062X) =  -81.7693853648     A.U. after    9 cycles
 Optimization completed.
    -- Stationary point found.

                          Input orientation:
 ---------------------------------------------------------------------
 Center     Atomic      Atomic             Coordinates (Angstroms)
 Number     Number       Type             X           Y           Z
 ---------------------------------------------------------------------
      1          5           0       -1.570399    0.000000    0.000000
      2          7           0        1.570399    0.000000    0.000000
      3          1           0       -1.931868   -1.114902    0.025389
      4          1           0        1.597268    0.804119   -0.635145
      5          1           0       -1.931877    1.114907    0.025022
      6          1           0        1.597271   -0.804214   -0.635025
 ---------------------------------------------------------------------

 Alpha  occ. eigenvalues --  -14.71964  -7.17703  -0.87552  -0.62323  -0.50737
 Alpha  occ. eigenvalues --   -0.48263  -0.33517  -0.25328
 Alpha virt. eigenvalues --   -0.08609  -0.07842   0.00955   0.02915   0.04153
 Alpha virt. eigenvalues --    0.05160   0.10091   0.12241   0.13698   0.17364
 Alpha virt. eigenvalues --    0.20416   0.20924   0.21509   0.29328   0.32618

  Beta  occ. eigenvalues --  -14.71964  -7.17703  -0.87552  -0.62323  -0.50737
  Beta  occ. eigenvalues --   -0.48263  -0.33517  -0.25328
  Beta virt. eigenvalues --   -0.08609  -0.07842   0.00955   0.02915   0.04153
  Beta virt. eigenvalues --    0.05160   0.10091   0.12241   0.13698   0.17364
  Beta virt. eigenvalues --    0.20416   0.20924   0.21509   0.29328   0.32618

 Mulliken charges and spin densities:
               1          2
     1  B    0.175400  -0.000000
     2  N   -0.717606   0.000000
     3  H    0.059888   0.000000
     4  H    0.211215  -0.000000
     5  H    0.059889   0.000000
     6  H    0.211215  -0.000000
 Sum of Mulliken charges =  -0.00000  -0.00000

 Dipole moment (field-independent basis, Debye):
    X=             -4.4919    Y=             -0.0001    Z=             -1.8118  Tot=              4.8435
 Quadrupole moment (field-independent basis, Debye-Ang):
   XX=            -14.2651   YY=            -13.4191   ZZ=            -14.5112
   XY=             -0.0002   XZ=             -3.2430   YZ=             -0.0000

 Normal termination of Gaussian 16 at Mon Apr 21 17:52:58 2025.
