 Gaussian 16, Revision A.03,
 Gaussian 16:  ES64L-G16RevA.03 25-Dec-2016

 ---------------------------------------
 #p UM062X/6-311+G** force int=superfine
 ---------------------------------------

 -------------------
 Title Card Required
 -------------------
 Symbolic Z-matrix:
 Charge =  1 Multiplicity = 2

                         Standard orientation:
 ---------------------------------------------------------------------
 Center     Atomic      Atomic             Coordinates (Angstroms)
 Number     Number       Type             X           Y           Z
 ---------------------------------------------------------------------
      1          6           0        0.378807   -0.705603    1.657024
      2          6           0       -0.378803    0.705608   -1.657022
      3          1           0        0.491944    0.230833   -2.094205
      4          1           0        0.308313   -1.717927    1.276281
      5          1           0       -0.308719    1.718251   -1.277049
      6          1           0       -1.339243    0.204117   -1.685254
      7          1           0       -0.491817   -0.230684    2.094294
      8          1           0        1.339497   -0.204625    1.685922
 ---------------------------------------------------------------------

 SCF Done:  E(UM062X) =  -79.3224682679     A.U. after   10 cycles

 The electronic state is 2-A.
 Alpha  occ. eigenvalues --  -10.84033 -10.84031  -1.02593  -1.02080  -0.73574
 Alpha  occ. eigenvalues --   -0.73574  -0.73373  -0.73373  -0.48790
 Alpha virt. eigenvalues --   -0.37236  -0.13070  -0.10207  -0.09723  -0.09722
 Alpha virt. eigenvalues --   -0.06238  -0.06238  -0.04465  -0.03126  -0.00611
 Alpha virt. eigenvalues --   -0.00608   0.01294   0.01296   0.03224   0.08336

  Beta  occ. eigenvalues --  -10.83820 -10.83820  -0.99924  -0.99584  -0.73065
  Beta  occ. eigenvalues --   -0.73064  -0.72844  -0.72843
  Beta virt. eigenvalues --   -0.32794  -0.26519  -0.16043  -0.11074  -0.11074
  Beta virt. eigenvalues --   -0.10177  -0.06270  -0.06270  -0.05003  -0.02190
  Beta virt. eigenvalues --   -0.00935  -0.00932   0.01569   0.01571   0.03180

 Mulliken charges and spin densities:
               1          2
     1  C   -0.259174   0.558510
     2  C   -0.259174   0.558510
     3  H    0.253072  -0.019507
     4  H    0.253040  -0.019501
     5  H    0.253062  -0.019502
     6  H    0.253040  -0.019502
     7  H    0.253073  -0.019507
     8  H    0.253060  -0.019502
 Sum of Mulliken charges =   1.00000   1.00000

 Dipole moment (field-independent basis, Debye):
    X=             -0.0000    Y=             -0.0001    Z=             -0.0000  Tot=              0.0001
 Quadrupole moment (field-independent basis, Debye-Ang):
   XX=            -10.4148   YY=             -8.7220   ZZ=              2.0171
   XY=             -1.2760   XZ=              2.9970   YZ=             -5.5843

 Normal termination of Gaussian 16 at Wed Nov 13 13:05:06 2024.
