 Gaussian 16, Revision A.03,
 Gaussian 16:  ES64L-G16RevA.03 25-Dec-2016

 --------------------------------------------
 #p opt UM062X/6-311+G** nosymm int=superfine
 --------------------------------------------

 -------------------
 Title Card Required
 -------------------
 Symbolic Z-matrix:
 Charge =  0 Multiplicity = 1

 SCF Done:  E(UM062X) =  -683.653361837     A.U. after   12 cycles
 SCF Done:  E(UM062X) =  -683.654279933     A.U. after   10 cycles
 SCF Done:  E(UM062X) =  -683.654684590     A.U. after   10 cycles
 SCF Done:  E(UM062X) =  -683.654684950     A.U. after   10 cycles
 Optimization completed.
    -- Stationary point found.

                          Input orientation:
 ---------------------------------------------------------------------
 Center     Atomic      Atomic             Coordinates (Angstroms)
 Number     Number       Type             X           Y           Z
 ---------------------------------------------------------------------
      1         15           0       -1.734490    0.000000    0.000000
      2         15           0        1.734490    0.000000    0.000000
      3          1           0       -1.645860   -1.420298    0.000000
      4          1           0        1.645860    1.420298    0.000000
 ---------------------------------------------------------------------

 Alpha  occ. eigenvalues --  -78.08468 -78.08468  -6.90434  -6.90434  -5.01845
 Alpha  occ. eigenvalues --   -5.01845  -5.01842  -5.01842  -5.01648  -5.01648
 Alpha  occ. eigenvalues --   -0.69143  -0.67431  -0.40651  -0.40162  -0.27992
 Alpha  occ. eigenvalues --   -0.25161
 Alpha virt. eigenvalues --   -0.15710  -0.12355   0.01988   0.03111   0.03760
 Alpha virt. eigenvalues --    0.04657   0.05303   0.05896   0.06562   0.08228
 Alpha virt. eigenvalues --    0.08699   0.12091   0.27689   0.29868   0.30173

  Beta  occ. eigenvalues --  -78.08468 -78.08468  -6.90434  -6.90434  -5.01845
  Beta  occ. eigenvalues --   -5.01845  -5.01842  -5.01842  -5.01648  -5.01648
  Beta  occ. eigenvalues --   -0.69143  -0.67431  -0.40651  -0.40162  -0.27992
  Beta  occ. eigenvalues --   -0.25161
  Beta virt. eigenvalues --   -0.15710  -0.12355   0.01988   0.03111   0.03760
  Beta virt. eigenvalues --    0.04657   0.05303   0.05896   0.06562   0.08228
  Beta virt. eigenvalues --    0.08699   0.12091   0.27689   0.29868   0.30173

 Mulliken charges and spin densities:
               1          2
     1  P    0.005726  -0.000000
     2  P    0.005726   0.000000
     3  H   -0.005726   0.000000
     4  H   -0.005726  -0.000000
 Sum of Mulliken charges =  -0.00000  -0.00000

 Dipole moment (field-independent basis, Debye):
    X=              0.0000    Y=             -0.0000    Z=              0.0000  Tot=              0.0000
 Quadrupole moment (field-independent basis, Debye-Ang):
   XX=            -27.0125   YY=            -28.3728   ZZ=            -30.8177
   XY=              2.9206   XZ=              0.0000   YZ=              0.0000

 Normal termination of Gaussian 16 at Mon Apr 21 21:12:26 2025.
