 Gaussian 16, Revision A.03,
 Gaussian 16:  ES64L-G16RevA.03 25-Dec-2016

 --------------------------------------------
 #p opt UM062X/6-311+G** nosymm int=superfine
 --------------------------------------------

 -------------------
 Title Card Required
 -------------------
 Symbolic Z-matrix:
 Charge =  0 Multiplicity = 1

 SCF Done:  E(UM062X) =  -582.378599567     A.U. after   10 cycles
 SCF Done:  E(UM062X) =  -582.380871071     A.U. after    9 cycles
 SCF Done:  E(UM062X) =  -582.381483535     A.U. after    9 cycles
 Optimization completed.
    -- Stationary point found.

                          Input orientation:
 ---------------------------------------------------------------------
 Center     Atomic      Atomic             Coordinates (Angstroms)
 Number     Number       Type             X           Y           Z
 ---------------------------------------------------------------------
      1         14           0       -2.269819    0.000000    0.000000
      2         14           0        2.269819    0.000000    0.000000
      3          1           0        2.674711   -1.418888   -0.000055
      4          1           0       -2.674660   -0.709354    1.228869
      5          1           0        2.674796    0.709526   -1.228725
      6          1           0        2.674669    0.709407    1.228835
      7          1           0       -2.674714    1.418887   -0.000110
      8          1           0       -2.674803   -0.709581   -1.228691
 ---------------------------------------------------------------------

 Alpha  occ. eigenvalues --  -67.01881 -67.01881  -5.56775  -5.56774  -3.88008
 Alpha  occ. eigenvalues --   -3.88008  -3.87770  -3.87770  -3.87770  -3.87770
 Alpha  occ. eigenvalues --   -0.61152  -0.60850  -0.42095  -0.42095  -0.42028
 Alpha  occ. eigenvalues --   -0.42028  -0.21958
 Alpha virt. eigenvalues --   -0.10667   0.02051   0.02937   0.02937   0.03279
 Alpha virt. eigenvalues --    0.05071   0.05071   0.06060   0.06739   0.07469
 Alpha virt. eigenvalues --    0.07469   0.08630   0.08630   0.11935   0.15871

  Beta  occ. eigenvalues --  -67.01881 -67.01881  -5.56775  -5.56774  -3.88008
  Beta  occ. eigenvalues --   -3.88008  -3.87770  -3.87770  -3.87770  -3.87770
  Beta  occ. eigenvalues --   -0.61152  -0.60850  -0.42095  -0.42095  -0.42028
  Beta  occ. eigenvalues --   -0.42028  -0.21958
  Beta virt. eigenvalues --   -0.10667   0.02051   0.02937   0.02937   0.03279
  Beta virt. eigenvalues --    0.05071   0.05071   0.06060   0.06739   0.07469
  Beta virt. eigenvalues --    0.07469   0.08630   0.08630   0.11935   0.15871

 Mulliken charges and spin densities:
               1          2
     1  Si   0.267384  -0.000000
     2  Si   0.267384   0.000000
     3  H   -0.089126   0.000000
     4  H   -0.089129  -0.000000
     5  H   -0.089129   0.000000
     6  H   -0.089128   0.000000
     7  H   -0.089127  -0.000000
     8  H   -0.089129  -0.000000
 Sum of Mulliken charges =  -0.00000   0.00000

 Dipole moment (field-independent basis, Debye):
    X=              0.0000    Y=             -0.0000    Z=              0.0000  Tot=              0.0000
 Quadrupole moment (field-independent basis, Debye-Ang):
   XX=            -28.0795   YY=            -32.1606   ZZ=            -32.1607
   XY=             -0.0004   XZ=              0.0000   YZ=              0.0000

 Normal termination of Gaussian 16 at Mon Apr 21 20:16:03 2025.
