 Gaussian 16, Revision A.03,
 Gaussian 16:  ES64L-G16RevA.03 25-Dec-2016

 ---------------------------------------
 #p UM062X/6-311+G** force int=superfine
 ---------------------------------------

 -------------------
 Title Card Required
 -------------------
 Symbolic Z-matrix:
 Charge =  0 Multiplicity = 1

                         Standard orientation:
 ---------------------------------------------------------------------
 Center     Atomic      Atomic             Coordinates (Angstroms)
 Number     Number       Type             X           Y           Z
 ---------------------------------------------------------------------
      1          6           0        0.977390   -0.000001   -0.000000
      2          6           0       -0.977390    0.000001    0.000000
      3          1           0       -1.280209   -0.475835    0.927705
      4          1           0        1.280212    0.565525    0.875922
      5          1           0       -1.280213   -0.565524   -0.875921
      6          1           0       -1.280254    1.041320   -0.051780
      7          1           0        1.280209    0.475835   -0.927705
      8          1           0        1.280256   -1.041318    0.051781
 ---------------------------------------------------------------------

 SCF Done:  E(UM062X) =  -79.7511342406     A.U. after    9 cycles

 The electronic state is 1-A.
 Alpha  occ. eigenvalues --  -10.54307 -10.54297  -0.79532  -0.72252  -0.48515
 Alpha  occ. eigenvalues --   -0.48514  -0.43900  -0.43900  -0.34337
 Alpha virt. eigenvalues --    0.02306   0.03030   0.05639   0.05639   0.08530
 Alpha virt. eigenvalues --    0.08530   0.09410   0.12378   0.14303   0.18242
 Alpha virt. eigenvalues --    0.18243   0.21969   0.21969   0.24279   0.27149

  Beta  occ. eigenvalues --  -10.54307 -10.54297  -0.79532  -0.72252  -0.48515
  Beta  occ. eigenvalues --   -0.48514  -0.43900  -0.43900  -0.34337
  Beta virt. eigenvalues --    0.02306   0.03030   0.05639   0.05639   0.08530
  Beta virt. eigenvalues --    0.08530   0.09410   0.12378   0.14303   0.18242
  Beta virt. eigenvalues --    0.18243   0.21969   0.21969   0.24279   0.27149

 Mulliken charges and spin densities:
               1          2
     1  C   -0.495201  -0.000000
     2  C   -0.495201   0.000000
     3  H    0.165067  -0.000000
     4  H    0.165067   0.000000
     5  H    0.165067  -0.000000
     6  H    0.165067  -0.000000
     7  H    0.165067   0.000000
     8  H    0.165067   0.000000
 Sum of Mulliken charges =  -0.00000   0.00000

 Dipole moment (field-independent basis, Debye):
    X=              0.0000    Y=             -0.0000    Z=              0.0000  Tot=              0.0000
 Quadrupole moment (field-independent basis, Debye-Ang):
   XX=            -15.5974   YY=            -14.8951   ZZ=            -14.8952
   XY=             -0.0001   XZ=              0.0000   YZ=             -0.0000

 Normal termination of Gaussian 16 at Tue Nov 19 12:49:51 2024.
