 Gaussian 16, Revision A.03,
 Gaussian 16:  ES64L-G16RevA.03 25-Dec-2016

 --------------------------------------------
 #p opt UM062X/6-311+G** nosymm int=superfine
 --------------------------------------------

 -------------------
 Title Card Required
 -------------------
 Symbolic Z-matrix:
 Charge =  0 Multiplicity = 1

 SCF Done:  E(UM062X) =  -111.850833022     A.U. after   12 cycles

 Alpha  occ. eigenvalues --  -14.75381 -14.75354  -1.06275  -0.84791  -0.58105
 Alpha  occ. eigenvalues --   -0.56765  -0.52676  -0.32735  -0.32057
 Alpha virt. eigenvalues --    0.04233   0.05831   0.09322   0.10734   0.14031
 Alpha virt. eigenvalues --    0.14389   0.15264   0.17916   0.19893   0.24336
 Alpha virt. eigenvalues --    0.24940   0.25953   0.29200   0.53819   0.57677

  Beta  occ. eigenvalues --  -14.75381 -14.75354  -1.06275  -0.84791  -0.58105
  Beta  occ. eigenvalues --   -0.56765  -0.52676  -0.32735  -0.32057
  Beta virt. eigenvalues --    0.04233   0.05831   0.09322   0.10734   0.14031
  Beta virt. eigenvalues --    0.14389   0.15264   0.17916   0.19893   0.24336
  Beta virt. eigenvalues --    0.24940   0.25953   0.29200   0.53819   0.57677

 Mulliken charges and spin densities:
               1          2
     1  N   -0.503573  -0.000000
     2  N   -0.503573   0.000000
     3  H    0.266475  -0.000000
     4  H    0.266475  -0.000000
     5  H    0.237098  -0.000000
     6  H    0.237098  -0.000000
 Sum of Mulliken charges =  -0.00000  -0.00000

 Dipole moment (field-independent basis, Debye):
    X=             -0.0000    Y=              0.0007    Z=             -2.0624  Tot=              2.0624
 Quadrupole moment (field-independent basis, Debye-Ang):
   XX=            -12.0680   YY=            -13.8383   ZZ=            -13.9023
   XY=              2.6179   XZ=              0.0009   YZ=              0.0000

 Optimization completed.
    -- Stationary point found.

                          Input orientation:
 ---------------------------------------------------------------------
 Center     Atomic      Atomic             Coordinates (Angstroms)
 Number     Number       Type             X           Y           Z
 ---------------------------------------------------------------------
      1          7           0       -0.697150    0.142298    0.215917
      2          7           0        0.697151   -0.142450    0.215817
      3          1           0       -1.191886   -0.701805    0.473781
      4          1           0        1.191885    0.701472    0.474274
      5          1           0       -1.034905    0.451058   -0.690023
      6          1           0        1.034905   -0.450573   -0.690339
 ---------------------------------------------------------------------

 Normal termination of Gaussian 16 at Wed Feb 26 15:23:24 2025.
