 Gaussian 16, Revision A.03,
 Gaussian 16:  ES64L-G16RevA.03 25-Dec-2016

 --------------------------------------------
 #p opt UM062X/6-311+G** nosymm int=superfine
 --------------------------------------------

 -------------------
 Title Card Required
 -------------------
 Symbolic Z-matrix:
 Charge =  0 Multiplicity = 1

 SCF Done:  E(UM062X) =  -75.3581074070     A.U. after    9 cycles
 SCF Done:  E(UM062X) =  -75.7377452697     A.U. after    9 cycles
 SCF Done:  E(UM062X) =  -75.9806018489     A.U. after   11 cycles
 SCF Done:  E(UM062X) =  -75.9886334555     A.U. after   10 cycles
 SCF Done:  E(UM062X) =  -75.9913456716     A.U. after    9 cycles
 Optimization completed.
    -- Stationary point found.

                          Input orientation:
 ---------------------------------------------------------------------
 Center     Atomic      Atomic             Coordinates (Angstroms)
 Number     Number       Type             X           Y           Z
 ---------------------------------------------------------------------
      1          6           0       -0.359109    0.000000    0.000000
      2          6           0        0.359109    0.000000    0.000000
      3          1           0       -1.414298   -0.000000   -0.000000
      4          1           0        1.414294   -0.000000    0.000000
 ---------------------------------------------------------------------

 Alpha  occ. eigenvalues --  -10.58860 -10.43052  -0.84175  -0.56542  -0.51780
 Alpha  occ. eigenvalues --   -0.51045  -0.51045
 Alpha virt. eigenvalues --    0.02984   0.03941   0.06493   0.06493   0.08776
 Alpha virt. eigenvalues --    0.08776   0.10370   0.17210   0.24226   0.25316
 Alpha virt. eigenvalues --    0.28929   0.28929   0.45952   0.49510   0.49510

  Beta  occ. eigenvalues --  -10.58860 -10.43052  -0.84175  -0.56542  -0.51780
  Beta  occ. eigenvalues --   -0.51045  -0.51045
  Beta virt. eigenvalues --    0.02984   0.03941   0.06493   0.06493   0.08776
  Beta virt. eigenvalues --    0.08776   0.10370   0.17210   0.24226   0.25316
  Beta virt. eigenvalues --    0.28929   0.28929   0.45952   0.49510   0.49510

 Mulliken charges and spin densities:
               1          2
     1  C   -0.082833   0.000000
     2  C   -0.082839  -0.000000
     3  H    0.082837  -0.000000
     4  H    0.082835  -0.000000
 Sum of Mulliken charges =  -0.00000   0.00000

 Dipole moment (field-independent basis, Debye):
    X=             -0.0000    Y=             -0.0000    Z=              0.0000  Tot=              0.0000
 Quadrupole moment (field-independent basis, Debye-Ang):
   XX=             -8.3526   YY=            -11.0381   ZZ=            -11.0381
   XY=              0.0000   XZ=              0.0000   YZ=             -0.0000

 Normal termination of Gaussian 16 at Tue Dec  3 19:51:08 2024.
