 Gaussian 16, Revision A.03,
 Gaussian 16:  ES64L-G16RevA.03 25-Dec-2016

 --------------------------------------------
 #p opt UM062X/6-311+G** nosymm int=superfine
 --------------------------------------------

 -------------------
 Title Card Required
 -------------------
 Symbolic Z-matrix:
 Charge =  0 Multiplicity = 1

 SCF Done:  E(UM062X) =  -79.7340323729     A.U. after    8 cycles
 SCF Done:  E(UM062X) =  -79.7519505313     A.U. after    8 cycles
 SCF Done:  E(UM062X) =  -79.7579811880     A.U. after    8 cycles
 SCF Done:  E(UM062X) =  -79.7579988962     A.U. after    7 cycles
 Optimization completed.
    -- Stationary point found.

                          Input orientation:
 ---------------------------------------------------------------------
 Center     Atomic      Atomic             Coordinates (Angstroms)
 Number     Number       Type             X           Y           Z
 ---------------------------------------------------------------------
      1          6           0       -0.954434    0.000000    0.000000
      2          6           0        0.954531    0.000000    0.000000
      3          1           0        1.266987   -0.900298    0.520972
      4          1           0       -1.266890   -0.901314   -0.519215
      5          1           0        1.266989    0.901314    0.519214
      6          1           0        1.267015   -0.001015   -1.040158
      7          1           0       -1.266889    0.900298   -0.520972
      8          1           0       -1.266919    0.001015    1.040157
 ---------------------------------------------------------------------

 Alpha  occ. eigenvalues --  -10.54123 -10.54111  -0.79893  -0.72040  -0.48605
 Alpha  occ. eigenvalues --   -0.48604  -0.43596  -0.43595  -0.35101
 Alpha virt. eigenvalues --    0.02289   0.03249   0.05640   0.05640   0.08556
 Alpha virt. eigenvalues --    0.08557   0.09351   0.12915   0.15065   0.18274
 Alpha virt. eigenvalues --    0.18274   0.21918   0.21918   0.24266   0.27255

  Beta  occ. eigenvalues --  -10.54123 -10.54111  -0.79893  -0.72040  -0.48605
  Beta  occ. eigenvalues --   -0.48604  -0.43596  -0.43595  -0.35101
  Beta virt. eigenvalues --    0.02289   0.03249   0.05640   0.05640   0.08556
  Beta virt. eigenvalues --    0.08557   0.09351   0.12915   0.15065   0.18274
  Beta virt. eigenvalues --    0.18274   0.21918   0.21918   0.24266   0.27255

 Mulliken charges and spin densities:
               1          2
     1  C   -0.493324   0.000000
     2  C   -0.493324  -0.000000
     3  H    0.164442  -0.000000
     4  H    0.164442  -0.000000
     5  H    0.164442  -0.000000
     6  H    0.164440  -0.000000
     7  H    0.164442  -0.000000
     8  H    0.164441  -0.000000
 Sum of Mulliken charges =  -0.00000   0.00000

 Dipole moment (field-independent basis, Debye):
    X=              0.0000    Y=              0.0000    Z=              0.0000  Tot=              0.0000
 Quadrupole moment (field-independent basis, Debye-Ang):
   XX=            -15.6005   YY=            -14.9060   ZZ=            -14.9060
   XY=              0.0000   XZ=             -0.0000   YZ=             -0.0000

 Normal termination of Gaussian 16 at Tue Nov 19 12:02:59 2024.
