 Gaussian 16, Revision A.03,
 Gaussian 16:  ES64L-G16RevA.03 25-Dec-2016

 --------------------------------------------
 #p opt UM062X/6-311+G** nosymm int=superfine
 --------------------------------------------

 -------------------
 Title Card Required
 -------------------
 Symbolic Z-matrix:
 Charge =  1 Multiplicity = 2

 SCF Done:  E(UM062X) =  -80.2007278448     A.U. after   25 cycles
 SCF Done:  E(UM062X) =  -80.2012544709     A.U. after   13 cycles
 SCF Done:  E(UM062X) =  -80.2014899675     A.U. after   13 cycles
 SCF Done:  E(UM062X) =  -80.2015020090     A.U. after   12 cycles
 SCF Done:  E(UM062X) =  -80.2015071729     A.U. after   11 cycles
 SCF Done:  E(UM062X) =  -80.2015369155     A.U. after   13 cycles
 SCF Done:  E(UM062X) =  -80.2015438349     A.U. after   12 cycles
 SCF Done:  E(UM062X) =  -80.2015443558     A.U. after   10 cycles
 Optimization completed.
    -- Stationary point found.

                          Input orientation:
 ---------------------------------------------------------------------
 Center     Atomic      Atomic             Coordinates (Angstroms)
 Number     Number       Type             X           Y           Z
 ---------------------------------------------------------------------
      1          5           0       -1.155503   -0.009677    0.000000
      2          7           0        1.150500    0.006566    0.000000
      3          1           0       -1.731144   -1.051478    0.065307
      4          1           0        1.819557    0.798931   -0.050332
 ---------------------------------------------------------------------

 Alpha  occ. eigenvalues --  -15.09225  -7.48681  -1.20269  -0.83260  -0.74756
 Alpha  occ. eigenvalues --   -0.67031  -0.67012
 Alpha virt. eigenvalues --   -0.36588  -0.30292  -0.27228  -0.14211  -0.11111
 Alpha virt. eigenvalues --   -0.09074  -0.08843  -0.06733  -0.04851  -0.01850
 Alpha virt. eigenvalues --   -0.00985   0.01755   0.05563   0.11525   0.15584

  Beta  occ. eigenvalues --  -15.06856  -7.49817  -1.08023  -0.85950  -0.71191
  Beta  occ. eigenvalues --   -0.61941
  Beta virt. eigenvalues --   -0.34379  -0.33702  -0.28327  -0.25128  -0.14185
  Beta virt. eigenvalues --   -0.11454  -0.09283  -0.09174  -0.06009  -0.04214
  Beta virt. eigenvalues --   -0.01128  -0.00846   0.02325   0.03853   0.15171

 Mulliken charges and spin densities:
               1          2
     1  B    0.578223  -0.783843
     2  N   -0.077791   1.941578
     3  H    0.183427  -0.101098
     4  H    0.316142  -0.056637
 Sum of Mulliken charges =   1.00000   1.00000

 Dipole moment (field-independent basis, Debye):
    X=             -2.0289    Y=              0.6580    Z=             -0.0440  Tot=              2.1334
 Quadrupole moment (field-independent basis, Debye-Ang):
   XX=              1.2973   YY=             -9.5737   ZZ=            -10.1283
   XY=              3.4841   XZ=             -0.2164   YZ=             -0.0343

 Normal termination of Gaussian 16 at Mon Apr 21 22:17:15 2025.
