 Gaussian 16, Revision A.03,
 Gaussian 16:  ES64L-G16RevA.03 25-Dec-2016

 ---------------------------------------------------
 #p UM062X/6-311+G** force int=superfine pop=saveNBO
 ---------------------------------------------------

 -------------------
 Title Card Required
 -------------------
 Symbolic Z-matrix:
 Charge =  1 Multiplicity = 2

                         Standard orientation:
 ---------------------------------------------------------------------
 Center     Atomic      Atomic             Coordinates (Angstroms)
 Number     Number       Type             X           Y           Z
 ---------------------------------------------------------------------
      1          5           0       -0.000000   -0.000000    0.735308
      2          7           0        0.000000    0.000000   -0.570161
      3          1           0        0.000000    0.000000    1.903263
      4          1           0        0.000000    0.000000   -1.588677
 ---------------------------------------------------------------------

 SCF Done:  E(UM062X) =  -80.3804040046     A.U. after   12 cycles

 Unable to determine electronic state:  an orbital has unidentified symmetry.
 Alpha  occ. eigenvalues --  -15.12150  -7.43678  -1.30659  -0.97317  -0.80694
 Alpha  occ. eigenvalues --   -0.75970  -0.71747
 Alpha virt. eigenvalues --   -0.25551  -0.24079  -0.17768  -0.12977  -0.11146
 Alpha virt. eigenvalues --   -0.10764  -0.10300  -0.06512  -0.01847  -0.01438
 Alpha virt. eigenvalues --    0.02339   0.06121   0.15001   0.18198   0.18234

  Beta  occ. eigenvalues --  -15.11267  -7.43692  -1.24067  -0.95099  -0.80451
  Beta  occ. eigenvalues --   -0.68958
  Beta virt. eigenvalues --   -0.45191  -0.23295  -0.20800  -0.17797  -0.12713
  Beta virt. eigenvalues --   -0.11074  -0.10305  -0.10173  -0.05959  -0.01428
  Beta virt. eigenvalues --   -0.01369   0.01104   0.06520   0.15290   0.17278

 Mulliken charges and spin densities:
               1          2
     1  B    0.475017   0.117961
     2  N   -0.056801   0.922913
     3  H    0.179510  -0.012523
     4  H    0.402273  -0.028351
 Sum of Mulliken charges =   1.00000   1.00000

 Dipole moment (field-independent basis, Debye):
    X=             -0.0000    Y=             -0.0000    Z=              0.3432  Tot=              0.3432
 Quadrupole moment (field-independent basis, Debye-Ang):
   XX=             -9.1945   YY=            -10.8619   ZZ=             -1.2058
   XY=             -0.0000   XZ=             -0.0000   YZ=              0.0000

 Summary of Natural Population Analysis:

                                       Natural Population
                Natural  -----------------------------------------------
    Atom  No    Charge         Core      Valence    Rydberg      Total
 -----------------------------------------------------------------------
      B    1    0.56718      0.99968     0.92851    0.00463     1.93282
      N    2    0.20774      0.99974     2.29032    0.00220     3.29226
      H    3    0.00260      0.00000     0.49683    0.00056     0.49740
      H    4    0.22247      0.00000     0.27655    0.00098     0.27753
 =======================================================================
   * Total *    1.00000      1.99942     3.99221    0.00837     6.00000

 Optimization completed.
    -- Stationary point found.
 Normal termination of Gaussian 16 at Wed Apr 16 01:26:58 2025.
