 Gaussian 16, Revision A.03,
 Gaussian 16:  ES64L-G16RevA.03 25-Dec-2016

 --------------------------------------------
 #p opt UM062X/6-311+G** nosymm int=superfine
 --------------------------------------------

 -------------------
 Title Card Required
 -------------------
 Symbolic Z-matrix:
 Charge =  1 Multiplicity = 2

 SCF Done:  E(UM062X) =  -79.1756469827     A.U. after   20 cycles
 SCF Done:  E(UM062X) =  -79.2499769346     A.U. after   17 cycles
 SCF Done:  E(UM062X) =  -79.3195414297     A.U. after   16 cycles
 SCF Done:  E(UM062X) =  -79.3533170219     A.U. after   11 cycles
 SCF Done:  E(UM062X) =  -79.3549329931     A.U. after   10 cycles
 SCF Done:  E(UM062X) =  -79.3550132719     A.U. after    9 cycles
 SCF Done:  E(UM062X) =  -79.3550275792     A.U. after    9 cycles
 SCF Done:  E(UM062X) =  -79.3550292809     A.U. after    8 cycles
 Optimization completed.
    -- Stationary point found.

                          Input orientation:
 ---------------------------------------------------------------------
 Center     Atomic      Atomic             Coordinates (Angstroms)
 Number     Number       Type             X           Y           Z
 ---------------------------------------------------------------------
      1          6           0       -0.656269    0.000000    0.000000
      2          6           0        0.656269    0.000000    0.000000
      3          1           0        1.200438   -0.812127    0.475290
      4          1           0       -1.116219   -1.007850   -0.285048
      5          1           0        1.116252    1.007884    0.284791
      6          1           0        1.116681    0.246367   -1.017582
      7          1           0       -1.200440    0.812170   -0.475215
      8          1           0       -1.116719   -0.246620    1.017483
 ---------------------------------------------------------------------

 Alpha  occ. eigenvalues --  -10.81829 -10.81711  -1.19529  -0.99954  -0.83044
 Alpha  occ. eigenvalues --   -0.78826  -0.78431  -0.69351  -0.63576
 Alpha virt. eigenvalues --   -0.16187  -0.13722  -0.12516  -0.11960  -0.08558
 Alpha virt. eigenvalues --   -0.07238  -0.06757  -0.06707  -0.05204  -0.02177
 Alpha virt. eigenvalues --   -0.01079  -0.00659   0.06060   0.06459   0.11311

  Beta  occ. eigenvalues --  -10.81748 -10.81621  -1.17802  -0.96214  -0.82056
  Beta  occ. eigenvalues --   -0.76976  -0.72757  -0.67905
  Beta virt. eigenvalues --   -0.43582  -0.16220  -0.13758  -0.12226  -0.11987
  Beta virt. eigenvalues --   -0.08579  -0.06948  -0.06711  -0.05007  -0.04906
  Beta virt. eigenvalues --   -0.01814  -0.00924  -0.00496   0.06182   0.06939

 Mulliken charges and spin densities:
               1          2
     1  C   -0.404072   0.163160
     2  C   -0.404081   0.163152
     3  H    0.255510  -0.010055
     4  H    0.324331   0.173690
     5  H    0.324323   0.173633
     6  H    0.324243   0.173265
     7  H    0.255511  -0.010056
     8  H    0.324235   0.173210
 Sum of Mulliken charges =   1.00000   1.00000

 Dipole moment (field-independent basis, Debye):
    X=             -0.0000    Y=             -0.0003    Z=             -0.0004  Tot=              0.0005
 Quadrupole moment (field-independent basis, Debye-Ang):
   XX=             -6.7437   YY=            -10.0197   ZZ=            -10.8012
   XY=              1.8178   XZ=             -1.0597   YZ=             -0.6915

 Normal termination of Gaussian 16 at Sat Nov 16 15:40:46 2024.
