 Gaussian 16, Revision A.03,
 Gaussian 16:  ES64L-G16RevA.03 25-Dec-2016

 --------------------------------------------
 #p opt UM062X/6-311+G** nosymm int=superfine
 --------------------------------------------

 -------------------
 Title Card Required
 -------------------
 Symbolic Z-matrix:
 Charge =  1 Multiplicity = 2

 SCF Done:  E(UM062X) =  -92.5951586666     A.U. after   20 cycles
 SCF Done:  E(UM062X) =  -92.5956364775     A.U. after   15 cycles
 SCF Done:  E(UM062X) =  -92.5956376245     A.U. after   11 cycles
 Optimization completed.
    -- Stationary point found.

                          Input orientation:
 ---------------------------------------------------------------------
 Center     Atomic      Atomic             Coordinates (Angstroms)
 Number     Number       Type             X           Y           Z
 ---------------------------------------------------------------------
      1          6           0       -1.126540    0.000000    0.000000
      2          7           0        1.126540    0.000000    0.000000
      3          1           0       -2.249808   -0.000000   -0.000000
 ---------------------------------------------------------------------

 Alpha  occ. eigenvalues --  -15.19668 -11.08814  -1.14935  -1.07632  -0.75231
 Alpha  occ. eigenvalues --   -0.69340  -0.60617
 Alpha virt. eigenvalues --   -0.44551  -0.43098  -0.39250  -0.16364  -0.11362
 Alpha virt. eigenvalues --   -0.10261  -0.09802  -0.05530  -0.01902  -0.01333
 Alpha virt. eigenvalues --    0.00269   0.07996   0.23231   0.29429   0.29435

  Beta  occ. eigenvalues --  -15.18429 -11.08767  -1.09519  -1.05534  -0.74757
  Beta  occ. eigenvalues --   -0.59848
  Beta virt. eigenvalues --   -0.43119  -0.42827  -0.36320  -0.33269  -0.16551
  Beta virt. eigenvalues --   -0.11734  -0.10090  -0.10059  -0.05823  -0.01756
  Beta virt. eigenvalues --   -0.01631   0.00353   0.06423   0.23375   0.29388

 Mulliken charges and spin densities:
               1          2
     1  C    0.311724   0.120724
     2  N    0.367268   0.889777
     3  H    0.321008  -0.010500
 Sum of Mulliken charges =   1.00000   1.00000

 Dipole moment (field-independent basis, Debye):
    X=             -4.5929    Y=             -0.0000    Z=             -0.0000  Tot=              4.5929
 Quadrupole moment (field-independent basis, Debye-Ang):
   XX=              3.7418   YY=            -10.2653   ZZ=            -10.5991
   XY=              0.0000   XZ=             -0.0000   YZ=             -0.9646

 Normal termination of Gaussian 16 at Mon Apr 21 18:35:23 2025.
