 Gaussian 16, Revision A.03,
 Gaussian 16:  ES64L-G16RevA.03 25-Dec-2016

 ---------------------------------------------------------------------
 #p opt UM062X/6-311+G** nosymm int=superfine SCF=(Tight,MaxCycle=200)
 ---------------------------------------------------------------------

 -------------------
 Title Card Required
 -------------------
 Symbolic Z-matrix:
 Charge =  1 Multiplicity = 2

 SCF Done:  E(UM062X) =  -1614.74585300     A.U. after   24 cycles
 SCF Done:  E(UM062X) =  -1615.02167712     A.U. after   20 cycles
 SCF Done:  E(UM062X) =  -1615.40037978     A.U. after   20 cycles
 SCF Done:  E(UM062X) =  -1615.53997894     A.U. after   21 cycles
 SCF Done:  E(UM062X) =  -1615.54679421     A.U. after   20 cycles
 SCF Done:  E(UM062X) =  -1615.54999516     A.U. after   24 cycles
 SCF Done:  E(UM062X) =  -1615.54460106     A.U. after   25 cycles
 SCF Done:  E(UM062X) =  -1615.55332736     A.U. after   21 cycles
 SCF Done:  E(UM062X) =  -1615.55421377     A.U. after   22 cycles
 SCF Done:  E(UM062X) =  -1615.55040973     A.U. after   23 cycles
 SCF Done:  E(UM062X) =  -1615.55500385     A.U. after   21 cycles
 SCF Done:  E(UM062X) =  -1615.55576780     A.U. after   21 cycles
 SCF Done:  E(UM062X) =  -1615.55582260     A.U. after   18 cycles
 SCF Done:  E(UM062X) =  -1615.55583471     A.U. after   19 cycles
 SCF Done:  E(UM062X) =  -1615.55584217     A.U. after   18 cycles
 SCF Done:  E(UM062X) =  -1615.55584289     A.U. after   14 cycles
 SCF Done:  E(UM062X) =  -1615.55584331     A.U. after   16 cycles
 SCF Done:  E(UM062X) =  -1615.55584347     A.U. after   14 cycles
 SCF Done:  E(UM062X) =  -1615.55584355     A.U. after   15 cycles
 Optimization completed.
    -- Stationary point found.

                          Input orientation:
 ---------------------------------------------------------------------
 Center     Atomic      Atomic             Coordinates (Angstroms)
 Number     Number       Type             X           Y           Z
 ---------------------------------------------------------------------
      1          6           0       -0.970168    0.000000    0.000000
      2          6           0        0.970168    0.000000    0.000000
      3          6           0        0.000023   -2.189638    0.000639
      4          6           0       -0.000039   -3.552828    0.000630
      5          6           0       -1.115275   -4.327436    0.360086
      6          6           0       -1.150508   -1.473014    0.347196
      7          6           0        0.645643   -5.724910   -0.212456
      8          1           0        1.238410   -6.606813   -0.409546
      9          6           0       -1.401810    0.928515    1.091677
     10          6           0       -0.647593   -5.724849    0.208428
     11          1           0       -1.241089   -6.606707    0.403519
     12          6           0        1.114434   -4.327550   -0.361094
     13          6           0        1.150410   -1.473090   -0.346855
     14          6           0        1.607385    2.335717   -0.977964
     15          6           0       -1.403979    0.191237   -1.444492
     16          6           0       -1.859139    3.096817    2.150519
     17          1           0       -2.015638    4.163362    2.037044
     18          6           0       -2.251456   -3.634414    0.732913
     19          1           0       -3.159191   -4.149132    1.027406
     20          6           0       -1.524834    1.440447   -2.117333
     21          6           0        2.266041   -2.198205   -0.715460
     22          1           0        3.192021   -1.692069   -0.967521
     23          6           0        1.404292    0.191573    1.444354
     24          6           0        1.524368    1.440878    2.117141
     25          6           0        2.250310   -3.634635   -0.734902
     26          1           0        3.157395   -4.149414   -1.031287
     27          6           0       -1.608706    2.335547    0.977791
     28          6           0       -1.462803    0.386376    2.388786
     29          1           0       -1.286179   -0.669498    2.528689
     30          6           0        1.612040   -0.952803    2.244201
     31          1           0        1.575622   -1.939467    1.811963
     32          6           0       -1.910994    2.530317    3.399535
     33          1           0       -2.104200    3.138361    4.274463
     34          6           0       -2.266726   -2.198020    0.714386
     35          1           0       -3.192855   -1.691739    0.965604
     36          6           0       -1.758065    1.475198   -3.511137
     37          1           0       -1.821108    2.445319   -3.990367
     38          6           0        1.401545    0.928525   -1.091784
     39          6           0       -1.550355    3.118482   -0.220192
     40          1           0       -1.590831    4.190175   -0.050118
     41          6           0       -1.933188    0.333407   -4.258129
     42          1           0       -2.124520    0.391467   -5.322300
     43          6           0       -1.469304    2.744016   -1.518256
     44          1           0       -1.456221    3.560866   -2.233468
     45          6           0        1.758111    1.475855    3.510862
     46          1           0        1.820444    2.446041    3.990050
     47          6           0       -1.707243    1.151571    3.514403
     48          1           0       -1.730816    0.673234    4.486312
     49          6           0       -1.610340   -0.953323   -2.244434
     50          1           0       -1.573160   -1.939967   -1.812217
     51          6           0        1.934570    0.334222    4.257764
     52          1           0        2.126315    0.392413    5.321853
     53          6           0        1.857665    3.097061   -2.150659
     54          1           0        2.013366    4.163728   -2.037247
     55          6           0        1.878493   -0.892062    3.602153
     56          1           0        2.038040   -1.814532    4.147245
     57          6           0        1.910356    2.530469   -3.399609
     58          1           0        2.103467    3.138549   -4.274533
     59          6           0        1.547782    3.118742    0.219919
     60          1           0        1.586905    4.190459    0.049668
     61          6           0       -1.876300   -0.892821   -3.602511
     62          1           0       -2.034769   -1.815439   -4.147666
     63          6           0        1.467190    2.744355    1.518042
     64          1           0        1.453120    3.561247    2.233183
     65          6           0        1.463151    0.386332   -2.388819
     66          1           0        1.287099   -0.669621   -2.528725
     67          6           0        1.707467    1.151612   -3.514422
     68          1           0        1.731540    0.673233   -4.486298
 ---------------------------------------------------------------------

 Alpha  occ. eigenvalues --  -10.71770 -10.71760 -10.68857 -10.68856 -10.68719
 Alpha  occ. eigenvalues --  -10.68718 -10.68432 -10.68432 -10.67672 -10.67671
 Alpha  occ. eigenvalues --  -10.67448 -10.67447 -10.67199 -10.67196 -10.66513
 Alpha  occ. eigenvalues --  -10.66512 -10.66489 -10.66489 -10.66296 -10.66295
 Alpha  occ. eigenvalues --  -10.66013 -10.66012 -10.65763 -10.65762 -10.65661
 Alpha  occ. eigenvalues --  -10.65660 -10.65543 -10.65542 -10.65435 -10.65433
 Alpha  occ. eigenvalues --  -10.65317 -10.65317 -10.65112 -10.65112 -10.65075
 Alpha  occ. eigenvalues --  -10.65075 -10.64720 -10.64719 -10.63989 -10.63922
 Alpha  occ. eigenvalues --  -10.63826 -10.62422  -1.12995  -1.10388  -1.09790
 Alpha  occ. eigenvalues --   -1.08563  -1.07906  -1.06200  -1.03910  -1.02935
 Alpha  occ. eigenvalues --   -1.02482  -1.00615  -0.99731  -0.97977  -0.97875
 Alpha  occ. eigenvalues --   -0.96945  -0.96226  -0.94728  -0.93445  -0.93421
 Alpha  occ. eigenvalues --   -0.92511  -0.91786  -0.88002  -0.86715  -0.85000
 Alpha  occ. eigenvalues --   -0.84827  -0.82560  -0.81644  -0.81041  -0.80017
 Alpha  occ. eigenvalues --   -0.79722  -0.79514  -0.77858  -0.76336  -0.76101
 Alpha  occ. eigenvalues --   -0.75367  -0.75101  -0.73813  -0.70110  -0.70089
 Alpha  occ. eigenvalues --   -0.68874  -0.68070  -0.67805  -0.67606  -0.67168
 Alpha  occ. eigenvalues --   -0.66872  -0.65452  -0.65076  -0.64970  -0.64675
 Alpha  occ. eigenvalues --   -0.63649  -0.63041  -0.62278  -0.62025  -0.61479
 Alpha  occ. eigenvalues --   -0.61390  -0.60620  -0.60289  -0.60075  -0.59820
 Alpha  occ. eigenvalues --   -0.59603  -0.58809  -0.58353  -0.57918  -0.57717
 Alpha  occ. eigenvalues --   -0.57168  -0.55965  -0.55892  -0.55852  -0.55673
 Alpha  occ. eigenvalues --   -0.54976  -0.54639  -0.54163  -0.52943  -0.52815
 Alpha  occ. eigenvalues --   -0.52532  -0.52048  -0.52002  -0.51649  -0.51146
 Alpha  occ. eigenvalues --   -0.50812  -0.50687  -0.50644  -0.49069  -0.48593
 Alpha  occ. eigenvalues --   -0.48592  -0.48319  -0.48003  -0.44178  -0.43629
 Alpha  occ. eigenvalues --   -0.43554  -0.42921  -0.41056  -0.39991  -0.39829
 Alpha  occ. eigenvalues --   -0.38174  -0.37684  -0.37020  -0.35721
 Alpha virt. eigenvalues --   -0.15747  -0.15398  -0.15111  -0.13790  -0.10202
 Alpha virt. eigenvalues --   -0.09968  -0.08837  -0.08794  -0.08354  -0.07762
 Alpha virt. eigenvalues --   -0.07680  -0.07556  -0.07120  -0.06577  -0.06310

  Beta  occ. eigenvalues --  -10.71722 -10.71714 -10.68818 -10.68818 -10.68686
  Beta  occ. eigenvalues --  -10.68685 -10.68417 -10.68416 -10.67654 -10.67654
  Beta  occ. eigenvalues --  -10.67412 -10.67411 -10.67156 -10.67153 -10.66471
  Beta  occ. eigenvalues --  -10.66470 -10.66457 -10.66456 -10.66293 -10.66291
  Beta  occ. eigenvalues --  -10.66019 -10.66018 -10.65764 -10.65763 -10.65656
  Beta  occ. eigenvalues --  -10.65655 -10.65567 -10.65567 -10.65428 -10.65426
  Beta  occ. eigenvalues --  -10.65304 -10.65303 -10.65114 -10.65113 -10.65082
  Beta  occ. eigenvalues --  -10.65082 -10.64717 -10.64717 -10.63987 -10.63922
  Beta  occ. eigenvalues --  -10.63826 -10.62423  -1.12866  -1.10272  -1.09591
  Beta  occ. eigenvalues --   -1.08424  -1.07766  -1.06079  -1.03836  -1.02697
  Beta  occ. eigenvalues --   -1.02269  -1.00503  -0.99620  -0.97810  -0.97730
  Beta  occ. eigenvalues --   -0.96851  -0.96143  -0.94695  -0.93259  -0.93244
  Beta  occ. eigenvalues --   -0.92369  -0.91656  -0.87780  -0.86550  -0.84858
  Beta  occ. eigenvalues --   -0.84691  -0.82500  -0.81526  -0.80969  -0.79890
  Beta  occ. eigenvalues --   -0.79643  -0.79439  -0.77699  -0.76152  -0.75949
  Beta  occ. eigenvalues --   -0.75224  -0.75079  -0.73703  -0.70000  -0.69938
  Beta  occ. eigenvalues --   -0.68795  -0.67976  -0.67687  -0.67482  -0.67030
  Beta  occ. eigenvalues --   -0.66754  -0.65348  -0.64993  -0.64846  -0.64559
  Beta  occ. eigenvalues --   -0.63314  -0.62992  -0.62204  -0.61918  -0.61273
  Beta  occ. eigenvalues --   -0.61221  -0.60493  -0.60207  -0.59974  -0.59725
  Beta  occ. eigenvalues --   -0.59442  -0.58591  -0.58293  -0.57784  -0.57266
  Beta  occ. eigenvalues --   -0.57097  -0.55829  -0.55783  -0.55754  -0.55039
  Beta  occ. eigenvalues --   -0.54703  -0.54353  -0.53809  -0.52823  -0.52716
  Beta  occ. eigenvalues --   -0.52461  -0.51978  -0.51810  -0.51336  -0.51045
  Beta  occ. eigenvalues --   -0.50641  -0.50587  -0.49597  -0.48970  -0.48506
  Beta  occ. eigenvalues --   -0.48293  -0.48145  -0.47637  -0.43583  -0.42994
  Beta  occ. eigenvalues --   -0.42790  -0.42535  -0.40753  -0.39781  -0.39426
  Beta  occ. eigenvalues --   -0.37466  -0.37055  -0.36401
  Beta virt. eigenvalues --   -0.26170  -0.15545  -0.14983  -0.14925  -0.13397
  Beta virt. eigenvalues --   -0.09845  -0.09793  -0.08752  -0.08399  -0.08160
  Beta virt. eigenvalues --   -0.07587  -0.07562  -0.07450  -0.06622  -0.06573

 Mulliken charges and spin densities:
               1          2
     1  C    0.038958  -0.001505
     2  C    0.040202  -0.001474
     3  C    0.189245   0.002191
     4  C    0.104231  -0.002385
     5  C    0.115413   0.005515
     6  C    0.116427   0.006564
     7  C   -0.293170   0.000768
     8  H    0.175219  -0.000043
     9  C    0.157924   0.080454
    10  C   -0.294938   0.000772
    11  H    0.175224  -0.000043
    12  C    0.116149   0.005517
    13  C    0.117404   0.006571
    14  C    0.069266   0.027200
    15  C    0.145472   0.055107
    16  C   -0.165038   0.050099
    17  H    0.168245  -0.001897
    18  C   -0.492087   0.002669
    19  H    0.173661   0.000316
    20  C    0.279476   0.023481
    21  C   -0.171327   0.010507
    22  H    0.174302  -0.000296
    23  C    0.145516   0.055124
    24  C    0.282385   0.023442
    25  C   -0.491213   0.002658
    26  H    0.173685   0.000317
    27  C    0.064813   0.027258
    28  C   -0.161794  -0.053386
    29  H    0.197926   0.001529
    30  C   -0.344798  -0.008810
    31  H    0.213435   0.000530
    32  C   -0.223866   0.005968
    33  H    0.179060  -0.000252
    34  C   -0.171682   0.010516
    35  H    0.174211  -0.000296
    36  C   -0.206485   0.007012
    37  H    0.164492  -0.000432
    38  C    0.158042   0.080453
    39  C   -0.185708   0.108916
    40  H    0.169899  -0.007611
    41  C   -0.275896   0.006170
    42  H    0.177197  -0.000031
    43  C   -0.176669   0.067195
    44  H    0.163627  -0.003672
    45  C   -0.207999   0.007023
    46  H    0.164534  -0.000432
    47  C   -0.156304   0.110385
    48  H    0.176845  -0.006255
    49  C   -0.344132  -0.008802
    50  H    0.213329   0.000529
    51  C   -0.276815   0.006180
    52  H    0.177198  -0.000031
    53  C   -0.168702   0.050076
    54  H    0.168268  -0.001898
    55  C   -0.021430   0.014963
    56  H    0.175631  -0.001227
    57  C   -0.224027   0.005953
    58  H    0.179058  -0.000250
    59  C   -0.185358   0.109250
    60  H    0.169870  -0.007631
    61  C   -0.022836   0.014922
    62  H    0.175614  -0.001225
    63  C   -0.177467   0.067120
    64  H    0.163635  -0.003669
    65  C   -0.163107  -0.053414
    66  H    0.197862   0.001523
    67  C   -0.156927   0.110479
    68  H    0.176827  -0.006257
 Sum of Mulliken charges =   1.00000   1.00000

 Dipole moment (field-independent basis, Debye):
    X=             -0.0015    Y=              3.5063    Z=             -0.0028  Tot=              3.5063
 Quadrupole moment (field-independent basis, Debye-Ang):
   XX=           -222.4359   YY=           -173.8738   ZZ=           -177.2065
   XY=             -0.0111   XZ=             -2.1647   YZ=              0.0245

 Normal termination of Gaussian 16 at Fri Mar 21 08:40:52 2025.
