 Gaussian 16, Revision A.03,
 Gaussian 16:  ES64L-G16RevA.03 25-Dec-2016

 --------------------------------------------
 #p opt UM062X/6-311+G** nosymm int=superfine
 --------------------------------------------

 -------------------
 Title Card Required
 -------------------
 Symbolic Z-matrix:
 Charge =  1 Multiplicity = 2

 SCF Done:  E(UM062X) =  -79.3160331102     A.U. after   10 cycles
 SCF Done:  E(UM062X) =  -79.3173204967     A.U. after    9 cycles
 SCF Done:  E(UM062X) =  -79.3173311642     A.U. after    9 cycles
 Optimization completed.
    -- Stationary point found.

                          Input orientation:
 ---------------------------------------------------------------------
 Center     Atomic      Atomic             Coordinates (Angstroms)
 Number     Number       Type             X           Y           Z
 ---------------------------------------------------------------------
      1          6           0       -2.011608    0.000000    0.000000
      2          6           0        2.011608    0.000000    0.000000
      3          1           0        2.037907   -0.937534    0.542626
      4          1           0       -2.036131   -0.938631   -0.540805
      5          1           0        2.037144    0.938725    0.540597
      6          1           0        2.036135   -0.001169   -1.083279
      7          1           0       -2.037962    0.937639   -0.542442
      8          1           0       -2.037093    0.000947    1.083258
 ---------------------------------------------------------------------

 Alpha  occ. eigenvalues --  -10.83427 -10.83426  -1.02000  -1.01693  -0.73064
 Alpha  occ. eigenvalues --   -0.73064  -0.72964  -0.72964  -0.47245
 Alpha virt. eigenvalues --   -0.37661  -0.12678  -0.10141  -0.09362  -0.09362
 Alpha virt. eigenvalues --   -0.06214  -0.06214  -0.04389  -0.02868   0.00043
 Alpha virt. eigenvalues --    0.00046   0.01393   0.01395   0.02608   0.08796

  Beta  occ. eigenvalues --  -10.83206 -10.83206  -0.99344  -0.99158  -0.72539
  Beta  occ. eigenvalues --   -0.72538  -0.72422  -0.72421
  Beta virt. eigenvalues --   -0.32430  -0.26663  -0.16739  -0.10797  -0.10796
  Beta virt. eigenvalues --   -0.10228  -0.06197  -0.06197  -0.05342  -0.01913
  Beta virt. eigenvalues --   -0.00170  -0.00166   0.01651   0.01654   0.02397

 Mulliken charges and spin densities:
               1          2
     1  C   -0.247943   0.557250
     2  C   -0.247943   0.557250
     3  H    0.249334  -0.019080
     4  H    0.249296  -0.019082
     5  H    0.249317  -0.019084
     6  H    0.249292  -0.019085
     7  H    0.249335  -0.019081
     8  H    0.249312  -0.019087
 Sum of Mulliken charges =   1.00000   1.00000

 Dipole moment (field-independent basis, Debye):
    X=             -0.0000    Y=             -0.0000    Z=             -0.0001  Tot=              0.0001
 Quadrupole moment (field-independent basis, Debye-Ang):
   XX=              8.0129   YY=            -11.1164   ZZ=            -11.1166
   XY=             -0.0019   XZ=              0.0011   YZ=              0.0000

 Normal termination of Gaussian 16 at Sat Nov 16 16:07:30 2024.
