 Gaussian 16, Revision A.03,
 Gaussian 16:  ES64L-G16RevA.03 25-Dec-2016

 --------------------------------------------
 #p opt UM062X/6-311+G** nosymm int=superfine
 --------------------------------------------

 -------------------
 Title Card Required
 -------------------
 Symbolic Z-matrix:
 Charge =  0 Multiplicity = 1

 SCF Done:  E(UM062X) =  -83.1873403295     A.U. after   10 cycles
 SCF Done:  E(UM062X) =  -83.1876445991     A.U. after    8 cycles
 SCF Done:  E(UM062X) =  -83.1876497874     A.U. after    7 cycles
 Optimization completed.
    -- Stationary point found.

                          Input orientation:
 ---------------------------------------------------------------------
 Center     Atomic      Atomic             Coordinates (Angstroms)
 Number     Number       Type             X           Y           Z
 ---------------------------------------------------------------------
      1          5           0       -0.877429    0.000000    0.000000
      2          7           0        0.877429    0.000000    0.000000
      3          1           0        1.232280   -0.951355   -0.000003
      4          1           0       -1.153269   -0.586118    1.015174
      5          1           0        1.232234    0.475707   -0.823903
      6          1           0        1.232228    0.475700    0.823910
      7          1           0       -1.153266    1.172227    0.000011
      8          1           0       -1.153273   -0.586103   -1.015182
 ---------------------------------------------------------------------

 Alpha  occ. eigenvalues --  -14.81629  -6.97283  -1.04581  -0.61681  -0.61681
 Alpha  occ. eigenvalues --   -0.57992  -0.41587  -0.34011  -0.34011
 Alpha virt. eigenvalues --   -0.01271   0.04275   0.04275   0.04991   0.08354
 Alpha virt. eigenvalues --    0.11000   0.11000   0.14530   0.15187   0.15188
 Alpha virt. eigenvalues --    0.19469   0.21140   0.21140   0.25484   0.31590

  Beta  occ. eigenvalues --  -14.81629  -6.97283  -1.04581  -0.61681  -0.61681
  Beta  occ. eigenvalues --   -0.57992  -0.41587  -0.34011  -0.34011
  Beta virt. eigenvalues --   -0.01271   0.04275   0.04275   0.04991   0.08354
  Beta virt. eigenvalues --    0.11000   0.11000   0.14530   0.15187   0.15188
  Beta virt. eigenvalues --    0.19469   0.21140   0.21140   0.25484   0.31590

 Mulliken charges and spin densities:
               1          2
     1  B   -0.189613  -0.000000
     2  N   -0.579297   0.000000
     3  H    0.304483  -0.000000
     4  H   -0.048181  -0.000000
     5  H    0.304485  -0.000000
     6  H    0.304486  -0.000000
     7  H   -0.048182  -0.000000
     8  H   -0.048181  -0.000000
 Sum of Mulliken charges =  -0.00000   0.00000

 Dipole moment (field-independent basis, Debye):
    X=              5.1755    Y=              0.0001    Z=              0.0000  Tot=              5.1755
 Quadrupole moment (field-independent basis, Debye-Ang):
   XX=            -15.4118   YY=            -16.1551   ZZ=            -16.1551
   XY=             -0.0000   XZ=             -0.0000   YZ=              0.0000

 Normal termination of Gaussian 16 at Mon Apr 21 17:33:12 2025.
