 Gaussian 16, Revision A.03,
 Gaussian 16:  ES64L-G16RevA.03 25-Dec-2016

 --------------------------------------------
 #p opt UM062X/6-311+G** nosymm int=superfine
 --------------------------------------------

 -------------------
 Title Card Required
 -------------------
 Symbolic Z-matrix:
 Charge =  0 Multiplicity = 1

 SCF Done:  E(UM062X) =  -77.0681670334     A.U. after    9 cycles
 SCF Done:  E(UM062X) =  -77.1108816404     A.U. after    9 cycles
 SCF Done:  E(UM062X) =  -77.1576719927     A.U. after   10 cycles
 SCF Done:  E(UM062X) =  -77.1577065283     A.U. after    8 cycles
 Optimization completed.
    -- Stationary point found.

                          Input orientation:
 ---------------------------------------------------------------------
 Center     Atomic      Atomic             Coordinates (Angstroms)
 Number     Number       Type             X           Y           Z
 ---------------------------------------------------------------------
      1          6           0       -0.790040    0.000000    0.000000
      2          6           0        0.790040    0.000000    0.000000
      3          1           0       -1.863344    0.000000   -0.000000
      4          1           0        1.863354   -0.000001    0.000001
 ---------------------------------------------------------------------

 Alpha  occ. eigenvalues --  -10.64005 -10.63964  -0.78864  -0.68804  -0.54372
 Alpha  occ. eigenvalues --   -0.31160  -0.31160
 Alpha virt. eigenvalues --   -0.02604  -0.02604   0.01300   0.02356   0.08271
 Alpha virt. eigenvalues --    0.08271   0.08553   0.09449   0.11423   0.11423
 Alpha virt. eigenvalues --    0.17915   0.22997   0.29656   0.46437   0.58733

  Beta  occ. eigenvalues --  -10.64005 -10.63964  -0.78864  -0.68804  -0.54372
  Beta  occ. eigenvalues --   -0.31160  -0.31160
  Beta virt. eigenvalues --   -0.02604  -0.02604   0.01300   0.02356   0.08271
  Beta virt. eigenvalues --    0.08271   0.08553   0.09449   0.11423   0.11423
  Beta virt. eigenvalues --    0.17915   0.22997   0.29656   0.46437   0.58733

 Mulliken charges and spin densities:
               1          2
     1  C   -0.234041  -0.000000
     2  C   -0.234041   0.000000
     3  H    0.234040  -0.000000
     4  H    0.234043  -0.000000
 Sum of Mulliken charges =  -0.00000  -0.00000

 Dipole moment (field-independent basis, Debye):
    X=              0.0000    Y=             -0.0000    Z=              0.0000  Tot=              0.0000
 Quadrupole moment (field-independent basis, Debye-Ang):
   XX=             -5.4503   YY=            -15.3960   ZZ=            -15.3960
   XY=             -0.0000   XZ=              0.0000   YZ=             -0.0000

 Normal termination of Gaussian 16 at Tue Dec  3 20:11:13 2024.
