 Gaussian 16, Revision A.03,
 Gaussian 16:  ES64L-G16RevA.03 25-Dec-2016

 --------------------------------------------
 #p opt UM062X/6-311+G** nosymm int=superfine
 --------------------------------------------

 -------------------
 Title Card Required
 -------------------
 Symbolic Z-matrix:
 Charge =  1 Multiplicity = 2

 SCF Done:  E(UM062X) =  -78.1553265624     A.U. after    9 cycles
 SCF Done:  E(UM062X) =  -78.1629029943     A.U. after    8 cycles
 SCF Done:  E(UM062X) =  -78.1636623374     A.U. after    8 cycles
 SCF Done:  E(UM062X) =  -78.1636850988     A.U. after    6 cycles
 Optimization completed.
    -- Stationary point found.

                          Input orientation:
 ---------------------------------------------------------------------
 Center     Atomic      Atomic             Coordinates (Angstroms)
 Number     Number       Type             X           Y           Z
 ---------------------------------------------------------------------
      1          6           0       -0.798788    0.000000    0.000000
      2          6           0        0.798788    0.000000    0.000000
      3          1           0       -1.321968   -0.950754    0.000000
      4          1           0       -1.322037    0.950720    0.000000
      5          1           0        1.321968    0.950754   -0.000000
      6          1           0        1.322037   -0.950720   -0.000000
 ---------------------------------------------------------------------

 Alpha  occ. eigenvalues --  -10.90778 -10.90738  -1.13502  -0.98577  -0.82936
 Alpha  occ. eigenvalues --   -0.75733  -0.74804  -0.62626
 Alpha virt. eigenvalues --   -0.32304  -0.14549  -0.13591  -0.11732  -0.09183
 Alpha virt. eigenvalues --   -0.07568  -0.07122  -0.04644  -0.04598  -0.03551
 Alpha virt. eigenvalues --   -0.01956  -0.01073   0.03398   0.10138   0.19290

  Beta  occ. eigenvalues --  -10.90552 -10.90524  -1.09890  -0.96559  -0.82049
  Beta  occ. eigenvalues --   -0.74661  -0.74459
  Beta virt. eigenvalues --   -0.39518  -0.24611  -0.16246  -0.13150  -0.12030
  Beta virt. eigenvalues --   -0.09404  -0.08329  -0.07167  -0.04669  -0.03961
  Beta virt. eigenvalues --   -0.02562  -0.01381  -0.00111   0.03273   0.10630

 Mulliken charges and spin densities:
               1          2
     1  C   -0.058585   0.538903
     2  C   -0.058585   0.538903
     3  H    0.279289  -0.019452
     4  H    0.279296  -0.019451
     5  H    0.279289  -0.019452
     6  H    0.279296  -0.019451
 Sum of Mulliken charges =   1.00000   1.00000

 Dipole moment (field-independent basis, Debye):
    X=             -0.0000    Y=              0.0000    Z=             -0.0000  Tot=              0.0000
 Quadrupole moment (field-independent basis, Debye-Ang):
   XX=             -4.6600   YY=             -8.3889   ZZ=            -11.8658
   XY=             -0.0002   XZ=             -0.0000   YZ=             -0.0000

 Normal termination of Gaussian 16 at Tue Nov 19 11:05:36 2024.
