 Gaussian 16, Revision A.03,
 Gaussian 16:  ES64L-G16RevA.03 25-Dec-2016

 --------------------------------------------
 #p opt UM062X/6-311+G** nosymm int=superfine
 --------------------------------------------

 -------------------
 Title Card Required
 -------------------
 Symbolic Z-matrix:
 Charge =  0 Multiplicity = 1

 SCF Done:  E(UM062X) =  -76.3876438289     A.U. after   12 cycles
 SCF Done:  E(UM062X) =  -76.4871627451     A.U. after    9 cycles
 SCF Done:  E(UM062X) =  -76.6101772446     A.U. after    9 cycles
 SCF Done:  E(UM062X) =  -76.6583956796     A.U. after   10 cycles
 SCF Done:  E(UM062X) =  -76.6597384360     A.U. after    9 cycles
 SCF Done:  E(UM062X) =  -76.6599406293     A.U. after    8 cycles
 SCF Done:  E(UM062X) =  -76.6599438602     A.U. after    6 cycles
 Optimization completed.
    -- Stationary point found.

                          Input orientation:
 ---------------------------------------------------------------------
 Center     Atomic      Atomic             Coordinates (Angstroms)
 Number     Number       Type             X           Y           Z
 ---------------------------------------------------------------------
      1          6           0       -0.344693    0.000000    0.000000
      2          6           0        0.344693    0.000000    0.000000
      3          1           0       -1.127315   -0.814130    0.000000
      4          1           0       -1.127350    0.814009    0.000000
      5          1           0        1.127315    0.814130   -0.000000
      6          1           0        1.127350   -0.814009   -0.000000
 ---------------------------------------------------------------------

 Alpha  occ. eigenvalues --  -10.68307 -10.47977  -0.90127  -0.66679  -0.60098
 Alpha  occ. eigenvalues --   -0.57430  -0.50330  -0.26132
 Alpha virt. eigenvalues --    0.02163   0.02694   0.04086   0.05378   0.08173
 Alpha virt. eigenvalues --    0.09609   0.09817   0.13528   0.15865   0.18816
 Alpha virt. eigenvalues --    0.25047   0.26912   0.37537   0.41749   0.44384

  Beta  occ. eigenvalues --  -10.68307 -10.47977  -0.90127  -0.66679  -0.60098
  Beta  occ. eigenvalues --   -0.57430  -0.50330  -0.26132
  Beta virt. eigenvalues --    0.02163   0.02694   0.04086   0.05378   0.08173
  Beta virt. eigenvalues --    0.09609   0.09817   0.13528   0.15865   0.18816
  Beta virt. eigenvalues --    0.25047   0.26912   0.37537   0.41749   0.44384

 Mulliken charges and spin densities:
               1          2
     1  C   -0.245697   0.000000
     2  C   -0.245697  -0.000000
     3  H    0.122834   0.000000
     4  H    0.122863  -0.000000
     5  H    0.122834  -0.000000
     6  H    0.122863   0.000000
 Sum of Mulliken charges =  -0.00000  -0.00000

 Dipole moment (field-independent basis, Debye):
    X=             -0.0000    Y=              0.0000    Z=             -0.0000  Tot=              0.0000
 Quadrupole moment (field-independent basis, Debye-Ang):
   XX=            -12.8519   YY=            -12.8376   ZZ=            -12.8204
   XY=             -0.0004   XZ=             -0.0000   YZ=              0.0000

 Normal termination of Gaussian 16 at Tue Nov 19 10:10:15 2024.
