 Gaussian 16, Revision A.03,
 Gaussian 16:  ES64L-G16RevA.03 25-Dec-2016

 ---------------------------------------------------
 #p UM062X/6-311+G** force int=superfine pop=saveNBO
 ---------------------------------------------------

 -------------------
 Title Card Required
 -------------------
 Symbolic Z-matrix:
 Charge =  0 Multiplicity = 1

                         Standard orientation:
 ---------------------------------------------------------------------
 Center     Atomic      Atomic             Coordinates (Angstroms)
 Number     Number       Type             X           Y           Z
 ---------------------------------------------------------------------
      1          8           0        0.000000    0.000000    0.793562
      2          8           0        0.000000    0.000000   -0.793562
 ---------------------------------------------------------------------

 SCF Done:  E(UM062X) =  -150.128755005     A.U. after    9 cycles

 Unable to determine electronic state:  partially filled degenerate orbitals.
 Alpha  occ. eigenvalues --  -19.82855 -19.82835  -1.22590  -1.02152  -0.56035
 Alpha  occ. eigenvalues --   -0.54292  -0.49712  -0.43534
 Alpha virt. eigenvalues --   -0.22258  -0.06235   0.10485   0.13968   0.15075
 Alpha virt. eigenvalues --    0.15558   0.21026   0.21073   0.21434   0.34043
 Alpha virt. eigenvalues --    0.96701   0.97485   0.99312   1.06593   1.07951

  Beta  occ. eigenvalues --  -19.82855 -19.82835  -1.22590  -1.02152  -0.56035
  Beta  occ. eigenvalues --   -0.54292  -0.49712  -0.43534
  Beta virt. eigenvalues --   -0.22258  -0.06235   0.10485   0.13968   0.15075
  Beta virt. eigenvalues --    0.15558   0.21026   0.21073   0.21434   0.34043
  Beta virt. eigenvalues --    0.96701   0.97485   0.99312   1.06593   1.07951

 Mulliken charges and spin densities:
               1          2
     1  O    0.000000  -0.000000
     2  O    0.000000  -0.000000
 Sum of Mulliken charges =   0.00000  -0.00000

 Dipole moment (field-independent basis, Debye):
    X=              0.0000    Y=             -0.0000    Z=             -0.0000  Tot=              0.0000
 Quadrupole moment (field-independent basis, Debye-Ang):
   XX=            -11.5799   YY=             -9.8434   ZZ=            -10.1471
   XY=              0.0000   XZ=              0.0000   YZ=              0.0000

 Summary of Natural Population Analysis:

                                       Natural Population
                Natural  -----------------------------------------------
    Atom  No    Charge         Core      Valence    Rydberg      Total
 -----------------------------------------------------------------------
      O    1    0.00000      0.99999     2.99606    0.00394     4.00000
      O    2    0.00000      0.99999     2.99606    0.00394     4.00000
 =======================================================================
   * Total *    0.00000      1.99999     5.99213    0.00788     8.00000

 Normal termination of Gaussian 16 at Mon Apr 21 19:50:40 2025.
