 Gaussian 16, Revision A.03,
 Gaussian 16:  ES64L-G16RevA.03 25-Dec-2016

 ---------------------------------------------------
 #p UM062X/6-311+G** force int=superfine pop=saveNBO
 ---------------------------------------------------

 -------------------
 Title Card Required
 -------------------
 Symbolic Z-matrix:
 Charge =  0 Multiplicity = 1

                         Standard orientation:
 ---------------------------------------------------------------------
 Center     Atomic      Atomic             Coordinates (Angstroms)
 Number     Number       Type             X           Y           Z
 ---------------------------------------------------------------------
      1          6           0        0.000000    0.000000   -2.041237
      2          8           0        0.000000    0.000000    1.530927
 ---------------------------------------------------------------------

 SCF Done:  E(UM062X) =  -112.750747819     A.U. after   36 cycles

 The electronic state is 1-SG.
 Alpha  occ. eigenvalues --  -19.73148 -10.73499  -1.03315  -0.66215  -0.42122
 Alpha  occ. eigenvalues --   -0.42122  -0.30238
 Alpha virt. eigenvalues --   -0.17091  -0.12629  -0.12629   0.04075   0.07054
 Alpha virt. eigenvalues --    0.07054   0.07952   0.16693   0.19573   0.19573
 Alpha virt. eigenvalues --    0.25046   0.55398   0.55398   0.56858   0.65158

  Beta  occ. eigenvalues --  -19.73148 -10.73499  -1.03315  -0.66215  -0.42122
  Beta  occ. eigenvalues --   -0.42122  -0.30238
  Beta virt. eigenvalues --   -0.17091  -0.12629  -0.12629   0.04075   0.07054
  Beta virt. eigenvalues --    0.07054   0.07952   0.16693   0.19573   0.19573
  Beta virt. eigenvalues --    0.25046   0.55398   0.55398   0.56858   0.65158

 Mulliken charges and spin densities:
               1          2
     1  C    0.099460  -0.000000
     2  O   -0.099460   0.000000
 Sum of Mulliken charges =   0.00000   0.00000

 Dipole moment (field-independent basis, Debye):
    X=              0.0000    Y=              0.0000    Z=             -1.7798  Tot=              1.7798
 Quadrupole moment (field-independent basis, Debye-Ang):
   XX=            -11.1489   YY=            -11.1489   ZZ=            -11.8275
   XY=              0.0000   XZ=              0.0000   YZ=              0.0000

 Summary of Natural Population Analysis:

                                       Natural Population
                Natural  -----------------------------------------------
    Atom  No    Charge         Core      Valence    Rydberg      Total
 -----------------------------------------------------------------------
      C    1    0.05568      1.00000     1.94403    0.00030     2.94432
      O    2   -0.05568      1.00000     3.05536    0.00032     4.05568
 =======================================================================
   * Total *    0.00000      2.00000     4.99939    0.00061     7.00000

 Normal termination of Gaussian 16 at Mon Apr 21 19:29:01 2025.
