 Gaussian 16, Revision A.03,
 Gaussian 16:  ES64L-G16RevA.03 25-Dec-2016

 --------------------------------------------
 #p opt UM062X/6-311+G** nosymm int=superfine
 --------------------------------------------

 -------------------
 Title Card Required
 -------------------
 Symbolic Z-matrix:
 Charge =  0 Multiplicity = 1

 SCF Done:  E(UM062X) =  -83.1673248767     A.U. after   10 cycles
 SCF Done:  E(UM062X) =  -83.1717521860     A.U. after    9 cycles
 SCF Done:  E(UM062X) =  -83.1719430850     A.U. after    8 cycles
 SCF Done:  E(UM062X) =  -83.1719465168     A.U. after    7 cycles
 SCF Done:  E(UM062X) =  -83.1719479120     A.U. after    7 cycles
 Optimization completed.
    -- Stationary point found.

                          Input orientation:
 ---------------------------------------------------------------------
 Center     Atomic      Atomic             Coordinates (Angstroms)
 Number     Number       Type             X           Y           Z
 ---------------------------------------------------------------------
      1          5           0       -1.052429    0.000000    0.000000
      2          7           0        1.052429    0.000000    0.000000
      3          1           0        1.393692   -0.953947   -0.000003
      4          1           0       -1.221491   -0.592065    1.025471
      5          1           0        1.393490    0.477063   -0.826176
      6          1           0        1.393484    0.477056    0.826182
      7          1           0       -1.221449    1.184124    0.000010
      8          1           0       -1.221493   -0.592048   -1.025480
 ---------------------------------------------------------------------

 Alpha  occ. eigenvalues --  -14.78702  -6.99903  -1.01211  -0.59064  -0.59063
 Alpha  occ. eigenvalues --   -0.55673  -0.39372  -0.35967  -0.35966
 Alpha virt. eigenvalues --   -0.00495   0.04023   0.04636   0.04636   0.08370
 Alpha virt. eigenvalues --    0.11005   0.11005   0.12256   0.15927   0.15928
 Alpha virt. eigenvalues --    0.16486   0.20951   0.20951   0.23985   0.30813

  Beta  occ. eigenvalues --  -14.78702  -6.99903  -1.01211  -0.59064  -0.59063
  Beta  occ. eigenvalues --   -0.55673  -0.39372  -0.35967  -0.35966
  Beta virt. eigenvalues --   -0.00495   0.04023   0.04636   0.04636   0.08370
  Beta virt. eigenvalues --    0.11005   0.11005   0.12256   0.15927   0.15928
  Beta virt. eigenvalues --    0.16486   0.20951   0.20951   0.23985   0.30813

 Mulliken charges and spin densities:
               1          2
     1  B   -0.067690   0.000000
     2  N   -0.676089  -0.000000
     3  H    0.285670  -0.000000
     4  H   -0.037745  -0.000000
     5  H    0.285675  -0.000000
     6  H    0.285675   0.000000
     7  H   -0.037753  -0.000000
     8  H   -0.037745  -0.000000
 Sum of Mulliken charges =  -0.00000  -0.00000

 Dipole moment (field-independent basis, Debye):
    X=              4.1466    Y=              0.0002    Z=              0.0000  Tot=              4.1466
 Quadrupole moment (field-independent basis, Debye-Ang):
   XX=            -14.5599   YY=            -15.9725   ZZ=            -15.9726
   XY=             -0.0001   XZ=             -0.0000   YZ=              0.0000

 Normal termination of Gaussian 16 at Mon Apr 21 17:31:45 2025.
