 Gaussian 16, Revision A.03,
 Gaussian 16:  ES64L-G16RevA.03 25-Dec-2016

 --------------------------------------------
 #p opt UM062X/6-311+G** nosymm int=superfine
 --------------------------------------------

 -------------------
 Title Card Required
 -------------------
 Symbolic Z-matrix:
 Charge =  0 Multiplicity = 1

 SCF Done:  E(UM062X) =  -78.1980319703     A.U. after    9 cycles
 SCF Done:  E(UM062X) =  -78.2151701618     A.U. after    9 cycles
 SCF Done:  E(UM062X) =  -78.2310334943     A.U. after    8 cycles
 SCF Done:  E(UM062X) =  -78.2314097426     A.U. after    8 cycles
 SCF Done:  E(UM062X) =  -78.2314113220     A.U. after    7 cycles
 Optimization completed.
    -- Stationary point found.

                          Input orientation:
 ---------------------------------------------------------------------
 Center     Atomic      Atomic             Coordinates (Angstroms)
 Number     Number       Type             X           Y           Z
 ---------------------------------------------------------------------
      1          6           0       -1.810595    0.000000    0.000000
      2          6           0        1.810595    0.000000    0.000000
      3          1           0       -2.519204   -0.857326   -0.000000
      4          1           0       -2.519169    0.857355   -0.000000
      5          1           0        2.519204    0.857326    0.000000
      6          1           0        2.519169   -0.857355    0.000000
 ---------------------------------------------------------------------

 Alpha  occ. eigenvalues --  -10.59188 -10.59188  -0.74246  -0.74156  -0.45894
 Alpha  occ. eigenvalues --   -0.45814  -0.31033  -0.28250
 Alpha virt. eigenvalues --   -0.07190  -0.06458   0.02546   0.03386   0.06677
 Alpha virt. eigenvalues --    0.08610   0.08819   0.10453   0.12540   0.15444
 Alpha virt. eigenvalues --    0.17589   0.19972   0.20997   0.22683   0.45337

  Beta  occ. eigenvalues --  -10.59188 -10.59188  -0.74246  -0.74156  -0.45894
  Beta  occ. eigenvalues --   -0.45814  -0.31033  -0.28250
  Beta virt. eigenvalues --   -0.07190  -0.06458   0.02546   0.03386   0.06677
  Beta virt. eigenvalues --    0.08610   0.08819   0.10453   0.12540   0.15444
  Beta virt. eigenvalues --    0.17589   0.19972   0.20997   0.22683   0.45337

 Mulliken charges and spin densities:
               1          2
     1  C   -0.236990   0.000000
     2  C   -0.236990   0.000000
     3  H    0.118495  -0.000000
     4  H    0.118495  -0.000000
     5  H    0.118495  -0.000000
     6  H    0.118495   0.000000
 Sum of Mulliken charges =  -0.00000   0.00000

 Dipole moment (field-independent basis, Debye):
    X=             -0.0000    Y=              0.0000    Z=             -0.0000  Tot=              0.0000
 Quadrupole moment (field-independent basis, Debye-Ang):
   XX=             -5.2173   YY=            -14.7290   ZZ=            -12.9687
   XY=             -0.0001   XZ=              0.0000   YZ=              0.0000

 Normal termination of Gaussian 16 at Tue Dec  3 11:15:07 2024.
