 Gaussian 16, Revision A.03,
 Gaussian 16:  ES64L-G16RevA.03 25-Dec-2016

 --------------------------------------------
 #p opt UM062X/6-311+G** nosymm int=superfine
 --------------------------------------------

 -------------------
 Title Card Required
 -------------------
 Symbolic Z-matrix:
 Charge =  1 Multiplicity = 2

 SCF Done:  E(UM062X) =  -582.136186474     A.U. after   11 cycles
 SCF Done:  E(UM062X) =  -582.136948025     A.U. after    9 cycles
 SCF Done:  E(UM062X) =  -582.137148332     A.U. after    9 cycles
 SCF Done:  E(UM062X) =  -582.137148589     A.U. after    7 cycles
 Optimization completed.
    -- Stationary point found.

                          Input orientation:
 ---------------------------------------------------------------------
 Center     Atomic      Atomic             Coordinates (Angstroms)
 Number     Number       Type             X           Y           Z
 ---------------------------------------------------------------------
      1         14           0       -2.326292    0.000000    0.000000
      2         14           0        2.326292    0.000000    0.000000
      3          1           0        2.439969   -1.460064   -0.000008
      4          1           0       -2.439358   -0.729898    1.264587
      5          1           0        2.439874    0.730058   -1.264448
      6          1           0        2.439162    0.729984    1.264555
      7          1           0       -2.439995    1.460062   -0.000130
      8          1           0       -2.439651   -0.730148   -1.264416
 ---------------------------------------------------------------------

 Alpha  occ. eigenvalues --  -67.22436 -67.22436  -5.77275  -5.77273  -4.08958
 Alpha  occ. eigenvalues --   -4.08958  -4.08146  -4.08146  -4.08146  -4.08146
 Alpha  occ. eigenvalues --   -0.80975  -0.80617  -0.61353  -0.61351  -0.61270
 Alpha  occ. eigenvalues --   -0.61269  -0.40339
 Alpha virt. eigenvalues --   -0.29913  -0.12076  -0.11742  -0.09952  -0.09534
 Alpha virt. eigenvalues --   -0.09533  -0.08324  -0.08323  -0.07646  -0.07294
 Alpha virt. eigenvalues --   -0.07294  -0.06124  -0.06124  -0.04740   0.00632

  Beta  occ. eigenvalues --  -67.22166 -67.22166  -5.77194  -5.77192  -4.08329
  Beta  occ. eigenvalues --   -4.08328  -4.08054  -4.08054  -4.08053  -4.08053
  Beta  occ. eigenvalues --   -0.79242  -0.79035  -0.61241  -0.61240  -0.61148
  Beta  occ. eigenvalues --   -0.61148
  Beta virt. eigenvalues --   -0.32258  -0.23216  -0.15456  -0.12625  -0.12623
  Beta virt. eigenvalues --   -0.10835  -0.10749  -0.08827  -0.08827  -0.07335
  Beta virt. eigenvalues --   -0.06870  -0.06870  -0.05753  -0.05753  -0.05641

 Mulliken charges and spin densities:
               1          2
     1  Si   0.502879   0.552693
     2  Si   0.502879   0.552693
     3  H   -0.000966  -0.017577
     4  H   -0.000958  -0.017557
     5  H   -0.000952  -0.017560
     6  H   -0.000961  -0.017556
     7  H   -0.000966  -0.017577
     8  H   -0.000955  -0.017559
 Sum of Mulliken charges =   1.00000   1.00000

 Dipole moment (field-independent basis, Debye):
    X=              0.0000    Y=             -0.0000    Z=              0.0001  Tot=              0.0001
 Quadrupole moment (field-independent basis, Debye-Ang):
   XX=              5.5633   YY=            -26.2328   ZZ=            -26.2324
   XY=              0.0008   XZ=              0.0001   YZ=             -0.0000

 Normal termination of Gaussian 16 at Mon Apr 21 20:13:59 2025.
