 Gaussian 16, Revision A.03,
 Gaussian 16:  ES64L-G16RevA.03 25-Dec-2016

 --------------------------------------------
 #p opt UM062X/6-311+G** nosymm int=superfine
 --------------------------------------------

 -------------------
 Title Card Required
 -------------------
 Symbolic Z-matrix:
 Charge =  0 Multiplicity = 2

 SCF Done:  E(UM062X) =  -398.729988337     A.U. after   11 cycles

 Alpha  occ. eigenvalues --  -89.92823  -8.28932  -6.22141  -6.20871  -6.20316
 Alpha  occ. eigenvalues --   -0.82547  -0.47400  -0.37634  -0.33547
 Alpha virt. eigenvalues --    0.03070   0.05389   0.05703   0.06081   0.08412
 Alpha virt. eigenvalues --    0.32505   0.35094   0.35802   0.39772   0.58503
 Alpha virt. eigenvalues --    0.70783   0.73797   0.79095   0.79229   0.98663

  Beta  occ. eigenvalues --  -89.91898  -8.28688  -6.20576  -6.20004  -6.19709
  Beta  occ. eigenvalues --   -0.77581  -0.45730  -0.31434
  Beta virt. eigenvalues --   -0.13304   0.02020   0.05096   0.06139   0.06231
  Beta virt. eigenvalues --    0.08628   0.31771   0.32846   0.35409   0.40471
  Beta virt. eigenvalues --    0.60295   0.75829   0.75957   0.84428   0.86775

 Mulliken charges and spin densities:
               1          2
     1  S   -0.070657   1.028454
     2  H    0.070657  -0.028454
 Sum of Mulliken charges =   0.00000   1.00000

 Dipole moment (field-independent basis, Debye):
    X=             -0.1484    Y=             -1.0760    Z=              0.0000  Tot=              1.0862
 Quadrupole moment (field-independent basis, Debye-Ang):
   XX=            -15.6506   YY=            -12.0788   ZZ=            -12.9815
   XY=              1.6678   XZ=             -0.0000   YZ=              0.0000

 Optimization completed.
    -- Stationary point found.

                          Input orientation:
 ---------------------------------------------------------------------
 Center     Atomic      Atomic             Coordinates (Angstroms)
 Number     Number       Type             X           Y           Z
 ---------------------------------------------------------------------
      1         16           0       -1.043191    0.000000    0.000000
      2          1           0       -1.226833   -1.332250    0.000000
 ---------------------------------------------------------------------

 1\1\GINC-NODE02\FOpt\UM062X\6-311+G(d,p)\H1S1(2)\SZHAO\16-Apr-2025\0\\
 #p opt UM062X/6-311+G** nosymm int=superfine\\Title Card Required\\0,2
 \S,-1.04319129,0.,0.\H,-1.22683327,-1.33225014,0.\\Version=ES64L-G16Re
 vA.03\HF=-398.7299883\S2=0.752991\S2-1=0.\S2A=0.750005\RMSD=1.403e-09\
 RMSF=7.254e-05\Dipole=-0.0583752,-0.4233282,0.\Quadrupole=-1.5466261,1
 .108867,0.4377591,1.2400009,0.,0.\PG=C*V [C*(H1S1)]\\@

 Normal termination of Gaussian 16 at Wed Apr 16 09:02:00 2025.
