 Gaussian 16, Revision A.03,
 Gaussian 16:  ES64L-G16RevA.03 25-Dec-2016

 ---------------------------------------------------
 #p UM062X/6-311+G** force int=superfine pop=saveNBO
 ---------------------------------------------------

 -------------------
 Title Card Required
 -------------------
 Symbolic Z-matrix:
 Charge =  0 Multiplicity = 1

                         Standard orientation:
 ---------------------------------------------------------------------
 Center     Atomic      Atomic             Coordinates (Angstroms)
 Number     Number       Type             X           Y           Z
 ---------------------------------------------------------------------
      1          8           0        0.000000    0.000000   -1.993424
      2         16           0        0.000000    0.000000    0.996712
 ---------------------------------------------------------------------

 SCF Done:  E(UM062X) =  -472.975143082     A.U. after   18 cycles

 Unable to determine electronic state:  an orbital has unidentified symmetry.
 Alpha  occ. eigenvalues --  -90.03567 -19.75675  -8.39178  -6.31211  -6.31205
 Alpha  occ. eigenvalues --   -6.30294  -1.04236  -0.81332  -0.42757  -0.38104
 Alpha  occ. eigenvalues --   -0.37764  -0.35567
 Alpha virt. eigenvalues --   -0.25222  -0.22404   0.02604   0.04718   0.05213
 Alpha virt. eigenvalues --    0.05641   0.17503   0.19669   0.19875   0.24979
 Alpha virt. eigenvalues --    0.32316   0.33271   0.34301   0.56875   0.73778

  Beta  occ. eigenvalues --  -90.03567 -19.75675  -8.39178  -6.31211  -6.31205
  Beta  occ. eigenvalues --   -6.30294  -1.04236  -0.81332  -0.42757  -0.38104
  Beta  occ. eigenvalues --   -0.37764  -0.35567
  Beta virt. eigenvalues --   -0.25222  -0.22404   0.02604   0.04718   0.05213
  Beta virt. eigenvalues --    0.05641   0.17503   0.19669   0.19875   0.24979
  Beta virt. eigenvalues --    0.32316   0.33271   0.34301   0.56875   0.73778

 Mulliken charges and spin densities:
               1          2
     1  O   -0.197684  -0.000000
     2  S    0.197684   0.000000
 Sum of Mulliken charges =  -0.00000  -0.00000

 Dipole moment (field-independent basis, Debye):
    X=              0.0000    Y=              0.0000    Z=              2.8358  Tot=              2.8358
 Quadrupole moment (field-independent basis, Debye-Ang):
   XX=            -17.3809   YY=            -20.8522   ZZ=            -18.6760
   XY=              0.0000   XZ=              0.0000   YZ=              0.0000

 Summary of Natural Population Analysis:

                                       Natural Population
                Natural  -----------------------------------------------
    Atom  No    Charge         Core      Valence    Rydberg      Total
 -----------------------------------------------------------------------
      O    1   -0.11866      1.00000     3.11760    0.00106     4.11866
      S    2    0.11866      5.00000     2.88068    0.00067     7.88134
 =======================================================================
   * Total *   -0.00000      6.00000     5.99827    0.00173    12.00000

 Normal termination of Gaussian 16 at Mon Apr 21 20:01:04 2025.
