 Gaussian 16, Revision A.03,
 Gaussian 16:  ES64L-G16RevA.03 25-Dec-2016

 --------------------------------------------
 #p opt UM062X/6-311+G** nosymm int=superfine
 --------------------------------------------

 -------------------
 Title Card Required
 -------------------
 Symbolic Z-matrix:
 Charge =  0 Multiplicity = 1

 SCF Done:  E(UM062X) =  -93.1729739773     A.U. after   10 cycles
 SCF Done:  E(UM062X) =  -93.1732384192     A.U. after    9 cycles
 Optimization completed.
    -- Stationary point found.

                          Input orientation:
 ---------------------------------------------------------------------
 Center     Atomic      Atomic             Coordinates (Angstroms)
 Number     Number       Type             X           Y           Z
 ---------------------------------------------------------------------
      1          6           0       -0.822395    0.000000    0.000000
      2          7           0        0.822395    0.000000    0.000000
      3          1           0       -1.910378    0.000000    0.000000
 ---------------------------------------------------------------------

 Alpha  occ. eigenvalues --  -14.88255 -10.70430  -0.89073  -0.73528  -0.47115
 Alpha  occ. eigenvalues --   -0.35486  -0.35486
 Alpha virt. eigenvalues --   -0.08054  -0.08054   0.00020   0.02271   0.07126
 Alpha virt. eigenvalues --    0.07126   0.08734   0.14204   0.17335   0.17335
 Alpha virt. eigenvalues --    0.23623   0.28136   0.51953   0.55604   0.55604

  Beta  occ. eigenvalues --  -14.88255 -10.70430  -0.89073  -0.73528  -0.47115
  Beta  occ. eigenvalues --   -0.35486  -0.35486
  Beta virt. eigenvalues --   -0.08054  -0.08054   0.00020   0.02271   0.07126
  Beta virt. eigenvalues --    0.07126   0.08734   0.14204   0.17335   0.17335
  Beta virt. eigenvalues --    0.23623   0.28136   0.51953   0.55604   0.55604

 Mulliken charges and spin densities:
               1          2
     1  C   -0.158257  -0.000000
     2  N   -0.082031   0.000000
     3  H    0.240288   0.000000
 Sum of Mulliken charges =   0.00000  -0.00000

 Dipole moment (field-independent basis, Debye):
    X=             -3.1190    Y=             -0.0000    Z=              0.0000  Tot=              3.1190
 Quadrupole moment (field-independent basis, Debye-Ang):
   XX=             -8.1827   YY=            -13.4422   ZZ=            -13.4422
   XY=              0.0000   XZ=             -0.0000   YZ=             -0.0000

 Normal termination of Gaussian 16 at Mon Apr 21 18:38:25 2025.
