 Gaussian 16, Revision A.03,
 Gaussian 16:  ES64L-G16RevA.03 25-Dec-2016

 --------------------------------------------
 #p opt UM062X/6-311+G** nosymm int=superfine
 --------------------------------------------

 -------------------
 Title Card Required
 -------------------
 Symbolic Z-matrix:
 Charge =  1 Multiplicity = 2

 SCF Done:  E(UM062X) =  -379.295511093     A.U. after   36 cycles
 SCF Done:  E(UM062X) =  -379.296252494     A.U. after   19 cycles
 SCF Done:  E(UM062X) =  -379.296253778     A.U. after   16 cycles
 Optimization completed.
    -- Stationary point found.

                          Input orientation:
 ---------------------------------------------------------------------
 Center     Atomic      Atomic             Coordinates (Angstroms)
 Number     Number       Type             X           Y           Z
 ---------------------------------------------------------------------
      1          6           0       -1.744427    0.000000    0.000000
      2         15           0        1.744427    0.000000    0.000000
      3          1           0       -2.864731   -0.000000    0.000000
 ---------------------------------------------------------------------

 Alpha  occ. eigenvalues --  -78.32990 -10.99097  -7.14513  -5.26527  -5.26304
 Alpha  occ. eigenvalues --   -5.25128  -1.01425  -0.85622  -0.67191  -0.49177
 Alpha  occ. eigenvalues --   -0.47251
 Alpha virt. eigenvalues --   -0.40350  -0.37983  -0.34211  -0.13607  -0.09685
 Alpha virt. eigenvalues --   -0.08382  -0.08371  -0.06593  -0.05496  -0.05264
 Alpha virt. eigenvalues --   -0.02248   0.00089   0.16304   0.16630   0.16797

  Beta  occ. eigenvalues --  -78.32443 -10.98940  -7.14382  -5.26160  -5.24985
  Beta  occ. eigenvalues --   -5.24959  -0.99936  -0.81672  -0.66514  -0.46084
  Beta virt. eigenvalues --   -0.36679  -0.34734  -0.33057  -0.30510  -0.14269
  Beta virt. eigenvalues --   -0.10829  -0.08639  -0.08571  -0.06925  -0.05363
  Beta virt. eigenvalues --   -0.04978  -0.03009   0.00590   0.13864   0.16001

 Mulliken charges and spin densities:
               1          2
     1  C    0.242814   0.285484
     2  P    0.497339   0.722727
     3  H    0.259847  -0.008212
 Sum of Mulliken charges =   1.00000   1.00000

 Dipole moment (field-independent basis, Debye):
    X=             -2.2761    Y=             -0.0000    Z=              0.0000  Tot=              2.2761
 Quadrupole moment (field-independent basis, Debye-Ang):
   XX=              9.4832   YY=            -16.6826   ZZ=            -20.1993
   XY=             -0.0000   XZ=             -0.0000   YZ=             -0.1813

 Normal termination of Gaussian 16 at Mon Apr 21 19:26:52 2025.
