 Gaussian 16, Revision A.03,
 Gaussian 16:  ES64L-G16RevA.03 25-Dec-2016

 ---------------------------------------------------
 #p UM062X/6-311+G** force int=superfine pop=saveNBO
 ---------------------------------------------------

 -------------------
 Title Card Required
 -------------------
 Symbolic Z-matrix:
 Charge =  0 Multiplicity = 1

                         Standard orientation:
 ---------------------------------------------------------------------
 Center     Atomic      Atomic             Coordinates (Angstroms)
 Number     Number       Type             X           Y           Z
 ---------------------------------------------------------------------
      1          6           0        0.000000    0.000000   -3.293521
      2         16           0        0.000000    0.000000    1.235071
 ---------------------------------------------------------------------

 SCF Done:  E(UM062X) =  -435.715580640     A.U. after   23 cycles

 The electronic state is 1-SG.
 Alpha  occ. eigenvalues --  -89.92759 -10.82408  -8.28632  -6.20406  -6.20406
 Alpha  occ. eigenvalues --   -6.20393  -0.72534  -0.71346  -0.28158  -0.27511
 Alpha  occ. eigenvalues --   -0.27511
 Alpha virt. eigenvalues --   -0.21147  -0.21147  -0.20310   0.02325   0.05512
 Alpha virt. eigenvalues --    0.05512   0.05540   0.08059   0.08224   0.08224
 Alpha virt. eigenvalues --    0.12911   0.36570   0.36832   0.36832   0.50973

  Beta  occ. eigenvalues --  -89.92759 -10.82408  -8.28632  -6.20406  -6.20406
  Beta  occ. eigenvalues --   -6.20393  -0.72534  -0.71346  -0.28158  -0.27511
  Beta  occ. eigenvalues --   -0.27511
  Beta virt. eigenvalues --   -0.21147  -0.21147  -0.20310   0.02325   0.05512
  Beta virt. eigenvalues --    0.05512   0.05540   0.08059   0.08224   0.08224
  Beta virt. eigenvalues --    0.12911   0.36570   0.36832   0.36832   0.50973

 Mulliken charges and spin densities:
               1          2
     1  C    0.218784   0.000000
     2  S   -0.218784  -0.000000
 Sum of Mulliken charges =  -0.00000  -0.00000

 Dipole moment (field-independent basis, Debye):
    X=              0.0000    Y=              0.0000    Z=             -4.8120  Tot=              4.8120
 Quadrupole moment (field-independent basis, Debye-Ang):
   XX=            -20.8831   YY=            -20.8831   ZZ=             -8.7328
   XY=              0.0000   XZ=              0.0000   YZ=              0.0000

 Summary of Natural Population Analysis:

                                       Natural Population
                Natural  -----------------------------------------------
    Atom  No    Charge         Core      Valence    Rydberg      Total
 -----------------------------------------------------------------------
      C    1    0.12093      1.00000     1.87871    0.00037     2.87907
      S    2   -0.12093      5.00000     3.12073    0.00020     8.12093
 =======================================================================
   * Total *   -0.00000      6.00000     4.99944    0.00056    11.00000

 Normal termination of Gaussian 16 at Mon Apr 21 19:46:21 2025.
