 Gaussian 16, Revision A.03,
 Gaussian 16:  ES64L-G16RevA.03 25-Dec-2016

 ---------------------------------------------------
 #p UM062X/6-311+G** force int=superfine pop=saveNBO
 ---------------------------------------------------

 -------------------
 Title Card Required
 -------------------
 Symbolic Z-matrix:
 Charge =  0 Multiplicity = 1

                         Standard orientation:
 ---------------------------------------------------------------------
 Center     Atomic      Atomic             Coordinates (Angstroms)
 Number     Number       Type             X           Y           Z
 ---------------------------------------------------------------------
      1         16           0        0.000000    0.000000    1.300200
      2         16           0        0.000000    0.000000   -1.300200
 ---------------------------------------------------------------------

 SCF Done:  E(UM062X) =  -796.197081622     A.U. after    9 cycles

 Unable to determine electronic state:  partially filled degenerate orbitals.
 Alpha  occ. eigenvalues --  -89.98781 -89.98781  -8.34469  -8.34465  -6.26520
 Alpha  occ. eigenvalues --   -6.26520  -6.26480  -6.26478  -6.25664  -6.25664
 Alpha  occ. eigenvalues --   -0.81703  -0.74823  -0.39740  -0.36849  -0.34885
 Alpha  occ. eigenvalues --   -0.32289
 Alpha virt. eigenvalues --   -0.20263  -0.12745   0.03153   0.03996   0.04909
 Alpha virt. eigenvalues --    0.05546   0.07408   0.07440   0.07975   0.14191
 Alpha virt. eigenvalues --    0.31412   0.32306   0.33359   0.36022   0.36824

  Beta  occ. eigenvalues --  -89.98781 -89.98781  -8.34469  -8.34465  -6.26520
  Beta  occ. eigenvalues --   -6.26520  -6.26480  -6.26478  -6.25664  -6.25664
  Beta  occ. eigenvalues --   -0.81703  -0.74823  -0.39740  -0.36849  -0.34885
  Beta  occ. eigenvalues --   -0.32289
  Beta virt. eigenvalues --   -0.20263  -0.12745   0.03153   0.03996   0.04909
  Beta virt. eigenvalues --    0.05546   0.07408   0.07440   0.07975   0.14191
  Beta virt. eigenvalues --    0.31412   0.32306   0.33359   0.36022   0.36824

 Mulliken charges and spin densities:
               1          2
     1  S    0.000000   0.000000
     2  S    0.000000   0.000000
 Sum of Mulliken charges =   0.00000   0.00000

 Dipole moment (field-independent basis, Debye):
    X=              0.0000    Y=             -0.0000    Z=              0.0000  Tot=              0.0000
 Quadrupole moment (field-independent basis, Debye-Ang):
   XX=            -25.0481   YY=            -29.9468   ZZ=            -23.4509
   XY=              0.0000   XZ=             -0.0000   YZ=              0.0000

 Summary of Natural Population Analysis:

                                       Natural Population
                Natural  -----------------------------------------------
    Atom  No    Charge         Core      Valence    Rydberg      Total
 -----------------------------------------------------------------------
      S    1    0.00000      4.99998     2.99694    0.00308     8.00000
      S    2   -0.00000      4.99998     2.99694    0.00308     8.00000
 =======================================================================
   * Total *    0.00000      9.99996     5.99388    0.00616    16.00000

 Normal termination of Gaussian 16 at Mon Apr 21 20:07:59 2025.
