 Gaussian 16, Revision A.03,
 Gaussian 16:  ES64L-G16RevA.03 25-Dec-2016

 --------------------------------------------
 #p opt UM062X/6-311+G** nosymm int=superfine
 --------------------------------------------

 -------------------
 Title Card Required
 -------------------
 Symbolic Z-matrix:
 Charge = -1 Multiplicity = 2

 SCF Done:  E(UM062X) =  -53.1963251533     A.U. after   12 cycles
 SCF Done:  E(UM062X) =  -53.2009625087     A.U. after   11 cycles
 SCF Done:  E(UM062X) =  -53.2020097854     A.U. after   10 cycles
 SCF Done:  E(UM062X) =  -53.2020128846     A.U. after    8 cycles
 Optimization completed.
    -- Stationary point found.

                          Input orientation:
 ---------------------------------------------------------------------
 Center     Atomic      Atomic             Coordinates (Angstroms)
 Number     Number       Type             X           Y           Z
 ---------------------------------------------------------------------
      1          5           0       -2.240672    0.000000    0.000000
      2          5           0        2.240672    0.000000    0.000000
      3          1           0        2.295722   -1.197032   -0.000015
      4          1           0       -2.295477   -0.598518    1.036675
      5          1           0        2.295642    0.598536   -1.036656
      6          1           0        2.295409    0.598505    1.036686
      7          1           0       -2.295730    1.197031   -0.000001
      8          1           0       -2.295566   -0.598523   -1.036667
 ---------------------------------------------------------------------

 Alpha  occ. eigenvalues --   -6.85157  -6.85157  -0.40422  -0.40111  -0.22299
 Alpha  occ. eigenvalues --   -0.22299  -0.22168  -0.22168   0.01362
 Alpha virt. eigenvalues --    0.10440   0.16529   0.17586   0.17586   0.18110
 Alpha virt. eigenvalues --    0.18110   0.18538   0.23209   0.24050   0.32762
 Alpha virt. eigenvalues --    0.32763   0.33763   0.33763   0.35086   0.38551

  Beta  occ. eigenvalues --   -6.85120  -6.85120  -0.38751  -0.38541  -0.22150
  Beta  occ. eigenvalues --   -0.22150  -0.21997  -0.21997
  Beta virt. eigenvalues --    0.07533   0.12966   0.13105   0.14306   0.14306
  Beta virt. eigenvalues --    0.17560   0.17560   0.20051   0.22280   0.24706
  Beta virt. eigenvalues --    0.31701   0.31701   0.32834   0.32835   0.32892

 Mulliken charges and spin densities:
               1          2
     1  B   -0.359113   0.549003
     2  B   -0.359113   0.549003
     3  H   -0.046984  -0.016353
     4  H   -0.046950  -0.016325
     5  H   -0.046956  -0.016325
     6  H   -0.046947  -0.016325
     7  H   -0.046984  -0.016353
     8  H   -0.046953  -0.016325
 Sum of Mulliken charges =  -1.00000   1.00000

 Dipole moment (field-independent basis, Debye):
    X=              0.0000    Y=             -0.0000    Z=              0.0001  Tot=              0.0001
 Quadrupole moment (field-independent basis, Debye-Ang):
   XX=            -47.8054   YY=            -24.3592   ZZ=            -24.3590
   XY=              0.0001   XZ=              0.0000   YZ=              0.0000

 Normal termination of Gaussian 16 at Mon Apr 21 16:57:16 2025.
