 Gaussian 16, Revision A.03,
 Gaussian 16:  ES64L-G16RevA.03 25-Dec-2016

 --------------------------------------------
 #p opt UM062X/6-311+G** nosymm int=superfine
 --------------------------------------------

 -------------------
 Title Card Required
 -------------------
 Symbolic Z-matrix:
 Charge =  0 Multiplicity = 1

 SCF Done:  E(UM062X) =  -79.5731099577     A.U. after   10 cycles
 SCF Done:  E(UM062X) =  -79.5768330561     A.U. after    9 cycles
 SCF Done:  E(UM062X) =  -79.5783475084     A.U. after   10 cycles
 SCF Done:  E(UM062X) =  -79.5783574026     A.U. after    9 cycles
 Optimization completed.
    -- Stationary point found.

                          Input orientation:
 ---------------------------------------------------------------------
 Center     Atomic      Atomic             Coordinates (Angstroms)
 Number     Number       Type             X           Y           Z
 ---------------------------------------------------------------------
      1          6           0       -1.921675    0.000000    0.000000
      2          6           0        1.921800    0.000000    0.000000
      3          1           0        1.983360   -0.933207    0.539998
      4          1           0       -1.983220   -0.934260   -0.538176
      5          1           0        1.983349    0.934260    0.538176
      6          1           0        1.983354   -0.001052   -1.078181
      7          1           0       -1.983235    0.933207   -0.539998
      8          1           0       -1.983233    0.001051    1.078181
 ---------------------------------------------------------------------

 Alpha  occ. eigenvalues --  -10.57240 -10.57239  -0.77101  -0.76740  -0.49235
 Alpha  occ. eigenvalues --   -0.49235  -0.49082  -0.49082  -0.21870
 Alpha virt. eigenvalues --   -0.11115   0.03109   0.05029   0.05304   0.05304
 Alpha virt. eigenvalues --    0.07438   0.07438   0.11406   0.12576   0.18628
 Alpha virt. eigenvalues --    0.18628   0.20273   0.20273   0.22307   0.25027

  Beta  occ. eigenvalues --  -10.57240 -10.57239  -0.77101  -0.76740  -0.49235
  Beta  occ. eigenvalues --   -0.49235  -0.49082  -0.49082  -0.21870
  Beta virt. eigenvalues --   -0.11115   0.03109   0.05029   0.05304   0.05304
  Beta virt. eigenvalues --    0.07438   0.07438   0.11406   0.12576   0.18628
  Beta virt. eigenvalues --    0.18628   0.20273   0.20273   0.22307   0.25027

 Mulliken charges and spin densities:
               1          2
     1  C   -0.525237   0.000000
     2  C   -0.525237  -0.000000
     3  H    0.175079   0.000000
     4  H    0.175079  -0.000000
     5  H    0.175079   0.000000
     6  H    0.175079   0.000000
     7  H    0.175079  -0.000000
     8  H    0.175079  -0.000000
 Sum of Mulliken charges =  -0.00000   0.00000

 Dipole moment (field-independent basis, Debye):
    X=             -0.0000    Y=             -0.0000    Z=             -0.0000  Tot=              0.0000
 Quadrupole moment (field-independent basis, Debye-Ang):
   XX=            -15.6845   YY=            -14.8638   ZZ=            -14.8639
   XY=             -0.0000   XZ=             -0.0000   YZ=             -0.0000

 Normal termination of Gaussian 16 at Tue Dec  3 10:07:04 2024.
