 Gaussian 16, Revision A.03,
 Gaussian 16:  ES64L-G16RevA.03 25-Dec-2016

 --------------------------------------------
 #p opt UM062X/6-311+G** nosymm int=superfine
 --------------------------------------------

 -------------------
 Title Card Required
 -------------------
 Symbolic Z-matrix:
 Charge =  0 Multiplicity = 1

 SCF Done:  E(UM062X) =  -83.1243217523     A.U. after   10 cycles
 SCF Done:  E(UM062X) =  -83.1395409748     A.U. after    9 cycles
 SCF Done:  E(UM062X) =  -83.1427426757     A.U. after    9 cycles
 SCF Done:  E(UM062X) =  -83.1427641074     A.U. after    7 cycles
 Optimization completed.
    -- Stationary point found.

                          Input orientation:
 ---------------------------------------------------------------------
 Center     Atomic      Atomic             Coordinates (Angstroms)
 Number     Number       Type             X           Y           Z
 ---------------------------------------------------------------------
      1          5           0       -1.752429    0.000000    0.000000
      2          7           0        1.752429    0.000000    0.000000
      3          1           0        2.115533   -0.945620   -0.000000
      4          1           0       -1.769889   -0.594058    1.028900
      5          1           0        2.115425    0.472863   -0.818952
      6          1           0        2.115412    0.472858    0.818961
      7          1           0       -1.769887    1.188081    0.000016
      8          1           0       -1.769905   -0.594032   -1.028915
 ---------------------------------------------------------------------

 Alpha  occ. eigenvalues --  -14.73235  -7.03935  -0.96429  -0.57123  -0.54271
 Alpha  occ. eigenvalues --   -0.54271  -0.39556  -0.39556  -0.34600
 Alpha virt. eigenvalues --   -0.01749   0.02374   0.04807   0.04807   0.05402
 Alpha virt. eigenvalues --    0.08467   0.10841   0.10841   0.17735   0.17735
 Alpha virt. eigenvalues --    0.17795   0.19474   0.19474   0.22972   0.27779

  Beta  occ. eigenvalues --  -14.73235  -7.03935  -0.96429  -0.57123  -0.54271
  Beta  occ. eigenvalues --   -0.54271  -0.39556  -0.39556  -0.34600
  Beta virt. eigenvalues --   -0.01749   0.02374   0.04807   0.04807   0.05402
  Beta virt. eigenvalues --    0.08467   0.10841   0.10841   0.17735   0.17735
  Beta virt. eigenvalues --    0.17795   0.19474   0.19474   0.22972   0.27779

 Mulliken charges and spin densities:
               1          2
     1  B    0.014606  -0.000000
     2  N   -0.735200  -0.000000
     3  H    0.247830   0.000000
     4  H   -0.007634  -0.000000
     5  H    0.247831   0.000000
     6  H    0.247831   0.000000
     7  H   -0.007629   0.000000
     8  H   -0.007634   0.000000
 Sum of Mulliken charges =  -0.00000  -0.00000

 Dipole moment (field-independent basis, Debye):
    X=              2.0608    Y=              0.0002    Z=              0.0000  Tot=              2.0608
 Quadrupole moment (field-independent basis, Debye-Ang):
   XX=            -10.7253   YY=            -15.6790   ZZ=            -15.6791
   XY=              0.0000   XZ=             -0.0000   YZ=              0.0000

 Normal termination of Gaussian 16 at Mon Apr 21 17:34:42 2025.
