 Gaussian 16, Revision A.03,
 Gaussian 16:  ES64L-G16RevA.03 25-Dec-2016

 --------------------------------------------
 #p opt UM062X/6-311+G** nosymm int=superfine
 --------------------------------------------

 -------------------
 Title Card Required
 -------------------
 Symbolic Z-matrix:
 Charge =  0 Multiplicity = 1

 SCF Done:  E(UM062X) =  -380.930388480     A.U. after   21 cycles
 SCF Done:  E(UM062X) =  -380.930385723     A.U. after   16 cycles
 SCF Done:  E(UM062X) =  -380.930388461     A.U. after   12 cycles
 SCF Done:  E(UM062X) =  -380.930388510     A.U. after   18 cycles
 SCF Done:  E(UM062X) =  -380.930388457     A.U. after   15 cycles
 SCF Done:  E(UM062X) =  -380.930388490     A.U. after   10 cycles
 Optimization completed.
    -- Stationary point found.

                          Input orientation:
 ---------------------------------------------------------------------
 Center     Atomic      Atomic             Coordinates (Angstroms)
 Number     Number       Type             X           Y           Z
 ---------------------------------------------------------------------
      1          6           0       -2.330452    0.000000    0.000000
      2         15           0        2.330452    0.000000    0.000000
      3          1           0       -3.065183   -0.828348    0.044254
      4          1           0        1.999258   -1.379685   -0.078650
      5          1           0       -2.984165    0.893780   -0.040960
 ---------------------------------------------------------------------

 Alpha  occ. eigenvalues --  -78.04841 -10.61743  -6.87116  -4.99132  -4.98354
 Alpha  occ. eigenvalues --   -4.97890  -0.76517  -0.65986  -0.48499  -0.38635
 Alpha  occ. eigenvalues --   -0.32413  -0.24760
 Alpha virt. eigenvalues --   -0.11744  -0.09054   0.01536   0.03559   0.04530
 Alpha virt. eigenvalues --    0.05896   0.06892   0.07047   0.08747   0.10023
 Alpha virt. eigenvalues --    0.13368   0.17422   0.19012   0.31222   0.33387

  Beta  occ. eigenvalues --  -78.04841 -10.61743  -6.87116  -4.99132  -4.98354
  Beta  occ. eigenvalues --   -4.97890  -0.76517  -0.65986  -0.48499  -0.38635
  Beta  occ. eigenvalues --   -0.32413  -0.24760
  Beta virt. eigenvalues --   -0.11744  -0.09054   0.01536   0.03559   0.04530
  Beta virt. eigenvalues --    0.05896   0.06892   0.07047   0.08747   0.10023
  Beta virt. eigenvalues --    0.13368   0.17422   0.19012   0.31222   0.33387

 Mulliken charges and spin densities:
               1          2
     1  C   -0.275702   0.000000
     2  P    0.040266  -0.000000
     3  H    0.133995   0.000000
     4  H   -0.032421  -0.000000
     5  H    0.133862  -0.000000
 Sum of Mulliken charges =  -0.00000  -0.00000

 Dipole moment (field-independent basis, Debye):
    X=             -2.4167    Y=             -0.5748    Z=             -0.0333  Tot=              2.4843
 Quadrupole moment (field-independent basis, Debye-Ang):
   XX=            -11.6755   YY=            -21.2986   ZZ=            -25.1852
   XY=             -2.4158   XZ=             -0.1242   YZ=              0.2969

 Normal termination of Gaussian 16 at Mon Apr 21 22:39:17 2025.
