 Gaussian 16, Revision A.03,
 Gaussian 16:  ES64L-G16RevA.03 25-Dec-2016

 --------------------------------------------
 #p opt UM062X/6-311+G** nosymm int=superfine
 --------------------------------------------

 -------------------
 Title Card Required
 -------------------
 Symbolic Z-matrix:
 Charge =  0 Multiplicity = 1

 SCF Done:  E(UM062X) =  -81.6892918460     A.U. after   25 cycles
 SCF Done:  E(UM062X) =  -81.7018815626     A.U. after   16 cycles
 SCF Done:  E(UM062X) =  -81.7074855162     A.U. after   16 cycles
 SCF Done:  E(UM062X) =  -81.7090774798     A.U. after   16 cycles
 SCF Done:  E(UM062X) =  -81.7117684590     A.U. after   14 cycles
 SCF Done:  E(UM062X) =  -81.7133804747     A.U. after   16 cycles
 SCF Done:  E(UM062X) =  -81.7136184594     A.U. after   14 cycles
 SCF Done:  E(UM062X) =  -81.7138956322     A.U. after   19 cycles
 SCF Done:  E(UM062X) =  -81.7141723763     A.U. after   14 cycles
 SCF Done:  E(UM062X) =  -81.7142859706     A.U. after   14 cycles
 SCF Done:  E(UM062X) =  -81.7143280945     A.U. after   12 cycles
 SCF Done:  E(UM062X) =  -81.7143334798     A.U. after   15 cycles
 SCF Done:  E(UM062X) =  -81.7143339272     A.U. after   12 cycles
 Optimization completed.
    -- Stationary point found.

                          Input orientation:
 ---------------------------------------------------------------------
 Center     Atomic      Atomic             Coordinates (Angstroms)
 Number     Number       Type             X           Y           Z
 ---------------------------------------------------------------------
      1          5           0       -2.120399    0.000000    0.000000
      2          7           0        2.120399    0.000000    0.000000
      3          1           0       -2.433719   -1.128696   -0.027945
      4          1           0        2.093404    0.802283    0.638182
      5          1           0       -2.433719    1.128683   -0.028461
      6          1           0        2.093406   -0.802032    0.638498
 ---------------------------------------------------------------------

 Alpha  occ. eigenvalues --  -14.71411  -7.18694  -0.87227  -0.63562  -0.52367
 Alpha  occ. eigenvalues --   -0.47883  -0.33146  -0.22159
 Alpha virt. eigenvalues --   -0.12621  -0.09460   0.00437   0.02466   0.04134
 Alpha virt. eigenvalues --    0.04992   0.08800   0.11057   0.13535   0.17373
 Alpha virt. eigenvalues --    0.19604   0.19911   0.21803   0.25981   0.31870

  Beta  occ. eigenvalues --  -14.71411  -7.18694  -0.87227  -0.63562  -0.52367
  Beta  occ. eigenvalues --   -0.47883  -0.33146  -0.22159
  Beta virt. eigenvalues --   -0.12621  -0.09460   0.00437   0.02466   0.04134
  Beta virt. eigenvalues --    0.04992   0.08800   0.11057   0.13535   0.17373
  Beta virt. eigenvalues --    0.19604   0.19911   0.21803   0.25981   0.31870

 Mulliken charges and spin densities:
               1          2
     1  B    0.133199   0.000000
     2  N   -0.677118  -0.000000
     3  H    0.072705  -0.000000
     4  H    0.199255   0.000000
     5  H    0.072704  -0.000000
     6  H    0.199255   0.000000
 Sum of Mulliken charges =  -0.00000  -0.00000

 Dipole moment (field-independent basis, Debye):
    X=             -6.0893    Y=              0.0004    Z=              1.8986  Tot=              6.3784
 Quadrupole moment (field-independent basis, Debye-Ang):
   XX=            -13.7914   YY=            -13.4683   ZZ=            -14.6486
   XY=              0.0008   XZ=              4.2311   YZ=             -0.0002

 Normal termination of Gaussian 16 at Mon Apr 21 17:56:18 2025.
