 Gaussian 16, Revision A.03,
 Gaussian 16:  ES64L-G16RevA.03 25-Dec-2016

 --------------------------------------------
 #p opt UM062X/6-311+G** nosymm int=superfine
 --------------------------------------------

 -------------------
 Title Card Required
 -------------------
 Symbolic Z-matrix:
 Charge =  0 Multiplicity = 1

 SCF Done:  E(UM062X) =  -77.2461148669     A.U. after    9 cycles
 SCF Done:  E(UM062X) =  -77.2702953378     A.U. after    9 cycles
 SCF Done:  E(UM062X) =  -77.2704361893     A.U. after    7 cycles
 Optimization completed.
    -- Stationary point found.

                          Input orientation:
 ---------------------------------------------------------------------
 Center     Atomic      Atomic             Coordinates (Angstroms)
 Number     Number       Type             X           Y           Z
 ---------------------------------------------------------------------
      1          6           0       -0.532679    0.000000    0.000000
      2          6           0        0.532679    0.000000    0.000000
      3          1           0       -1.594656   -0.000000   -0.000000
      4          1           0        1.594656   -0.000000   -0.000000
 ---------------------------------------------------------------------

 Alpha  occ. eigenvalues --  -10.51039 -10.50254  -0.88087  -0.62806  -0.56757
 Alpha  occ. eigenvalues --   -0.38359  -0.38359
 Alpha virt. eigenvalues --    0.02746   0.03175   0.06464   0.06464   0.07354
 Alpha virt. eigenvalues --    0.07354   0.09370   0.16537   0.17889   0.17889
 Alpha virt. eigenvalues --    0.21175   0.24807   0.43718   0.44212   0.55196

  Beta  occ. eigenvalues --  -10.51039 -10.50254  -0.88087  -0.62806  -0.56757
  Beta  occ. eigenvalues --   -0.38359  -0.38359
  Beta virt. eigenvalues --    0.02746   0.03175   0.06464   0.06464   0.07354
  Beta virt. eigenvalues --    0.07354   0.09370   0.16537   0.17889   0.17889
  Beta virt. eigenvalues --    0.21175   0.24807   0.43718   0.44212   0.55196

 Mulliken charges and spin densities:
               1          2
     1  C   -0.147772   0.000000
     2  C   -0.147771  -0.000000
     3  H    0.147771   0.000000
     4  H    0.147771  -0.000000
 Sum of Mulliken charges =  -0.00000   0.00000

 Dipole moment (field-independent basis, Debye):
    X=              0.0000    Y=             -0.0000    Z=             -0.0000  Tot=              0.0000
 Quadrupole moment (field-independent basis, Debye-Ang):
   XX=             -7.2965   YY=            -13.1206   ZZ=            -13.1206
   XY=             -0.0000   XZ=             -0.0000   YZ=             -0.0000

 Normal termination of Gaussian 16 at Tue Dec  3 20:00:50 2024.
