 Gaussian 16, Revision A.03,
 Gaussian 16:  ES64L-G16RevA.03 25-Dec-2016

 ---------------------------------------
 #p UM062X/6-311+G** force int=superfine
 ---------------------------------------

 -------------------
 Title Card Required
 -------------------
 Symbolic Z-matrix:
 Charge =  1 Multiplicity = 2

                         Standard orientation:
 ---------------------------------------------------------------------
 Center     Atomic      Atomic             Coordinates (Angstroms)
 Number     Number       Type             X           Y           Z
 ---------------------------------------------------------------------
      1          6           0       -0.000000    0.933097   -0.000000
      2          6           0       -0.000000   -0.933097    0.000000
      3          1           0        0.971203    1.416053   -0.000000
      4          1           0       -0.971121    1.416088   -0.000000
      5          1           0       -0.971203   -1.416053    0.000000
      6          1           0        0.971121   -1.416088    0.000000
 ---------------------------------------------------------------------

 SCF Done:  E(UM062X) =  -78.1012900570     A.U. after    9 cycles

 The electronic state is 2-AU.
 Alpha  occ. eigenvalues --  -10.91859 -10.91838  -1.08718  -0.99598  -0.81330
 Alpha  occ. eigenvalues --   -0.76718  -0.70310  -0.58305
 Alpha virt. eigenvalues --   -0.35218  -0.19630  -0.14304  -0.11190  -0.09397
 Alpha virt. eigenvalues --   -0.08647  -0.07370  -0.07319  -0.04728  -0.04357
 Alpha virt. eigenvalues --   -0.02119  -0.01098   0.02409   0.09565   0.18269

  Beta  occ. eigenvalues --  -10.91628 -10.91615  -1.05472  -0.97438  -0.80688
  Beta  occ. eigenvalues --   -0.76367  -0.68944
  Beta virt. eigenvalues --   -0.36734  -0.26859  -0.17344  -0.15776  -0.11560
  Beta virt. eigenvalues --   -0.09065  -0.08352  -0.07873  -0.07341  -0.04391
  Beta virt. eigenvalues --   -0.03997  -0.01706  -0.00485   0.01711   0.10184

 Mulliken charges and spin densities:
               1          2
     1  C   -0.065106   0.540534
     2  C   -0.065106   0.540534
     3  H    0.282555  -0.020268
     4  H    0.282551  -0.020266
     5  H    0.282555  -0.020268
     6  H    0.282551  -0.020266
 Sum of Mulliken charges =   1.00000   1.00000

 Dipole moment (field-independent basis, Debye):
    X=             -0.0000    Y=              0.0000    Z=              0.0000  Tot=              0.0000
 Quadrupole moment (field-independent basis, Debye-Ang):
   XX=             -8.2402   YY=             -3.1043   ZZ=            -12.3034
   XY=              0.0001   XZ=             -0.0000   YZ=             -0.0000

 Normal termination of Gaussian 16 at Tue Nov 19 11:55:52 2024.
