 Gaussian 16, Revision A.03,
 Gaussian 16:  ES64L-G16RevA.03 25-Dec-2016

 --------------------------------------------
 #p opt UM062X/6-311+G** nosymm int=superfine
 --------------------------------------------

 -------------------
 Title Card Required
 -------------------
 Symbolic Z-matrix:
 Charge =  0 Multiplicity = 1

 SCF Done:  E(UM062X) =  -381.161039664     A.U. after   12 cycles
 SCF Done:  E(UM062X) =  -381.161768131     A.U. after   10 cycles
 SCF Done:  E(UM062X) =  -381.161041621     A.U. after   10 cycles
 SCF Done:  E(UM062X) =  -381.161715774     A.U. after   10 cycles
 SCF Done:  E(UM062X) =  -381.161844048     A.U. after    7 cycles
 SCF Done:  E(UM062X) =  -381.161390617     A.U. after   11 cycles
 SCF Done:  E(UM062X) =  -381.161879505     A.U. after    9 cycles
 Optimization completed.
    -- Stationary point found.

                          Input orientation:
 ---------------------------------------------------------------------
 Center     Atomic      Atomic             Coordinates (Angstroms)
 Number     Number       Type             X           Y           Z
 ---------------------------------------------------------------------
      1          6           0       -0.955452    0.000000    0.000000
      2         15           0        0.955452    0.000000    0.000000
      3          1           0       -1.523283   -0.922159   -0.002040
      4          1           0        1.035995   -1.417559   -0.003261
      5          1           0       -1.475849    0.949842    0.001764
 ---------------------------------------------------------------------

 Alpha  occ. eigenvalues --  -78.04227 -10.59077  -6.86416  -4.97935  -4.97897
 Alpha  occ. eigenvalues --   -4.97698  -0.78930  -0.65080  -0.51380  -0.42105
 Alpha  occ. eigenvalues --   -0.34869  -0.29776
 Alpha virt. eigenvalues --   -0.06297   0.01026   0.02715   0.04199   0.05091
 Alpha virt. eigenvalues --    0.06096   0.07734   0.09099   0.10816   0.12951
 Alpha virt. eigenvalues --    0.15388   0.19381   0.21288   0.30666   0.33035

  Beta  occ. eigenvalues --  -78.04227 -10.59077  -6.86416  -4.97935  -4.97897
  Beta  occ. eigenvalues --   -4.97698  -0.78930  -0.65080  -0.51380  -0.42105
  Beta  occ. eigenvalues --   -0.34869  -0.29776
  Beta virt. eigenvalues --   -0.06297   0.01026   0.02715   0.04199   0.05091
  Beta virt. eigenvalues --    0.06096   0.07734   0.09099   0.10816   0.12951
  Beta virt. eigenvalues --    0.15388   0.19381   0.21288   0.30666   0.33035

 Mulliken charges and spin densities:
               1          2
     1  C   -0.448740   0.000000
     2  P    0.107272   0.000000
     3  H    0.185691  -0.000000
     4  H   -0.030134   0.000000
     5  H    0.185911  -0.000000
 Sum of Mulliken charges =  -0.00000   0.00000

 Dipole moment (field-independent basis, Debye):
    X=             -0.6466    Y=             -0.5721    Z=             -0.0015  Tot=              0.8634
 Quadrupole moment (field-independent basis, Debye-Ang):
   XX=            -19.6987   YY=            -19.9516   ZZ=            -22.9993
   XY=             -1.1721   XZ=             -0.0022   YZ=              0.0065

 Normal termination of Gaussian 16 at Mon Apr 21 19:07:40 2025.
