 Gaussian 16, Revision A.03,
 Gaussian 16:  ES64L-G16RevA.03 25-Dec-2016

 ----------------------------------------------------------------------
 #p opt UM062X/6-311+G** nosymm int=superfine SCF=(MaxCycle=200,NoVarAc
 c,noincfock) guess=read
 ----------------------------------------------------------------------

 -------------------
 Title Card Required
 -------------------
 Symbolic Z-matrix:
 Charge =  1 Multiplicity = 2

 SCF Done:  E(UM062X) =  -379.530541766     A.U. after   16 cycles
 SCF Done:  E(UM062X) =  -379.530582530     A.U. after   12 cycles
 Optimization completed.
    -- Stationary point found.

                          Input orientation:
 ---------------------------------------------------------------------
 Center     Atomic      Atomic             Coordinates (Angstroms)
 Number     Number       Type             X           Y           Z
 ---------------------------------------------------------------------
      1          6           0       -0.944427    0.000000    0.000000
      2         15           0        0.944427    0.000000    0.000000
      3          1           0       -2.037344    0.000000    0.000000
 ---------------------------------------------------------------------

 Alpha  occ. eigenvalues --  -78.39940 -10.93503  -7.21363  -5.33321  -5.32507
 Alpha  occ. eigenvalues --   -5.31991  -1.06534  -0.91083  -0.71191  -0.61041
 Alpha  occ. eigenvalues --   -0.59544
 Alpha virt. eigenvalues --   -0.35596  -0.33666  -0.21934  -0.14397  -0.10284
 Alpha virt. eigenvalues --   -0.10045  -0.09655  -0.09025  -0.05211  -0.04961
 Alpha virt. eigenvalues --   -0.00019   0.04744   0.12820   0.13198   0.13400

  Beta  occ. eigenvalues --  -78.39996 -10.92848  -7.21419  -5.32898  -5.32655
  Beta  occ. eigenvalues --   -5.32568  -1.01867  -0.89814  -0.70147  -0.57242
  Beta virt. eigenvalues --   -0.40866  -0.30723  -0.28094  -0.20474  -0.15320
  Beta virt. eigenvalues --   -0.10458  -0.09780  -0.09751  -0.09076  -0.05134
  Beta virt. eigenvalues --   -0.05014  -0.01253   0.05671   0.11158   0.13163

 Mulliken charges and spin densities:
               1          2
     1  C    0.002318   1.042544
     2  P    0.682744  -0.005721
     3  H    0.314938  -0.036823
 Sum of Mulliken charges =   1.00000   1.00000

 Dipole moment (field-independent basis, Debye):
    X=              0.3606    Y=              0.0000    Z=              0.0000  Tot=              0.3606
 Quadrupole moment (field-independent basis, Debye-Ang):
   XX=             -6.0832   YY=            -16.5022   ZZ=            -16.4677
   XY=             -0.0000   XZ=             -0.0000   YZ=             -1.3800

 Normal termination of Gaussian 16 at Mon Apr 21 23:42:30 2025.
