 Gaussian 16, Revision A.03,
 Gaussian 16:  ES64L-G16RevA.03 25-Dec-2016

 ---------------------------------------------------
 #p UM062X/6-311+G** force int=superfine pop=saveNBO
 ---------------------------------------------------

 -------------------
 Title Card Required
 -------------------
 Symbolic Z-matrix:
 Charge =  0 Multiplicity = 1

                         Standard orientation:
 ---------------------------------------------------------------------
 Center     Atomic      Atomic             Coordinates (Angstroms)
 Number     Number       Type             X           Y           Z
 ---------------------------------------------------------------------
      1          8           0        0.000000    0.000000    1.793562
      2          8           0        0.000000    0.000000   -1.793562
 ---------------------------------------------------------------------

 SCF Done:  E(UM062X) =  -149.777655711     A.U. after   10 cycles

 Unable to determine electronic state:  partially filled degenerate orbitals.
 Alpha  occ. eigenvalues --  -19.82400 -19.82398  -1.10185  -1.09856  -0.48498
 Alpha  occ. eigenvalues --   -0.48358  -0.39972  -0.39334
 Alpha virt. eigenvalues --   -0.31333  -0.30579   0.09125   0.12477   0.14425
 Alpha virt. eigenvalues --    0.14488   0.17632   0.19025   0.19253   0.28179
 Alpha virt. eigenvalues --    0.99830   1.00648   1.01105   1.01362   1.02675

  Beta  occ. eigenvalues --  -19.82400 -19.82398  -1.10185  -1.09856  -0.48498
  Beta  occ. eigenvalues --   -0.48358  -0.39972  -0.39334
  Beta virt. eigenvalues --   -0.31333  -0.30579   0.09125   0.12477   0.14425
  Beta virt. eigenvalues --    0.14488   0.17632   0.19025   0.19253   0.28179
  Beta virt. eigenvalues --    0.99830   1.00648   1.01105   1.01362   1.02675

 Mulliken charges and spin densities:
               1          2
     1  O   -0.000000   0.000000
     2  O   -0.000000   0.000000
 Sum of Mulliken charges =  -0.00000   0.00000

 Dipole moment (field-independent basis, Debye):
    X=             -0.0000    Y=             -0.0000    Z=              0.0000  Tot=              0.0000
 Quadrupole moment (field-independent basis, Debye-Ang):
   XX=            -12.0466   YY=            -10.1693   ZZ=             -9.3357
   XY=             -0.0000   XZ=             -0.0000   YZ=              0.0000

 Summary of Natural Population Analysis:

                                       Natural Population
                Natural  -----------------------------------------------
    Atom  No    Charge         Core      Valence    Rydberg      Total
 -----------------------------------------------------------------------
      O    1   -0.00000      1.00000     2.99893    0.00107     4.00000
      O    2   -0.00000      1.00000     2.99893    0.00107     4.00000
 =======================================================================
   * Total *   -0.00000      2.00000     5.99786    0.00214     8.00000

 Normal termination of Gaussian 16 at Mon Apr 21 19:54:35 2025.
