 Gaussian 16, Revision A.03,
 Gaussian 16:  ES64L-G16RevA.03 25-Dec-2016

 --------------------------------------------
 #p opt UM062X/6-311+G** nosymm int=superfine
 --------------------------------------------

 -------------------
 Title Card Required
 -------------------
 Symbolic Z-matrix:
 Charge =  0 Multiplicity = 1

 SCF Done:  E(UM062X) =  -683.700646262     A.U. after   10 cycles
 SCF Done:  E(UM062X) =  -683.701844539     A.U. after   10 cycles
 SCF Done:  E(UM062X) =  -683.702010464     A.U. after   10 cycles
 Optimization completed.
    -- Stationary point found.

                          Input orientation:
 ---------------------------------------------------------------------
 Center     Atomic      Atomic             Coordinates (Angstroms)
 Number     Number       Type             X           Y           Z
 ---------------------------------------------------------------------
      1         15           0       -1.534490    0.000000    0.000000
      2         15           0        1.534490    0.000000    0.000000
      3          1           0       -1.476718   -1.421041   -0.000000
      4          1           0        1.476718    1.421041   -0.000000
 ---------------------------------------------------------------------

 Alpha  occ. eigenvalues --  -78.08108 -78.08108  -6.90061  -6.90060  -5.01494
 Alpha  occ. eigenvalues --   -5.01493  -5.01463  -5.01462  -5.01285  -5.01285
 Alpha  occ. eigenvalues --   -0.69788  -0.66643  -0.40784  -0.39885  -0.29587
 Alpha  occ. eigenvalues --   -0.26104
 Alpha virt. eigenvalues --   -0.14525  -0.09502   0.01949   0.03243   0.03812
 Alpha virt. eigenvalues --    0.04672   0.05072   0.06018   0.06678   0.08638
 Alpha virt. eigenvalues --    0.08817   0.12417   0.27820   0.29528   0.30489

  Beta  occ. eigenvalues --  -78.08108 -78.08108  -6.90061  -6.90060  -5.01494
  Beta  occ. eigenvalues --   -5.01493  -5.01463  -5.01462  -5.01285  -5.01285
  Beta  occ. eigenvalues --   -0.69788  -0.66643  -0.40784  -0.39885  -0.29587
  Beta  occ. eigenvalues --   -0.26104
  Beta virt. eigenvalues --   -0.14525  -0.09502   0.01949   0.03243   0.03812
  Beta virt. eigenvalues --    0.04672   0.05072   0.06018   0.06678   0.08638
  Beta virt. eigenvalues --    0.08817   0.12417   0.27820   0.29528   0.30489

 Mulliken charges and spin densities:
               1          2
     1  P    0.005851   0.000000
     2  P    0.005851  -0.000000
     3  H   -0.005851  -0.000000
     4  H   -0.005851   0.000000
 Sum of Mulliken charges =  -0.00000   0.00000

 Dipole moment (field-independent basis, Debye):
    X=              0.0000    Y=              0.0000    Z=              0.0000  Tot=              0.0000
 Quadrupole moment (field-independent basis, Debye-Ang):
   XX=            -27.5714   YY=            -28.1984   ZZ=            -30.5925
   XY=              2.7439   XZ=             -0.0000   YZ=             -0.0000

 Normal termination of Gaussian 16 at Mon Apr 21 21:11:38 2025.
