 Gaussian 16, Revision A.03,
 Gaussian 16:  ES64L-G16RevA.03 25-Dec-2016

 --------------------------------------------
 #p opt UM062X/6-311+G** nosymm int=superfine
 --------------------------------------------

 -------------------
 Title Card Required
 -------------------
 Symbolic Z-matrix:
 Charge =  0 Multiplicity = 1

 SCF Done:  E(UM062X) =  -26.5825834167     A.U. after    8 cycles
 SCF Done:  E(UM062X) =  -26.5916089221     A.U. after    8 cycles
 SCF Done:  E(UM062X) =  -26.5920932821     A.U. after    7 cycles
 SCF Done:  E(UM062X) =  -26.5921241926     A.U. after    7 cycles
 SCF Done:  E(UM062X) =  -26.5921305964     A.U. after    6 cycles
 Optimization completed.
    -- Stationary point found.

                          Input orientation:
 ---------------------------------------------------------------------
 Center     Atomic      Atomic             Coordinates (Angstroms)
 Number     Number       Type             X           Y           Z
 ---------------------------------------------------------------------
      1          5           0        1.246373    0.000136   -0.000213
      2          1           0        1.247108   -1.027803    0.594867
      3          1           0        1.246827    1.029253    0.592829
      4          1           0        1.244502   -0.001042   -1.187793
 ---------------------------------------------------------------------

 Alpha  occ. eigenvalues --   -7.05684  -0.59019  -0.41381  -0.41374
 Alpha virt. eigenvalues --   -0.03917   0.02451   0.04375   0.04375   0.06743
 Alpha virt. eigenvalues --    0.17242   0.17246   0.18081   0.35160   0.35162
 Alpha virt. eigenvalues --    0.40227   0.43369   0.57230   0.57243   0.60811

  Beta  occ. eigenvalues --   -7.05684  -0.59019  -0.41381  -0.41374
  Beta virt. eigenvalues --   -0.03917   0.02451   0.04375   0.04375   0.06743
  Beta virt. eigenvalues --    0.17242   0.17246   0.18081   0.35160   0.35162
  Beta virt. eigenvalues --    0.40227   0.43369   0.57230   0.57243   0.60811

 Mulliken charges and spin densities:
               1          2
     1  B    0.016445   0.000000
     2  H   -0.005485   0.000000
     3  H   -0.005485   0.000000
     4  H   -0.005474  -0.000000
 Sum of Mulliken charges =  -0.00000   0.00000

 Dipole moment (field-independent basis, Debye):
    X=              0.0005    Y=              0.0000    Z=             -0.0004  Tot=              0.0006
 Quadrupole moment (field-independent basis, Debye-Ang):
   XX=             -7.1889   YY=             -9.3155   ZZ=             -9.3145
   XY=              0.0003   XZ=             -0.0034   YZ=              0.0000

 Normal termination of Gaussian 16 at Wed Apr 16 06:49:36 2025.
