 Gaussian 16, Revision A.03,
 Gaussian 16:  ES64L-G16RevA.03 25-Dec-2016

 --------------------------------------------
 #p opt UM062X/6-311+G** nosymm int=superfine
 --------------------------------------------

 -------------------
 Title Card Required
 -------------------
 Symbolic Z-matrix:
 Charge =  1 Multiplicity = 2

 SCF Done:  E(UM062X) =  -92.5789817261     A.U. after   66 cycles
 SCF Done:  E(UM062X) =  -92.5795006757     A.U. after   24 cycles
 SCF Done:  E(UM062X) =  -92.5795018143     A.U. after   64 cycles
 Optimization completed.
    -- Stationary point found.

                          Input orientation:
 ---------------------------------------------------------------------
 Center     Atomic      Atomic             Coordinates (Angstroms)
 Number     Number       Type             X           Y           Z
 ---------------------------------------------------------------------
      1          6           0       -1.226540    0.000000    0.000000
      2          7           0        1.226540    0.000000    0.000000
      3          1           0       -2.351030   -0.000002    0.000022
 ---------------------------------------------------------------------

 Alpha  occ. eigenvalues --  -15.16768 -11.08948  -1.12213  -1.08054  -0.74703
 Alpha  occ. eigenvalues --   -0.67501  -0.58980
 Alpha virt. eigenvalues --   -0.44819  -0.43148  -0.38026  -0.16542  -0.11119
 Alpha virt. eigenvalues --   -0.10283  -0.09877  -0.05440  -0.01622  -0.01037
 Alpha virt. eigenvalues --   -0.00028   0.07960   0.22994   0.29443   0.29461

  Beta  occ. eigenvalues --  -15.15483 -11.08886  -1.08401  -1.04352  -0.74376
  Beta  occ. eigenvalues --   -0.58186
  Beta virt. eigenvalues --   -0.42932  -0.42867  -0.35547  -0.31708  -0.16663
  Beta virt. eigenvalues --   -0.11507  -0.10084  -0.10052  -0.05690  -0.01296
  Beta virt. eigenvalues --   -0.01294   0.00051   0.06493   0.23106   0.29411

 Mulliken charges and spin densities:
               1          2
     1  C    0.381602   0.110761
     2  N    0.311655   0.895675
     3  H    0.306743  -0.006437
 Sum of Mulliken charges =   1.00000   1.00000

 Dipole moment (field-independent basis, Debye):
    X=             -5.0917    Y=              0.0000    Z=              0.0000  Tot=              5.0917
 Quadrupole moment (field-independent basis, Debye-Ang):
   XX=              5.3574   YY=            -10.7994   ZZ=            -10.0597
   XY=              0.0000   XZ=             -0.0000   YZ=             -0.8675

 Normal termination of Gaussian 16 at Mon Apr 21 21:08:00 2025.
