 Gaussian 16, Revision A.03,
 Gaussian 16:  ES64L-G16RevA.03 25-Dec-2016

 ---------------------------------------
 #p UM062X/6-311+G** force int=superfine
 ---------------------------------------

 -------------------
 Title Card Required
 -------------------
 Symbolic Z-matrix:
 Charge =  0 Multiplicity = 1

                         Standard orientation:
 ---------------------------------------------------------------------
 Center     Atomic      Atomic             Coordinates (Angstroms)
 Number     Number       Type             X           Y           Z
 ---------------------------------------------------------------------
      1          7           0        0.000000    0.000000    1.670048
      2          7           0        0.000000    0.000000   -1.670048
 ---------------------------------------------------------------------

 SCF Done:  E(UM062X) =  -108.737893047     A.U. after   10 cycles

 The electronic state is 1-SGG.
 Alpha  occ. eigenvalues --  -14.96418 -14.96415  -0.87375  -0.86481  -0.33847
 Alpha  occ. eigenvalues --   -0.32704  -0.32704
 Alpha virt. eigenvalues --   -0.23862  -0.23862  -0.22358   0.07026   0.09296
 Alpha virt. eigenvalues --    0.11075   0.11075   0.14898   0.14898   0.15333
 Alpha virt. eigenvalues --    0.22032   0.74359   0.77136   0.77136   0.78821

  Beta  occ. eigenvalues --  -14.96418 -14.96415  -0.87375  -0.86481  -0.33847
  Beta  occ. eigenvalues --   -0.32704  -0.32704
  Beta virt. eigenvalues --   -0.23862  -0.23862  -0.22358   0.07026   0.09296
  Beta virt. eigenvalues --    0.11075   0.11075   0.14898   0.14898   0.15333
  Beta virt. eigenvalues --    0.22032   0.74359   0.77136   0.77136   0.78821

 Mulliken charges and spin densities:
               1          2
     1  N   -0.000000   0.000000
     2  N   -0.000000   0.000000
 Sum of Mulliken charges =  -0.00000   0.00000

 Dipole moment (field-independent basis, Debye):
    X=             -0.0000    Y=             -0.0000    Z=             -0.0000  Tot=              0.0000
 Quadrupole moment (field-independent basis, Debye-Ang):
   XX=            -12.4481   YY=            -12.4481   ZZ=            -10.7341
   XY=              0.0000   XZ=             -0.0000   YZ=              0.0000

 Optimization completed.
    -- Stationary point found.
 Normal termination of Gaussian 16 at Wed Feb 26 14:03:36 2025.
