 Gaussian 16, Revision A.03,
 Gaussian 16:  ES64L-G16RevA.03 25-Dec-2016

 --------------------------------------------
 #p opt UM062X/6-311+G** nosymm int=superfine
 --------------------------------------------

 -------------------
 Title Card Required
 -------------------
 Symbolic Z-matrix:
 Charge =  1 Multiplicity = 2

 SCF Done:  E(UM062X) =  -80.1543353599     A.U. after   25 cycles
 SCF Done:  E(UM062X) =  -80.1551973453     A.U. after   16 cycles
 SCF Done:  E(UM062X) =  -80.1552002521     A.U. after   13 cycles
 SCF Done:  E(UM062X) =  -80.1552003548     A.U. after   14 cycles
 SCF Done:  E(UM062X) =  -80.1546181395     A.U. after   20 cycles
 SCF Done:  E(UM062X) =  -80.1552061210     A.U. after   14 cycles
 SCF Done:  E(UM062X) =  -80.1550115283     A.U. after   16 cycles
 SCF Done:  E(UM062X) =  -80.1552219201     A.U. after   12 cycles
 SCF Done:  E(UM062X) =  -80.1552225380     A.U. after   13 cycles
 SCF Done:  E(UM062X) =  -80.1211531834     A.U. after   16 cycles
 SCF Done:  E(UM062X) =  -80.1552164815     A.U. after   13 cycles
 SCF Done:  E(UM062X) =  -80.1552225813     A.U. after    8 cycles
 SCF Done:  E(UM062X) =  -80.1461025873     A.U. after   19 cycles
 SCF Done:  E(UM062X) =  -80.1552144441     A.U. after   18 cycles
 SCF Done:  E(UM062X) =  -80.1547187909     A.U. after   14 cycles
 SCF Done:  E(UM062X) =  -80.1552106616     A.U. after   12 cycles
 SCF Done:  E(UM062X) =  -80.1548016234     A.U. after   14 cycles
 SCF Done:  E(UM062X) =  -80.1552226108     A.U. after    7 cycles
 SCF Done:  E(UM062X) =  -80.1552227472     A.U. after   12 cycles
 Optimization completed.
    -- Stationary point found.

                          Input orientation:
 ---------------------------------------------------------------------
 Center     Atomic      Atomic             Coordinates (Angstroms)
 Number     Number       Type             X           Y           Z
 ---------------------------------------------------------------------
      1          5           0       -1.952734    0.000000    0.000000
      2          7           0        1.952734    0.000000    0.000000
      3          1           0       -3.156435   -0.060929    0.000053
      4          1           0        2.979329   -0.136040   -0.000013
 ---------------------------------------------------------------------

 Alpha  occ. eigenvalues --  -14.94826  -7.53858  -1.07922  -0.86284  -0.61763
 Alpha  occ. eigenvalues --   -0.54358  -0.54236
 Alpha virt. eigenvalues --   -0.44632  -0.34930  -0.34925  -0.15766  -0.11747
 Alpha virt. eigenvalues --   -0.09960  -0.09931  -0.08624  -0.03932   0.01656
 Alpha virt. eigenvalues --    0.01660   0.03590   0.07769   0.12664   0.12733

  Beta  occ. eigenvalues --  -14.92347  -7.55093  -0.95097  -0.89901  -0.68381
  Beta  occ. eigenvalues --   -0.56061
  Beta virt. eigenvalues --   -0.36078  -0.36077  -0.19172  -0.19139  -0.14662
  Beta virt. eigenvalues --   -0.10653  -0.09800  -0.09796  -0.06985  -0.03087
  Beta virt. eigenvalues --    0.03650   0.03664   0.06373   0.08412   0.16022

 Mulliken charges and spin densities:
               1          2
     1  B    0.758482  -0.845430
     2  N   -0.238294   2.052505
     3  H    0.221492  -0.140747
     4  H    0.258320  -0.066328
 Sum of Mulliken charges =   1.00000   1.00000

 Dipole moment (field-independent basis, Debye):
    X=             -7.8566    Y=             -0.2668    Z=              0.0000  Tot=              7.8611
 Quadrupole moment (field-independent basis, Debye-Ang):
   XX=             20.4302   YY=            -10.2482   ZZ=            -10.2748
   XY=             -0.5036   XZ=             -0.0001   YZ=              0.0000

 Normal termination of Gaussian 16 at Mon Apr 21 18:03:11 2025.
