 Gaussian 16, Revision A.03,
 Gaussian 16:  ES64L-G16RevA.03 25-Dec-2016

 --------------------------------------------
 #p opt UM062X/6-311+G** nosymm int=superfine
 --------------------------------------------

 -------------------
 Title Card Required
 -------------------
 Symbolic Z-matrix:
 Charge =  1 Multiplicity = 2

 SCF Done:  E(UM062X) =  -379.343866111     A.U. after   66 cycles
 SCF Done:  E(UM062X) =  -379.344150306     A.U. after   24 cycles
 Optimization completed.
    -- Stationary point found.

                          Input orientation:
 ---------------------------------------------------------------------
 Center     Atomic      Atomic             Coordinates (Angstroms)
 Number     Number       Type             X           Y           Z
 ---------------------------------------------------------------------
      1          6           0       -1.369427    0.000000    0.000000
      2         15           0        1.369427    0.000000    0.000000
      3          1           0       -2.475376   -0.000010    0.000000
 ---------------------------------------------------------------------

 Alpha  occ. eigenvalues --  -78.41068 -10.92848  -7.22392  -5.34199  -5.33786
 Alpha  occ. eigenvalues --   -5.32546  -0.98714  -0.89649  -0.66177  -0.53031
 Alpha  occ. eigenvalues --   -0.50501
 Alpha virt. eigenvalues --   -0.40023  -0.37585  -0.35927  -0.12910  -0.10425
 Alpha virt. eigenvalues --   -0.09126  -0.08640  -0.07652  -0.05050  -0.04826
 Alpha virt. eigenvalues --   -0.00301   0.03513   0.12584   0.13903   0.14128

  Beta  occ. eigenvalues --  -78.41249 -10.92004  -7.22500  -5.34008  -5.33723
  Beta  occ. eigenvalues --   -5.33559  -0.93441  -0.89914  -0.62783  -0.54210
  Beta virt. eigenvalues --   -0.37837  -0.35785  -0.29083  -0.28053  -0.14248
  Beta virt. eigenvalues --   -0.10799  -0.08862  -0.08843  -0.08040  -0.04689
  Beta virt. eigenvalues --   -0.04397  -0.02619   0.05863   0.11921   0.12371

 Mulliken charges and spin densities:
               1          2
     1  C   -0.076658   1.160280
     2  P    0.779344  -0.132683
     3  H    0.297314  -0.027597
 Sum of Mulliken charges =   1.00000   1.00000

 Dipole moment (field-independent basis, Debye):
    X=              1.1608    Y=             -0.0000    Z=              0.0000  Tot=              1.1608
 Quadrupole moment (field-independent basis, Debye-Ang):
   XX=              1.7201   YY=            -18.4892   ZZ=            -16.8282
   XY=             -0.0000   XZ=              0.0000   YZ=              1.5108

 Normal termination of Gaussian 16 at Mon Apr 21 19:26:12 2025.
