 Gaussian 16, Revision A.03,
 Gaussian 16:  ES64L-G16RevA.03 25-Dec-2016

 --------------------------------------------
 #p opt UM062X/6-311+G** nosymm int=superfine
 --------------------------------------------

 -------------------
 Title Card Required
 -------------------
 Symbolic Z-matrix:
 Charge =  0 Multiplicity = 1

 SCF Done:  E(UM062X) =  -379.549325865     A.U. after   15 cycles
 SCF Done:  E(UM062X) =  -379.550775516     A.U. after   10 cycles
 SCF Done:  E(UM062X) =  -379.550781980     A.U. after   14 cycles
 Optimization completed.
    -- Stationary point found.

                          Input orientation:
 ---------------------------------------------------------------------
 Center     Atomic      Atomic             Coordinates (Angstroms)
 Number     Number       Type             X           Y           Z
 ---------------------------------------------------------------------
      1          6           0       -2.165377    0.000000    0.000000
      2         15           0        2.165377    0.000000    0.000000
      3          1           0       -3.288604    0.000000    0.000000
 ---------------------------------------------------------------------

 Alpha  occ. eigenvalues --  -78.06211 -10.72337  -6.88163  -5.00091  -4.99135
 Alpha  occ. eigenvalues --   -4.99135  -0.77126  -0.59824  -0.42735  -0.22899
 Alpha  occ. eigenvalues --   -0.22899
 Alpha virt. eigenvalues --   -0.16141  -0.16141  -0.11376   0.00998   0.04316
 Alpha virt. eigenvalues --    0.05930   0.05930   0.07563   0.08199   0.08199
 Alpha virt. eigenvalues --    0.12547   0.15489   0.33070   0.33895   0.33895

  Beta  occ. eigenvalues --  -78.06211 -10.72337  -6.88163  -5.00091  -4.99135
  Beta  occ. eigenvalues --   -4.99135  -0.77126  -0.59824  -0.42735  -0.22899
  Beta  occ. eigenvalues --   -0.22899
  Beta virt. eigenvalues --   -0.16141  -0.16141  -0.11376   0.00998   0.04316
  Beta virt. eigenvalues --    0.05930   0.05930   0.07563   0.08199   0.08199
  Beta virt. eigenvalues --    0.12547   0.15489   0.33070   0.33895   0.33895

 Mulliken charges and spin densities:
               1          2
     1  C   -0.052935  -0.000000
     2  P   -0.103832   0.000000
     3  H    0.156768   0.000000
 Sum of Mulliken charges =  -0.00000   0.00000

 Dipole moment (field-independent basis, Debye):
    X=             -4.0685    Y=              0.0000    Z=             -0.0000  Tot=              4.0685
 Quadrupole moment (field-independent basis, Debye-Ang):
   XX=             -9.6679   YY=            -24.1349   ZZ=            -24.1349
   XY=             -0.0000   XZ=             -0.0000   YZ=             -0.0000

 Normal termination of Gaussian 16 at Mon Apr 21 19:31:16 2025.
