 Gaussian 16, Revision A.03,
 Gaussian 16:  ES64L-G16RevA.03 25-Dec-2016

 --------------------------------------------
 #p opt UM062X/6-311+G** nosymm int=superfine
 --------------------------------------------

 -------------------
 Title Card Required
 -------------------
 Symbolic Z-matrix:
 Charge =  0 Multiplicity = 1

 SCF Done:  E(UM062X) =  -93.1450970036     A.U. after   11 cycles
 SCF Done:  E(UM062X) =  -93.1454248832     A.U. after   10 cycles
 Optimization completed.
    -- Stationary point found.

                          Input orientation:
 ---------------------------------------------------------------------
 Center     Atomic      Atomic             Coordinates (Angstroms)
 Number     Number       Type             X           Y           Z
 ---------------------------------------------------------------------
      1          6           0       -0.847395    0.000000    0.000000
      2          7           0        0.847395    0.000000    0.000000
      3          1           0       -1.937616   -0.000000    0.000000
 ---------------------------------------------------------------------

 Alpha  occ. eigenvalues --  -14.88698 -10.71017  -0.88163  -0.73923  -0.46814
 Alpha  occ. eigenvalues --   -0.34970  -0.34970
 Alpha virt. eigenvalues --   -0.08901  -0.08901  -0.00798   0.02156   0.07160
 Alpha virt. eigenvalues --    0.07160   0.08015   0.14021   0.17229   0.17229
 Alpha virt. eigenvalues --    0.23098   0.27703   0.50862   0.55500   0.55500

  Beta  occ. eigenvalues --  -14.88698 -10.71017  -0.88163  -0.73923  -0.46814
  Beta  occ. eigenvalues --   -0.34970  -0.34970
  Beta virt. eigenvalues --   -0.08901  -0.08901  -0.00798   0.02156   0.07160
  Beta virt. eigenvalues --    0.07160   0.08015   0.14021   0.17229   0.17229
  Beta virt. eigenvalues --    0.23098   0.27703   0.50862   0.55500   0.55500

 Mulliken charges and spin densities:
               1          2
     1  C   -0.164276   0.000000
     2  N   -0.076517  -0.000000
     3  H    0.240793  -0.000000
 Sum of Mulliken charges =  -0.00000   0.00000

 Dipole moment (field-independent basis, Debye):
    X=             -3.1303    Y=              0.0000    Z=              0.0000  Tot=              3.1303
 Quadrupole moment (field-independent basis, Debye-Ang):
   XX=             -8.0180   YY=            -13.5548   ZZ=            -13.5548
   XY=             -0.0000   XZ=              0.0000   YZ=             -0.0000

 Normal termination of Gaussian 16 at Mon Apr 21 18:38:30 2025.
