 Gaussian 16, Revision A.03,
 Gaussian 16:  ES64L-G16RevA.03 25-Dec-2016

 --------------------------------------------
 #p opt UM062X/6-311+G** nosymm int=superfine
 --------------------------------------------

 -------------------
 Title Card Required
 -------------------
 Symbolic Z-matrix:
 Charge =  0 Multiplicity = 1

 SCF Done:  E(UM062X) =  -437.282756555     A.U. after   13 cycles
 SCF Done:  E(UM062X) =  -437.283830242     A.U. after   11 cycles
 SCF Done:  E(UM062X) =  -437.284322513     A.U. after   12 cycles
 SCF Done:  E(UM062X) =  -437.284209260     A.U. after   10 cycles
 SCF Done:  E(UM062X) =  -437.284324882     A.U. after   12 cycles
 Optimization completed.
    -- Stationary point found.

                          Input orientation:
 ---------------------------------------------------------------------
 Center     Atomic      Atomic             Coordinates (Angstroms)
 Number     Number       Type             X           Y           Z
 ---------------------------------------------------------------------
      1          6           0       -1.177140    0.000000    0.000000
      2         16           0        1.177140    0.000000    0.000000
      3          1           0       -1.667572   -0.966282    0.000333
      4          1           0       -1.667782    0.966176    0.000062
 ---------------------------------------------------------------------

 Alpha  occ. eigenvalues --  -89.92561 -10.68611  -8.28288  -6.20472  -6.20125
 Alpha  occ. eigenvalues --   -6.19605  -0.81183  -0.72243  -0.56543  -0.38806
 Alpha  occ. eigenvalues --   -0.30461  -0.29822
 Alpha virt. eigenvalues --   -0.13706  -0.06254   0.01938   0.04972   0.06010
 Alpha virt. eigenvalues --    0.06507   0.08411   0.08480   0.09347   0.14032
 Alpha virt. eigenvalues --    0.16145   0.19961   0.35396   0.36017   0.37031

  Beta  occ. eigenvalues --  -89.92561 -10.68611  -8.28288  -6.20472  -6.20125
  Beta  occ. eigenvalues --   -6.19605  -0.81183  -0.72243  -0.56543  -0.38806
  Beta  occ. eigenvalues --   -0.30461  -0.29822
  Beta virt. eigenvalues --   -0.13706  -0.06254   0.01938   0.04972   0.06010
  Beta virt. eigenvalues --    0.06507   0.08411   0.08480   0.09347   0.14032
  Beta virt. eigenvalues --    0.16145   0.19961   0.35396   0.36017   0.37031

 Mulliken charges and spin densities:
               1          2
     1  C   -0.315731   0.000004
     2  S   -0.106708  -0.000004
     3  H    0.211220  -0.000000
     4  H    0.211219  -0.000000
 Sum of Mulliken charges =  -0.00000   0.00000

 Dipole moment (field-independent basis, Debye):
    X=             -3.1902    Y=             -0.0001    Z=              0.0004  Tot=              3.1902
 Quadrupole moment (field-independent basis, Debye-Ang):
   XX=            -16.0906   YY=            -21.2279   ZZ=            -21.8835
   XY=             -0.0002   XZ=             -0.0001   YZ=             -0.0001

 Normal termination of Gaussian 16 at Mon Apr 21 19:37:29 2025.
