 Gaussian 16, Revision A.03,
 Gaussian 16:  ES64L-G16RevA.03 25-Dec-2016

 --------------------------------------------
 #p opt UM062X/6-311+G** nosymm int=superfine
 --------------------------------------------

 -------------------
 Title Card Required
 -------------------
 Symbolic Z-matrix:
 Charge =  0 Multiplicity = 1

 SCF Done:  E(UM062X) =  -579.886411022     A.U. after   10 cycles
 SCF Done:  E(UM062X) =  -579.889301544     A.U. after   10 cycles
 SCF Done:  E(UM062X) =  -579.889307221     A.U. after    7 cycles
 Optimization completed.
    -- Stationary point found.

                          Input orientation:
 ---------------------------------------------------------------------
 Center     Atomic      Atomic             Coordinates (Angstroms)
 Number     Number       Type             X           Y           Z
 ---------------------------------------------------------------------
      1         14           0       -2.003705    0.000000    0.000000
      2         14           0        2.003705    0.000000    0.000000
      3          1           0       -3.529976   -0.000026   -0.000000
      4          1           0        3.529976    0.000042    0.000000
 ---------------------------------------------------------------------

 Alpha  occ. eigenvalues --  -67.04524 -67.04524  -5.58943  -5.58942  -3.90048
 Alpha  occ. eigenvalues --   -3.90048  -3.89599  -3.89599  -3.89460  -3.89460
 Alpha  occ. eigenvalues --   -0.55032  -0.54589  -0.34108  -0.31006  -0.18208
 Alpha virt. eigenvalues --   -0.10367  -0.09395  -0.08060   0.02294   0.02932
 Alpha virt. eigenvalues --    0.04551   0.05732   0.05829   0.05969   0.07078
 Alpha virt. eigenvalues --    0.07079   0.08892   0.17519   0.29295   0.29504

  Beta  occ. eigenvalues --  -67.04524 -67.04524  -5.58943  -5.58942  -3.90048
  Beta  occ. eigenvalues --   -3.90048  -3.89599  -3.89599  -3.89460  -3.89460
  Beta  occ. eigenvalues --   -0.55032  -0.54589  -0.34108  -0.31006  -0.18208
  Beta virt. eigenvalues --   -0.10367  -0.09395  -0.08060   0.02294   0.02932
  Beta virt. eigenvalues --    0.04551   0.05732   0.05829   0.05969   0.07078
  Beta virt. eigenvalues --    0.07079   0.08892   0.17519   0.29295   0.29504

 Mulliken charges and spin densities:
               1          2
     1  Si   0.146491  -0.000000
     2  Si   0.146491   0.000000
     3  H   -0.146491   0.000000
     4  H   -0.146491  -0.000000
 Sum of Mulliken charges =  -0.00000  -0.00000

 Dipole moment (field-independent basis, Debye):
    X=             -0.0000    Y=              0.0000    Z=             -0.0000  Tot=              0.0000
 Quadrupole moment (field-independent basis, Debye-Ang):
   XX=            -30.7011   YY=            -24.2713   ZZ=            -35.6662
   XY=             -0.0002   XZ=             -0.0000   YZ=              0.0000

 Normal termination of Gaussian 16 at Mon Apr 21 21:25:17 2025.
