 Gaussian 16, Revision A.03,
 Gaussian 16:  ES64L-G16RevA.03 25-Dec-2016

 --------------------------------------------
 #p opt UM062X/6-311+G** nosymm int=superfine
 --------------------------------------------

 -------------------
 Title Card Required
 -------------------
 Symbolic Z-matrix:
 Charge =  0 Multiplicity = 1

 SCF Done:  E(UM062X) =  -77.3145384280     A.U. after    9 cycles
 SCF Done:  E(UM062X) =  -77.3151455942     A.U. after    8 cycles
 SCF Done:  E(UM062X) =  -77.3151524222     A.U. after    7 cycles
 Optimization completed.
    -- Stationary point found.

                          Input orientation:
 ---------------------------------------------------------------------
 Center     Atomic      Atomic             Coordinates (Angstroms)
 Number     Number       Type             X           Y           Z
 ---------------------------------------------------------------------
      1          6           0       -0.610486    0.000000    0.000000
      2          6           0        0.610486    0.000000    0.000000
      3          1           0       -1.675408    0.000000    0.000000
      4          1           0        1.675408   -0.000000   -0.000000
 ---------------------------------------------------------------------

 Alpha  occ. eigenvalues --  -10.55487 -10.55248  -0.84926  -0.65018  -0.56744
 Alpha  occ. eigenvalues --   -0.35443  -0.35443
 Alpha virt. eigenvalues --    0.02601   0.02796   0.04261   0.04261   0.07667
 Alpha virt. eigenvalues --    0.07667   0.09299   0.14476   0.14476   0.15618
 Alpha virt. eigenvalues --    0.19760   0.24338   0.39466   0.44827   0.57018

  Beta  occ. eigenvalues --  -10.55487 -10.55248  -0.84926  -0.65018  -0.56744
  Beta  occ. eigenvalues --   -0.35443  -0.35443
  Beta virt. eigenvalues --    0.02601   0.02796   0.04261   0.04261   0.07667
  Beta virt. eigenvalues --    0.07667   0.09299   0.14476   0.14476   0.15618
  Beta virt. eigenvalues --    0.19760   0.24338   0.39466   0.44827   0.57018

 Mulliken charges and spin densities:
               1          2
     1  C   -0.178756   0.000000
     2  C   -0.178756  -0.000000
     3  H    0.178756   0.000000
     4  H    0.178756  -0.000000
 Sum of Mulliken charges =  -0.00000   0.00000

 Dipole moment (field-independent basis, Debye):
    X=             -0.0000    Y=             -0.0000    Z=              0.0000  Tot=              0.0000
 Quadrupole moment (field-independent basis, Debye-Ang):
   XX=             -6.8056   YY=            -13.9089   ZZ=            -13.9089
   XY=             -0.0000   XZ=             -0.0000   YZ=              0.0000

 Normal termination of Gaussian 16 at Tue Dec  3 20:03:25 2024.
