 Gaussian 16, Revision A.03,
 Gaussian 16:  ES64L-G16RevA.03 25-Dec-2016

 --------------------------------------------
 #p opt UM062X/6-311+G** nosymm int=superfine
 --------------------------------------------

 -------------------
 Title Card Required
 -------------------
 Symbolic Z-matrix:
 Charge =  0 Multiplicity = 1

 SCF Done:  E(UM062X) =  -437.434544381     A.U. after   10 cycles
 SCF Done:  E(UM062X) =  -437.434678780     A.U. after    9 cycles
 SCF Done:  E(UM062X) =  -437.434545495     A.U. after   10 cycles
 SCF Done:  E(UM062X) =  -437.434648882     A.U. after   10 cycles
 SCF Done:  E(UM062X) =  -437.434696613     A.U. after    5 cycles
 SCF Done:  E(UM062X) =  -437.434698081     A.U. after    8 cycles
 Optimization completed.
    -- Stationary point found.

                          Input orientation:
 ---------------------------------------------------------------------
 Center     Atomic      Atomic             Coordinates (Angstroms)
 Number     Number       Type             X           Y           Z
 ---------------------------------------------------------------------
      1          6           0       -0.852140    0.000000    0.000000
      2         16           0        0.852140    0.000000    0.000000
      3          1           0       -1.406452   -0.933900    0.000033
      4          1           0       -1.406556    0.933838   -0.000065
 ---------------------------------------------------------------------

 Alpha  occ. eigenvalues --  -89.90582 -10.62855  -8.26928  -6.18992  -6.18927
 Alpha  occ. eigenvalues --   -6.18344  -0.87626  -0.69360  -0.54137  -0.45097
 Alpha  occ. eigenvalues --   -0.36509  -0.29607
 Alpha virt. eigenvalues --   -0.07512   0.01533   0.04632   0.04948   0.05680
 Alpha virt. eigenvalues --    0.08137   0.08794   0.10215   0.13902   0.15562
 Alpha virt. eigenvalues --    0.18078   0.20735   0.35941   0.36605   0.36717

  Beta  occ. eigenvalues --  -89.90582 -10.62855  -8.26928  -6.18992  -6.18927
  Beta  occ. eigenvalues --   -6.18344  -0.87626  -0.69360  -0.54137  -0.45097
  Beta  occ. eigenvalues --   -0.36509  -0.29607
  Beta virt. eigenvalues --   -0.07512   0.01533   0.04632   0.04948   0.05680
  Beta virt. eigenvalues --    0.08137   0.08794   0.10215   0.13902   0.15562
  Beta virt. eigenvalues --    0.18078   0.20735   0.35941   0.36605   0.36717

 Mulliken charges and spin densities:
               1          2
     1  C   -0.355029  -0.000000
     2  S   -0.029724   0.000000
     3  H    0.192376  -0.000000
     4  H    0.192376   0.000000
 Sum of Mulliken charges =  -0.00000  -0.00000

 Dipole moment (field-independent basis, Debye):
    X=             -1.9513    Y=             -0.0000    Z=             -0.0000  Tot=              1.9513
 Quadrupole moment (field-independent basis, Debye-Ang):
   XX=            -18.0085   YY=            -20.6647   ZZ=            -20.2716
   XY=             -0.0001   XZ=              0.0000   YZ=              0.0000

 Normal termination of Gaussian 16 at Mon Apr 21 19:38:31 2025.
