 Gaussian 16, Revision A.03,
 Gaussian 16:  ES64L-G16RevA.03 25-Dec-2016

 --------------------------------------------
 #p opt UM062X/6-311+G** nosymm int=superfine
 --------------------------------------------

 -------------------
 Title Card Required
 -------------------
 Symbolic Z-matrix:
 Charge =  1 Multiplicity = 2

 SCF Done:  E(UM062X) =  -1615.58847818     A.U. after   23 cycles
 SCF Done:  E(UM062X) =  -1615.58837926     A.U. after   19 cycles
 SCF Done:  E(UM062X) =  -1615.58845941     A.U. after   19 cycles
 SCF Done:  E(UM062X) =  -1615.58848030     A.U. after   18 cycles
 SCF Done:  E(UM062X) =  -1615.58818453     A.U. after   21 cycles
 SCF Done:  E(UM062X) =  -1615.58847087     A.U. after   22 cycles
 SCF Done:  E(UM062X) =  -1615.58848388     A.U. after   16 cycles
 SCF Done:  E(UM062X) =  -1615.58848542     A.U. after   14 cycles
 SCF Done:  E(UM062X) =  -1615.58848563     A.U. after   13 cycles
 SCF Done:  E(UM062X) =  -1615.58848566     A.U. after   12 cycles
 Optimization completed.
    -- Stationary point found.

                          Input orientation:
 ---------------------------------------------------------------------
 Center     Atomic      Atomic             Coordinates (Angstroms)
 Number     Number       Type             X           Y           Z
 ---------------------------------------------------------------------
      1          6           0       -1.426658    0.000000    0.000000
      2          6           0        1.426658    0.000000    0.000000
      3          6           0        0.000005   -2.109582   -0.000014
      4          6           0        0.000004   -3.497813   -0.000022
      5          6           0       -1.133483   -4.310252    0.233607
      6          6           0       -1.267477   -1.477917    0.209069
      7          6           0        0.662473   -5.705021   -0.138535
      8          1           0        1.285014   -6.578137   -0.272259
      9          6           0       -1.558561    0.796420    1.196638
     10          6           0       -0.662450   -5.705021    0.138565
     11          1           0       -1.284987   -6.578138    0.272310
     12          6           0        1.133497   -4.310251   -0.233613
     13          6           0        1.267487   -1.477916   -0.209068
     14          6           0        1.723355    2.217572   -1.268520
     15          6           0       -1.584544    0.366156   -1.387950
     16          6           0       -1.876525    2.829304    2.526850
     17          1           0       -2.016345    3.903702    2.556001
     18          6           0       -2.329022   -3.686564    0.487565
     19          1           0       -3.239297   -4.241642    0.683065
     20          6           0       -1.609124    1.696249   -1.921386
     21          6           0        2.374463   -2.264304   -0.461879
     22          1           0        3.331897   -1.774734   -0.608199
     23          6           0        1.584567    0.366164    1.387944
     24          6           0        1.609090    1.696255    1.921382
     25          6           0        2.329048   -3.686561   -0.487522
     26          1           0        3.239332   -4.241638   -0.682978
     27          6           0       -1.723550    2.217545    1.268524
     28          6           0       -1.488286    0.107576    2.441582
     29          1           0       -1.319236   -0.958303    2.443227
     30          6           0        1.686542   -0.693892    2.342502
     31          1           0        1.704429   -1.717611    2.001456
     32          6           0       -1.852195    2.116034    3.706823
     33          1           0       -1.982673    2.622591    4.655375
     34          6           0       -2.374442   -2.264305    0.461916
     35          1           0       -3.331872   -1.774737    0.608268
     36          6           0       -1.680075    1.879333   -3.317808
     37          1           0       -1.678158    2.894891   -3.696363
     38          6           0        1.558510    0.796431   -1.196639
     39          6           0       -1.687704    3.136500    0.161195
     40          1           0       -1.728158    4.180113    0.457870
     41          6           0       -1.777908    0.828093   -4.199789
     42          1           0       -1.852503    1.011469   -5.264781
     43          6           0       -1.607650    2.919155   -1.165854
     44          1           0       -1.584002    3.813688   -1.781024
     45          6           0        1.680164    1.879340    3.317798
     46          1           0        1.678217    2.894897    3.696357
     47          6           0       -1.636860    0.737348    3.656900
     48          1           0       -1.580592    0.156445    4.569458
     49          6           0       -1.686405   -0.693902   -2.342517
     50          1           0       -1.704283   -1.717622   -2.001473
     51          6           0        1.778145    0.828104    4.199768
     52          1           0        1.852844    1.011483    5.264752
     53          6           0        1.876354    2.829342   -2.526837
     54          1           0        2.016068    3.903755   -2.555982
     55          6           0        1.798325   -0.476299    3.694825
     56          1           0        1.897715   -1.322184    4.364010
     57          6           0        1.852181    2.116064   -3.706808
     58          1           0        1.982686    2.622627   -4.655353
     59          6           0        1.687326    3.136527   -0.161194
     60          1           0        1.727567    4.180146   -0.457874
     61          6           0       -1.798086   -0.476311   -3.694850
     62          1           0       -1.897394   -1.322198   -4.364043
     63          6           0        1.607363    2.919167    1.165858
     64          1           0        1.583568    3.813693    1.781031
     65          6           0        1.488357    0.107579   -2.441584
     66          1           0        1.319401   -0.958315   -2.443238
     67          6           0        1.636959    0.737360   -3.656895
     68          1           0        1.580800    0.156449   -4.569454
 ---------------------------------------------------------------------

 Alpha  occ. eigenvalues --  -10.70899 -10.70898 -10.68591 -10.68591 -10.68567
 Alpha  occ. eigenvalues --  -10.68567 -10.68235 -10.68235 -10.68177 -10.68177
 Alpha  occ. eigenvalues --  -10.67132 -10.67130 -10.66630 -10.66630 -10.66526
 Alpha  occ. eigenvalues --  -10.66526 -10.66437 -10.65979 -10.65979 -10.65806
 Alpha  occ. eigenvalues --  -10.65806 -10.65761 -10.65760 -10.65725 -10.65725
 Alpha  occ. eigenvalues --  -10.65673 -10.65673 -10.65630 -10.65630 -10.65600
 Alpha  occ. eigenvalues --  -10.65600 -10.65468 -10.65468 -10.65465 -10.65465
 Alpha  occ. eigenvalues --  -10.65304 -10.65304 -10.64953 -10.64953 -10.63932
 Alpha  occ. eigenvalues --  -10.63833 -10.63462  -1.12219  -1.10231  -1.10165
 Alpha  occ. eigenvalues --   -1.08384  -1.07789  -1.05570  -1.04900  -1.02563
 Alpha  occ. eigenvalues --   -1.02111  -1.00937  -1.00400  -0.97955  -0.97634
 Alpha  occ. eigenvalues --   -0.96821  -0.96281  -0.94981  -0.93520  -0.93484
 Alpha  occ. eigenvalues --   -0.92837  -0.91830  -0.87393  -0.87334  -0.84991
 Alpha  occ. eigenvalues --   -0.84775  -0.83094  -0.81469  -0.81094  -0.79817
 Alpha  occ. eigenvalues --   -0.79710  -0.79533  -0.77481  -0.76383  -0.76188
 Alpha  occ. eigenvalues --   -0.75827  -0.75414  -0.73490  -0.70231  -0.69676
 Alpha  occ. eigenvalues --   -0.68994  -0.68545  -0.67754  -0.67649  -0.66937
 Alpha  occ. eigenvalues --   -0.66865  -0.65714  -0.65370  -0.65200  -0.64774
 Alpha  occ. eigenvalues --   -0.63268  -0.62878  -0.62385  -0.62145  -0.61070
 Alpha  occ. eigenvalues --   -0.61027  -0.60614  -0.60485  -0.60108  -0.60063
 Alpha  occ. eigenvalues --   -0.59574  -0.58899  -0.58812  -0.58135  -0.57784
 Alpha  occ. eigenvalues --   -0.57575  -0.56876  -0.55959  -0.55666  -0.55650
 Alpha  occ. eigenvalues --   -0.54966  -0.53972  -0.53079  -0.52846  -0.52649
 Alpha  occ. eigenvalues --   -0.52398  -0.52361  -0.52266  -0.51033  -0.50982
 Alpha  occ. eigenvalues --   -0.50970  -0.50899  -0.50039  -0.49521  -0.49425
 Alpha  occ. eigenvalues --   -0.48811  -0.48513  -0.47851  -0.45117  -0.44699
 Alpha  occ. eigenvalues --   -0.44097  -0.42801  -0.40481  -0.40429  -0.39289
 Alpha  occ. eigenvalues --   -0.38167  -0.37555  -0.37122  -0.31275
 Alpha virt. eigenvalues --   -0.20489  -0.15955  -0.15543  -0.14338  -0.10637
 Alpha virt. eigenvalues --   -0.09970  -0.08911  -0.08544  -0.08364  -0.07564
 Alpha virt. eigenvalues --   -0.07520  -0.07441  -0.06653  -0.06359  -0.06141

  Beta  occ. eigenvalues --  -10.70756 -10.70756 -10.68633 -10.68633 -10.68601
  Beta  occ. eigenvalues --  -10.68601 -10.68195 -10.68195 -10.68133 -10.68133
  Beta  occ. eigenvalues --  -10.67150 -10.67149 -10.66625 -10.66624 -10.66517
  Beta  occ. eigenvalues --  -10.66517 -10.66408 -10.65940 -10.65940 -10.65775
  Beta  occ. eigenvalues --  -10.65775 -10.65728 -10.65728 -10.65698 -10.65698
  Beta  occ. eigenvalues --  -10.65672 -10.65672 -10.65649 -10.65649 -10.65618
  Beta  occ. eigenvalues --  -10.65618 -10.65476 -10.65476 -10.65455 -10.65454
  Beta  occ. eigenvalues --  -10.65320 -10.65320 -10.64951 -10.64950 -10.63932
  Beta  occ. eigenvalues --  -10.63833 -10.63460  -1.12063  -1.10078  -1.10071
  Beta  occ. eigenvalues --   -1.08273  -1.07692  -1.05407  -1.04769  -1.02444
  Beta  occ. eigenvalues --   -1.02007  -1.00770  -1.00230  -0.97853  -0.97541
  Beta  occ. eigenvalues --   -0.96705  -0.96182  -0.94933  -0.93455  -0.93388
  Beta  occ. eigenvalues --   -0.92761  -0.91744  -0.87104  -0.86977  -0.84923
  Beta  occ. eigenvalues --   -0.84714  -0.83015  -0.81376  -0.80984  -0.79735
  Beta  occ. eigenvalues --   -0.79642  -0.79463  -0.77370  -0.76230  -0.76040
  Beta  occ. eigenvalues --   -0.75665  -0.75378  -0.73370  -0.70115  -0.69532
  Beta  occ. eigenvalues --   -0.68861  -0.68435  -0.67703  -0.67603  -0.66815
  Beta  occ. eigenvalues --   -0.66760  -0.65634  -0.65226  -0.65061  -0.64675
  Beta  occ. eigenvalues --   -0.63053  -0.62832  -0.62305  -0.62068  -0.60895
  Beta  occ. eigenvalues --   -0.60756  -0.60446  -0.60339  -0.60048  -0.60010
  Beta  occ. eigenvalues --   -0.59448  -0.58766  -0.58726  -0.58063  -0.57582
  Beta  occ. eigenvalues --   -0.57313  -0.56666  -0.55641  -0.55618  -0.55596
  Beta  occ. eigenvalues --   -0.54945  -0.53654  -0.52971  -0.52761  -0.52577
  Beta  occ. eigenvalues --   -0.52320  -0.52255  -0.52206  -0.50958  -0.50901
  Beta  occ. eigenvalues --   -0.50813  -0.50495  -0.49528  -0.49296  -0.48889
  Beta  occ. eigenvalues --   -0.48488  -0.48457  -0.47539  -0.44530  -0.44159
  Beta  occ. eigenvalues --   -0.43373  -0.42457  -0.40363  -0.40101  -0.38694
  Beta  occ. eigenvalues --   -0.38012  -0.37305  -0.37008
  Beta virt. eigenvalues --   -0.21487  -0.17873  -0.15738  -0.15497  -0.14386
  Beta virt. eigenvalues --   -0.10347  -0.09570  -0.08536  -0.08459  -0.08158
  Beta virt. eigenvalues --   -0.07584  -0.07571  -0.07205  -0.06634  -0.06295

 Mulliken charges and spin densities:
               1          2
     1  C    0.011164   0.358622
     2  C    0.011357   0.358627
     3  C    0.253469   0.007983
     4  C    0.187669  -0.002710
     5  C    0.159741   0.005700
     6  C   -0.026320  -0.031144
     7  C   -0.303763   0.000940
     8  H    0.176191  -0.000033
     9  C    0.173973  -0.054835
    10  C   -0.303711   0.000939
    11  H    0.176191  -0.000033
    12  C    0.159803   0.005697
    13  C   -0.026369  -0.031152
    14  C    0.455811   0.036301
    15  C    0.412412  -0.073538
    16  C   -0.378891  -0.032468
    17  H    0.165791   0.001096
    18  C   -0.517150   0.000475
    19  H    0.175932   0.000241
    20  C    0.226190   0.106550
    21  C   -0.088926   0.019921
    22  H    0.174804  -0.000213
    23  C    0.412472  -0.073543
    24  C    0.226055   0.106567
    25  C   -0.517096   0.000476
    26  H    0.175931   0.000241
    27  C    0.455896   0.036327
    28  C    0.006716   0.078270
    29  H    0.207451  -0.003844
    30  C   -0.268125   0.032737
    31  H    0.226354  -0.002532
    32  C   -0.395232   0.056487
    33  H    0.182206  -0.003152
    34  C   -0.088984   0.019917
    35  H    0.174800  -0.000213
    36  C   -0.026188  -0.057358
    37  H    0.161685   0.001510
    38  C    0.173992  -0.054814
    39  C   -0.296891   0.060779
    40  H    0.166004  -0.003386
    41  C   -0.247176   0.064500
    42  H    0.180724  -0.003254
    43  C   -0.326541   0.011835
    44  H    0.160530  -0.000705
    45  C   -0.026309  -0.057368
    46  H    0.161690   0.001510
    47  C   -0.091228  -0.038355
    48  H    0.168710  -0.000144
    49  C   -0.268053   0.032725
    50  H    0.226357  -0.002532
    51  C   -0.247243   0.064489
    52  H    0.180725  -0.003253
    53  C   -0.379047  -0.032465
    54  H    0.165791   0.001096
    55  C   -0.522317  -0.034823
    56  H    0.175754   0.001187
    57  C   -0.395301   0.056480
    58  H    0.182206  -0.003152
    59  C   -0.296601   0.060792
    60  H    0.165995  -0.003387
    61  C   -0.522508  -0.034829
    62  H    0.175755   0.001187
    63  C   -0.326381   0.011822
    64  H    0.160519  -0.000705
    65  C    0.006600   0.078267
    66  H    0.207454  -0.003844
    67  C   -0.091228  -0.038361
    68  H    0.168712  -0.000144
 Sum of Mulliken charges =   1.00000   1.00000

 Dipole moment (field-independent basis, Debye):
    X=             -0.0000    Y=              2.4404    Z=              0.0001  Tot=              2.4404
 Quadrupole moment (field-independent basis, Debye-Ang):
   XX=           -222.5532   YY=           -175.0369   ZZ=           -176.1803
   XY=             -0.0022   XZ=             -1.2796   YZ=             -0.0003

 Normal termination of Gaussian 16 at Thu Nov  7 17:30:02 2024.
