 Gaussian 16, Revision A.03,
 Gaussian 16:  ES64L-G16RevA.03 25-Dec-2016

 --------------------------------------------
 #p opt UM062X/6-311+G** nosymm int=superfine
 --------------------------------------------

 -------------------
 Title Card Required
 -------------------
 Symbolic Z-matrix:
 Charge =  0 Multiplicity = 1

 SCF Done:  E(UM062X) =  -110.144280813     A.U. after   12 cycles
 SCF Done:  E(UM062X) =  -110.144760913     A.U. after   15 cycles
 SCF Done:  E(UM062X) =  -110.146086533     A.U. after   15 cycles
 SCF Done:  E(UM062X) =  -110.147182401     A.U. after   19 cycles
 SCF Done:  E(UM062X) =  -110.147478604     A.U. after   61 cycles
 SCF Done:  E(UM062X) =  -110.147645370     A.U. after   21 cycles
 SCF Done:  E(UM062X) =  -110.427618885     A.U. after   83 cycles
 SCF Done:  E(UM062X) =  -110.427617438     A.U. after   12 cycles
 SCF Done:  E(UM062X) =  -110.427623884     A.U. after   13 cycles
 SCF Done:  E(UM062X) =  -110.427626229     A.U. after   13 cycles
 SCF Done:  E(UM062X) =  -110.427626358     A.U. after    9 cycles
 Optimization completed.
    -- Stationary point found.

                          Input orientation:
 ---------------------------------------------------------------------
 Center     Atomic      Atomic             Coordinates (Angstroms)
 Number     Number       Type             X           Y           Z
 ---------------------------------------------------------------------
      1          7           0       -2.090428    0.000000    0.000000
      2          7           0        2.090428    0.000000    0.000000
      3          1           0       -1.888109   -1.018089    0.000000
      4          1           0        1.888109    1.018089    0.000000
 ---------------------------------------------------------------------

 Alpha  occ. eigenvalues --  -14.81897 -14.79403  -0.95292  -0.82504  -0.48612
 Alpha  occ. eigenvalues --   -0.42626  -0.41506  -0.41504
 Alpha virt. eigenvalues --   -0.06708  -0.06668   0.03614   0.07304   0.11110
 Alpha virt. eigenvalues --    0.11773   0.13487   0.14510   0.15794   0.17827
 Alpha virt. eigenvalues --    0.19344   0.23085   0.55071   0.56457   0.75634

  Beta  occ. eigenvalues --  -14.81897 -14.79403  -0.95292  -0.82504  -0.48612
  Beta  occ. eigenvalues --   -0.42626  -0.41506  -0.41504
  Beta virt. eigenvalues --   -0.06708  -0.06668   0.03614   0.07304   0.11110
  Beta virt. eigenvalues --    0.11773   0.13487   0.14510   0.15794   0.17827
  Beta virt. eigenvalues --    0.19344   0.23085   0.55071   0.56457   0.75634

 Mulliken charges and spin densities:
               1          2
     1  N   -0.199730  -2.056429
     2  N   -0.199730   2.056429
     3  H    0.199730   0.061301
     4  H    0.199730  -0.061301
 Sum of Mulliken charges =  -0.00000   0.00000

 Dipole moment (field-independent basis, Debye):
    X=              0.0000    Y=              0.0000    Z=              0.0000  Tot=              0.0000
 Quadrupole moment (field-independent basis, Debye-Ang):
   XX=            -15.4141   YY=            -11.2383   ZZ=            -12.8289
   XY=              6.8213   XZ=              0.0000   YZ=              0.0000

 Normal termination of Gaussian 16 at Thu May 15 15:50:25 2025.
