 Gaussian 16, Revision A.03,
 Gaussian 16:  ES64L-G16RevA.03 25-Dec-2016

 --------------------------------------------
 #p opt UM062X/6-311+G** nosymm int=superfine
 --------------------------------------------

 -------------------
 Title Card Required
 -------------------
 Symbolic Z-matrix:
 Charge = -1 Multiplicity = 2

 SCF Done:  E(UM062X) =  -50.5536105396     A.U. after   15 cycles
 SCF Done:  E(UM062X) =  -50.5585517858     A.U. after   15 cycles
 SCF Done:  E(UM062X) =  -50.5589364047     A.U. after   17 cycles
 Optimization completed.
    -- Stationary point found.

                          Input orientation:
 ---------------------------------------------------------------------
 Center     Atomic      Atomic             Coordinates (Angstroms)
 Number     Number       Type             X           Y           Z
 ---------------------------------------------------------------------
      1          5           0       -1.716404    0.000000    0.000000
      2          5           0        1.716404    0.000000    0.000000
      3          1           0       -2.992759   -0.000965    0.000001
      4          1           0        2.992759    0.000965   -0.000001
 ---------------------------------------------------------------------

 Alpha  occ. eigenvalues --   -6.90630  -6.90629  -0.34054  -0.33747  -0.10169
 Alpha  occ. eigenvalues --   -0.04825   0.02482
 Alpha virt. eigenvalues --    0.11581   0.12478   0.14412   0.15686   0.16339
 Alpha virt. eigenvalues --    0.21956   0.22105   0.22339   0.22736   0.23652
 Alpha virt. eigenvalues --    0.25811   0.34153   0.37755   0.52145   0.57935

  Beta  occ. eigenvalues --   -6.90552  -6.90551  -0.33002  -0.32827  -0.09007
  Beta  occ. eigenvalues --   -0.03842
  Beta virt. eigenvalues --    0.10408   0.11430   0.12744   0.13323   0.13504
  Beta virt. eigenvalues --    0.13979   0.19137   0.20294   0.20544   0.21392
  Beta virt. eigenvalues --    0.21752   0.22418   0.33892   0.37801   0.51789

 Mulliken charges and spin densities:
               1          2
     1  B   -0.404175   0.509346
     2  B   -0.404175   0.509346
     3  H   -0.095825  -0.009346
     4  H   -0.095825  -0.009346
 Sum of Mulliken charges =  -1.00000   1.00000

 Dipole moment (field-independent basis, Debye):
    X=              0.0000    Y=             -0.0000    Z=             -0.0000  Tot=              0.0000
 Quadrupole moment (field-independent basis, Debye-Ang):
   XX=            -37.7758   YY=            -19.2574   ZZ=            -26.8703
   XY=             -0.0016   XZ=              0.0000   YZ=             -0.0103

 Normal termination of Gaussian 16 at Mon Apr 21 17:28:07 2025.
