 Gaussian 16, Revision A.03,
 Gaussian 16:  ES64L-G16RevA.03 25-Dec-2016

 ---------------------------------------------------------------------
 #p opt UM062X/6-311+G** nosymm int=superfine SCF=(Tight,MaxCycle=200)
 ---------------------------------------------------------------------

 -------------------
 Title Card Required
 -------------------
 Symbolic Z-matrix:
 Charge =  1 Multiplicity = 2

 SCF Done:  E(UM062X) =  -1614.62487927     A.U. after   25 cycles
 SCF Done:  E(UM062X) =  -1614.92922136     A.U. after   20 cycles
 SCF Done:  E(UM062X) =  -1615.34553837     A.U. after   22 cycles
 SCF Done:  E(UM062X) =  -1615.52141707     A.U. after   22 cycles
 SCF Done:  E(UM062X) =  -1615.53569770     A.U. after   22 cycles
 SCF Done:  E(UM062X) =  -1615.54570219     A.U. after   23 cycles
 SCF Done:  E(UM062X) =  -1615.54772292     A.U. after   22 cycles
 SCF Done:  E(UM062X) =  -1615.54379190     A.U. after   26 cycles
 SCF Done:  E(UM062X) =  -1615.55172534     A.U. after   21 cycles
 SCF Done:  E(UM062X) =  -1615.55361904     A.U. after   20 cycles
 SCF Done:  E(UM062X) =  -1615.55304403     A.U. after   22 cycles
 SCF Done:  E(UM062X) =  -1615.55486612     A.U. after   22 cycles
 SCF Done:  E(UM062X) =  -1615.55489271     A.U. after   21 cycles
 SCF Done:  E(UM062X) =  -1615.55518771     A.U. after   19 cycles
 SCF Done:  E(UM062X) =  -1615.55523905     A.U. after   18 cycles
 SCF Done:  E(UM062X) =  -1615.55524033     A.U. after   16 cycles
 SCF Done:  E(UM062X) =  -1615.55524169     A.U. after   16 cycles
 SCF Done:  E(UM062X) =  -1615.55524199     A.U. after   15 cycles
 SCF Done:  E(UM062X) =  -1615.55524216     A.U. after   15 cycles
 Optimization completed.
    -- Stationary point found.

                          Input orientation:
 ---------------------------------------------------------------------
 Center     Atomic      Atomic             Coordinates (Angstroms)
 Number     Number       Type             X           Y           Z
 ---------------------------------------------------------------------
      1          6           0       -0.955901    0.000000    0.000000
      2          6           0        0.955901    0.000000    0.000000
      3          6           0        0.000092   -2.190774    0.000324
      4          6           0        0.000103   -3.553437    0.000425
      5          6           0       -1.113750   -4.327241    0.365184
      6          6           0       -1.147302   -1.472220    0.351825
      7          6           0        0.645870   -5.724708   -0.212854
      8          1           0        1.237957   -6.606798   -0.411185
      9          6           0       -1.399673    0.934315    1.086790
     10          6           0       -0.645970   -5.724689    0.212969
     11          1           0       -1.238171   -6.606762    0.411032
     12          6           0        1.113831   -4.327276   -0.364656
     13          6           0        1.147437   -1.472274   -0.351446
     14          6           0        1.605990    2.340422   -0.965535
     15          6           0       -1.399714    0.184678   -1.447100
     16          6           0       -1.860079    3.108355    2.133344
     17          1           0       -2.015549    4.174405    2.013717
     18          6           0       -2.247870   -3.632748    0.742346
     19          1           0       -3.154621   -4.146685    1.041214
     20          6           0       -1.518746    1.430619   -2.125730
     21          6           0        2.262831   -2.196017   -0.723166
     22          1           0        3.187811   -1.689807   -0.978790
     23          6           0        1.399557    0.185078    1.447104
     24          6           0        1.518362    1.431188    2.125466
     25          6           0        2.247886   -3.632827   -0.742078
     26          1           0        3.154538   -4.146796   -1.041193
     27          6           0       -1.605947    2.340614    0.965007
     28          6           0       -1.467289    0.398940    2.384727
     29          1           0       -1.290984   -0.656237    2.530880
     30          6           0        1.613195   -0.961404    2.240450
     31          1           0        1.578910   -1.946455    1.804450
     32          6           0       -1.917303    2.548251    3.385163
     33          1           0       -2.113255    3.160632    4.256406
     34          6           0       -2.262764   -2.195943    0.723414
     35          1           0       -3.187790   -1.689707    0.978824
     36          6           0       -1.754172    1.460029   -3.519301
     37          1           0       -1.814829    2.428198   -4.002799
     38          6           0        1.399505    0.934125   -1.087033
     39          6           0       -1.543787    3.117578   -0.236245
     40          1           0       -1.582954    4.190196   -0.071628
     41          6           0       -1.934724    0.315182   -4.260764
     42          1           0       -2.127415    0.368597   -5.324907
     43          6           0       -1.459857    2.736767   -1.532878
     44          1           0       -1.444039    3.550446   -2.251648
     45          6           0        1.753404    1.460936    3.519087
     46          1           0        1.813849    2.429215    4.002391
     47          6           0       -1.715716    1.170284    3.506699
     48          1           0       -1.743802    0.696039    4.480517
     49          6           0       -1.613339   -0.962012   -2.240158
     50          1           0       -1.578776   -1.946972   -1.803972
     51          6           0        1.933880    0.316267    4.260858
     52          1           0        2.126254    0.369950    5.325046
     53          6           0        1.860117    3.107902   -2.134051
     54          1           0        2.015760    4.173952   -2.014642
     55          6           0        1.881505   -0.906284    3.599092
     56          1           0        2.044567   -1.831104    4.139165
     57          6           0        1.917089    2.547571   -3.385777
     58          1           0        2.113042    3.159768   -4.257149
     59          6           0        1.544037    3.117673    0.235549
     60          1           0        1.583535    4.190239    0.070679
     61          6           0       -1.881965   -0.907225   -3.598745
     62          1           0       -2.044971   -1.832191   -4.138586
     63          6           0        1.459807    2.737199    1.532256
     64          1           0        1.444050    3.551054    2.250828
     65          6           0        1.466885    0.398517   -2.384897
     66          1           0        1.290437   -0.656662   -2.530838
     67          6           0        1.715269    1.169612   -3.507042
     68          1           0        1.743164    0.695184   -4.480776
 ---------------------------------------------------------------------

 Alpha  occ. eigenvalues --  -10.71699 -10.71688 -10.68845 -10.68844 -10.68733
 Alpha  occ. eigenvalues --  -10.68732 -10.68406 -10.68406 -10.67645 -10.67645
 Alpha  occ. eigenvalues --  -10.67509 -10.67509 -10.67251 -10.67251 -10.66590
 Alpha  occ. eigenvalues --  -10.66590 -10.66572 -10.66571 -10.66233 -10.66233
 Alpha  occ. eigenvalues --  -10.66014 -10.66013 -10.65733 -10.65733 -10.65681
 Alpha  occ. eigenvalues --  -10.65680 -10.65559 -10.65558 -10.65392 -10.65392
 Alpha  occ. eigenvalues --  -10.65320 -10.65320 -10.65084 -10.65084 -10.65047
 Alpha  occ. eigenvalues --  -10.65046 -10.64677 -10.64676 -10.63894 -10.63892
 Alpha  occ. eigenvalues --  -10.63796 -10.62365  -1.12993  -1.10381  -1.09779
 Alpha  occ. eigenvalues --   -1.08566  -1.07914  -1.06203  -1.03840  -1.02960
 Alpha  occ. eigenvalues --   -1.02504  -1.00599  -0.99651  -0.97985  -0.97893
 Alpha  occ. eigenvalues --   -0.96938  -0.96225  -0.94697  -0.93443  -0.93423
 Alpha  occ. eigenvalues --   -0.92473  -0.91762  -0.88028  -0.86645  -0.84999
 Alpha  occ. eigenvalues --   -0.84834  -0.82516  -0.81647  -0.81016  -0.80028
 Alpha  occ. eigenvalues --   -0.79718  -0.79511  -0.77873  -0.76320  -0.76081
 Alpha  occ. eigenvalues --   -0.75344  -0.75061  -0.73804  -0.70115  -0.70105
 Alpha  occ. eigenvalues --   -0.68842  -0.68043  -0.67797  -0.67611  -0.67186
 Alpha  occ. eigenvalues --   -0.66882  -0.65441  -0.65045  -0.64965  -0.64648
 Alpha  occ. eigenvalues --   -0.63661  -0.63035  -0.62281  -0.61991  -0.61472
 Alpha  occ. eigenvalues --   -0.61408  -0.60605  -0.60300  -0.60053  -0.59782
 Alpha  occ. eigenvalues --   -0.59603  -0.58802  -0.58309  -0.57885  -0.57708
 Alpha  occ. eigenvalues --   -0.57127  -0.55985  -0.55913  -0.55790  -0.55667
 Alpha  occ. eigenvalues --   -0.55046  -0.54607  -0.54224  -0.52952  -0.52827
 Alpha  occ. eigenvalues --   -0.52525  -0.52024  -0.52009  -0.51635  -0.51157
 Alpha  occ. eigenvalues --   -0.50777  -0.50659  -0.50639  -0.49027  -0.48616
 Alpha  occ. eigenvalues --   -0.48548  -0.48261  -0.47958  -0.44158  -0.43603
 Alpha  occ. eigenvalues --   -0.43592  -0.42877  -0.41089  -0.40098  -0.39777
 Alpha  occ. eigenvalues --   -0.38196  -0.37643  -0.36983  -0.35825
 Alpha virt. eigenvalues --   -0.15802  -0.15356  -0.15081  -0.13504  -0.10244
 Alpha virt. eigenvalues --   -0.09938  -0.08858  -0.08819  -0.08368  -0.07772
 Alpha virt. eigenvalues --   -0.07671  -0.07566  -0.07143  -0.06576  -0.06304

  Beta  occ. eigenvalues --  -10.71656 -10.71647 -10.68806 -10.68805 -10.68702
  Beta  occ. eigenvalues --  -10.68701 -10.68390 -10.68390 -10.67629 -10.67628
  Beta  occ. eigenvalues --  -10.67473 -10.67472 -10.67207 -10.67206 -10.66548
  Beta  occ. eigenvalues --  -10.66548 -10.66531 -10.66530 -10.66229 -10.66229
  Beta  occ. eigenvalues --  -10.66023 -10.66023 -10.65733 -10.65733 -10.65674
  Beta  occ. eigenvalues --  -10.65673 -10.65584 -10.65584 -10.65386 -10.65385
  Beta  occ. eigenvalues --  -10.65306 -10.65305 -10.65086 -10.65086 -10.65054
  Beta  occ. eigenvalues --  -10.65054 -10.64675 -10.64674 -10.63893 -10.63892
  Beta  occ. eigenvalues --  -10.63796 -10.62366  -1.12868  -1.10264  -1.09578
  Beta  occ. eigenvalues --   -1.08428  -1.07773  -1.06085  -1.03769  -1.02715
  Beta  occ. eigenvalues --   -1.02286  -1.00492  -0.99545  -0.97811  -0.97743
  Beta  occ. eigenvalues --   -0.96849  -0.96146  -0.94666  -0.93245  -0.93230
  Beta  occ. eigenvalues --   -0.92336  -0.91632  -0.87820  -0.86493  -0.84851
  Beta  occ. eigenvalues --   -0.84692  -0.82457  -0.81529  -0.80945  -0.79899
  Beta  occ. eigenvalues --   -0.79637  -0.79436  -0.77712  -0.76139  -0.75932
  Beta  occ. eigenvalues --   -0.75205  -0.75041  -0.73697  -0.69995  -0.69965
  Beta  occ. eigenvalues --   -0.68766  -0.67940  -0.67686  -0.67482  -0.67047
  Beta  occ. eigenvalues --   -0.66762  -0.65337  -0.64964  -0.64841  -0.64533
  Beta  occ. eigenvalues --   -0.63330  -0.62985  -0.62206  -0.61886  -0.61273
  Beta  occ. eigenvalues --   -0.61241  -0.60483  -0.60213  -0.59952  -0.59686
  Beta  occ. eigenvalues --   -0.59437  -0.58581  -0.58253  -0.57748  -0.57250
  Beta  occ. eigenvalues --   -0.57063  -0.55844  -0.55787  -0.55711  -0.55025
  Beta  occ. eigenvalues --   -0.54689  -0.54405  -0.53873  -0.52831  -0.52727
  Beta  occ. eigenvalues --   -0.52453  -0.51956  -0.51809  -0.51362  -0.51055
  Beta  occ. eigenvalues --   -0.50615  -0.50541  -0.49565  -0.48939  -0.48467
  Beta  occ. eigenvalues --   -0.48245  -0.48103  -0.47623  -0.43564  -0.43006
  Beta  occ. eigenvalues --   -0.42762  -0.42465  -0.40802  -0.39729  -0.39570
  Beta  occ. eigenvalues --   -0.37441  -0.37014  -0.36340
  Beta virt. eigenvalues --   -0.26291  -0.15568  -0.14962  -0.14834  -0.13162
  Beta virt. eigenvalues --   -0.09829  -0.09816  -0.08773  -0.08410  -0.08165
  Beta virt. eigenvalues --   -0.07592  -0.07558  -0.07450  -0.06675  -0.06573

 Mulliken charges and spin densities:
               1          2
     1  C    0.046332  -0.009511
     2  C    0.045900  -0.009548
     3  C    0.193577   0.001997
     4  C    0.102873  -0.001813
     5  C    0.117043   0.005018
     6  C    0.114232   0.006462
     7  C   -0.294114   0.000654
     8  H    0.175090  -0.000038
     9  C    0.152325   0.081308
    10  C   -0.294166   0.000656
    11  H    0.175091  -0.000038
    12  C    0.117165   0.005020
    13  C    0.114504   0.006460
    14  C    0.059157   0.020966
    15  C    0.135855   0.056255
    16  C   -0.164107   0.059528
    17  H    0.168750  -0.002237
    18  C   -0.494479   0.003129
    19  H    0.173482   0.000284
    20  C    0.288663   0.017829
    21  C   -0.169799   0.010121
    22  H    0.174105  -0.000247
    23  C    0.135761   0.056259
    24  C    0.288480   0.017860
    25  C   -0.494325   0.003127
    26  H    0.173490   0.000284
    27  C    0.059069   0.020901
    28  C   -0.161120  -0.056989
    29  H    0.197923   0.001616
    30  C   -0.353032  -0.010610
    31  H    0.212408   0.000544
    32  C   -0.215304   0.001728
    33  H    0.178985  -0.000025
    34  C   -0.169792   0.010124
    35  H    0.174114  -0.000247
    36  C   -0.210896   0.010929
    37  H    0.164469  -0.000576
    38  C    0.152512   0.081310
    39  C   -0.181720   0.112359
    40  H    0.169985  -0.007790
    41  C   -0.281291   0.004325
    42  H    0.177061   0.000076
    43  C   -0.176631   0.069119
    44  H    0.163960  -0.003681
    45  C   -0.210810   0.010933
    46  H    0.164459  -0.000576
    47  C   -0.162723   0.119580
    48  H    0.177408  -0.006578
    49  C   -0.353387  -0.010607
    50  H    0.212366   0.000543
    51  C   -0.281141   0.004308
    52  H    0.177059   0.000076
    53  C   -0.163789   0.059576
    54  H    0.168747  -0.002238
    55  C   -0.005978   0.017726
    56  H    0.175758  -0.001349
    57  C   -0.215145   0.001741
    58  H    0.178984  -0.000026
    59  C   -0.182070   0.112308
    60  H    0.170007  -0.007787
    61  C   -0.005705   0.017735
    62  H    0.175756  -0.001349
    63  C   -0.176951   0.069117
    64  H    0.163962  -0.003685
    65  C   -0.161102  -0.056990
    66  H    0.197941   0.001617
    67  C   -0.162639   0.119601
    68  H    0.177410  -0.006578
 Sum of Mulliken charges =   1.00000   1.00000

 Dipole moment (field-independent basis, Debye):
    X=             -0.0003    Y=              3.6104    Z=             -0.0012  Tot=              3.6105
 Quadrupole moment (field-independent basis, Debye-Ang):
   XX=           -222.4232   YY=           -173.8340   ZZ=           -177.1722
   XY=              0.0023   XZ=             -2.2857   YZ=              0.0043

 Normal termination of Gaussian 16 at Fri Mar 21 08:56:28 2025.
