 Gaussian 16, Revision A.03,
 Gaussian 16:  ES64L-G16RevA.03 25-Dec-2016

 --------------------------------------------
 #p opt UM062X/6-311+G** nosymm int=superfine
 --------------------------------------------

 -------------------
 Title Card Required
 -------------------
 Symbolic Z-matrix:
 Charge =  1 Multiplicity = 2

 SCF Done:  E(UM062X) =  -79.3356844857     A.U. after   10 cycles
 SCF Done:  E(UM062X) =  -79.3358200105     A.U. after    9 cycles
 Optimization completed.
    -- Stationary point found.

                          Input orientation:
 ---------------------------------------------------------------------
 Center     Atomic      Atomic             Coordinates (Angstroms)
 Number     Number       Type             X           Y           Z
 ---------------------------------------------------------------------
      1          6           0       -1.569339    0.000000    0.000000
      2          6           0        1.569339    0.000000    0.000000
      3          1           0        1.616392   -0.937442    0.542567
      4          1           0       -1.615038   -0.938553   -0.540759
      5          1           0        1.615821    0.938643    0.540538
      6          1           0        1.615038   -0.001160   -1.083189
      7          1           0       -1.616426    0.937537   -0.542402
      8          1           0       -1.615764    0.000935    1.083158
 ---------------------------------------------------------------------

 Alpha  occ. eigenvalues --  -10.84915 -10.84912  -1.03822  -1.02539  -0.74542
 Alpha  occ. eigenvalues --   -0.74541  -0.73938  -0.73938  -0.51970
 Alpha virt. eigenvalues --   -0.35779  -0.13907  -0.10224  -0.10224  -0.10176
 Alpha virt. eigenvalues --   -0.06237  -0.06237  -0.05154  -0.03271  -0.01916
 Alpha virt. eigenvalues --   -0.01913   0.01313   0.01315   0.04743   0.07713

  Beta  occ. eigenvalues --  -10.84715 -10.84715  -1.00989  -1.00127  -0.74009
  Beta  occ. eigenvalues --   -0.74009  -0.73431  -0.73431
  Beta virt. eigenvalues --   -0.32625  -0.25760  -0.15443  -0.11134  -0.11134
  Beta virt. eigenvalues --   -0.09990  -0.06408  -0.06407  -0.05375  -0.02387
  Beta virt. eigenvalues --   -0.02202  -0.02200   0.01620   0.01622   0.05689

 Mulliken charges and spin densities:
               1          2
     1  C   -0.271250   0.566208
     2  C   -0.271252   0.566209
     3  H    0.257103  -0.022073
     4  H    0.257055  -0.022075
     5  H    0.257082  -0.022074
     6  H    0.257065  -0.022061
     7  H    0.257105  -0.022073
     8  H    0.257091  -0.022061
 Sum of Mulliken charges =   1.00000   1.00000

 Dipole moment (field-independent basis, Debye):
    X=             -0.0000    Y=             -0.0000    Z=             -0.0001  Tot=              0.0001
 Quadrupole moment (field-independent basis, Debye-Ang):
   XX=              0.7217   YY=            -11.0434   ZZ=            -11.0434
   XY=             -0.0015   XZ=              0.0009   YZ=              0.0000

 Normal termination of Gaussian 16 at Wed Nov 13 12:36:37 2024.
