 Gaussian 16, Revision A.03,
 Gaussian 16:  ES64L-G16RevA.03 25-Dec-2016

 --------------------------------------------
 #p opt UM062X/6-311+G** nosymm int=superfine
 --------------------------------------------

 -------------------
 Title Card Required
 -------------------
 Symbolic Z-matrix:
 Charge =  1 Multiplicity = 2

 SCF Done:  E(UM062X) =  -79.3620466881     A.U. after    9 cycles
 SCF Done:  E(UM062X) =  -79.3689691027     A.U. after    9 cycles
 SCF Done:  E(UM062X) =  -79.3690748361     A.U. after    8 cycles
 Optimization completed.
    -- Stationary point found.

                          Input orientation:
 ---------------------------------------------------------------------
 Center     Atomic      Atomic             Coordinates (Angstroms)
 Number     Number       Type             X           Y           Z
 ---------------------------------------------------------------------
      1          6           0       -0.970137    0.000000    0.000000
      2          6           0        0.970137    0.000000    0.000000
      3          1           0        1.119528   -0.931129    0.538837
      4          1           0       -1.118886   -0.932281   -0.537044
      5          1           0        1.119046    0.932312    0.536945
      6          1           0        1.118866   -0.001069   -1.075904
      7          1           0       -1.119536    0.931155   -0.538789
      8          1           0       -1.119015    0.000974    1.075883
 ---------------------------------------------------------------------

 Alpha  occ. eigenvalues --  -10.86121 -10.86108  -1.11859  -1.01137  -0.79388
 Alpha  occ. eigenvalues --   -0.79385  -0.73394  -0.73394  -0.64698
 Alpha virt. eigenvalues --   -0.21578  -0.16681  -0.11321  -0.11321  -0.09757
 Alpha virt. eigenvalues --   -0.07458  -0.06500  -0.06498  -0.05666  -0.05664
 Alpha virt. eigenvalues --   -0.01687   0.01494   0.01498   0.04067   0.07467

  Beta  occ. eigenvalues --  -10.85899 -10.85898  -1.08230  -0.98035  -0.78335
  Beta  occ. eigenvalues --   -0.78333  -0.72551  -0.72550
  Beta virt. eigenvalues --   -0.40807  -0.16249  -0.16209  -0.11198  -0.11198
  Beta virt. eigenvalues --   -0.07649  -0.07482  -0.06675  -0.06674  -0.05241
  Beta virt. eigenvalues --   -0.05238  -0.00663   0.02197   0.02200   0.04613

 Mulliken charges and spin densities:
               1          2
     1  C   -0.322452   0.540846
     2  C   -0.322453   0.540847
     3  H    0.274157  -0.013652
     4  H    0.274144  -0.013598
     5  H    0.274150  -0.013602
     6  H    0.274145  -0.013593
     7  H    0.274157  -0.013652
     8  H    0.274152  -0.013596
 Sum of Mulliken charges =   1.00000   1.00000

 Dipole moment (field-independent basis, Debye):
    X=              0.0000    Y=             -0.0000    Z=             -0.0000  Tot=              0.0000
 Quadrupole moment (field-independent basis, Debye-Ang):
   XX=             -6.7676   YY=            -10.7273   ZZ=            -10.7271
   XY=             -0.0004   XZ=              0.0002   YZ=              0.0002

 Normal termination of Gaussian 16 at Wed Nov 13 13:28:43 2024.
