 Gaussian 16, Revision A.03,
 Gaussian 16:  ES64L-G16RevA.03 25-Dec-2016

 --------------------------------------------
 #p opt UM062X/6-311+G** nosymm int=superfine
 --------------------------------------------

 -------------------
 Title Card Required
 -------------------
 Symbolic Z-matrix:
 Charge =  1 Multiplicity = 2

 SCF Done:  E(UM062X) =  -80.1527085101     A.U. after   20 cycles
 SCF Done:  E(UM062X) =  -80.1535875376     A.U. after   12 cycles
 SCF Done:  E(UM062X) =  -80.1535905548     A.U. after   14 cycles
 Optimization completed.
    -- Stationary point found.

                          Input orientation:
 ---------------------------------------------------------------------
 Center     Atomic      Atomic             Coordinates (Angstroms)
 Number     Number       Type             X           Y           Z
 ---------------------------------------------------------------------
      1          5           0       -2.077734    0.000000    0.000000
      2          7           0        2.077734    0.000000    0.000000
      3          1           0       -3.284377   -0.000294    0.000000
      4          1           0        3.113392   -0.000054    0.000000
 ---------------------------------------------------------------------

 Alpha  occ. eigenvalues --  -14.93817  -7.54222  -1.07029  -0.86549  -0.60801
 Alpha  occ. eigenvalues --   -0.53429  -0.53429
 Alpha virt. eigenvalues --   -0.46107  -0.35292  -0.35292  -0.16529  -0.12314
 Alpha virt. eigenvalues --   -0.09941  -0.09941  -0.09812  -0.03710   0.02144
 Alpha virt. eigenvalues --    0.02144   0.03542   0.07758   0.12077   0.12606

  Beta  occ. eigenvalues --  -14.91324  -7.55451  -0.94167  -0.90209  -0.68708
  Beta  occ. eigenvalues --   -0.55078
  Beta virt. eigenvalues --   -0.36331  -0.36331  -0.18293  -0.18293  -0.14794
  Beta virt. eigenvalues --   -0.10704  -0.09928  -0.09928  -0.06950  -0.03267
  Beta virt. eigenvalues --    0.04185   0.04185   0.06391   0.08814   0.15760

 Mulliken charges and spin densities:
               1          2
     1  B    0.767529  -0.851508
     2  N   -0.239862   2.059895
     3  H    0.221765  -0.142227
     4  H    0.250569  -0.066160
 Sum of Mulliken charges =   1.00000   1.00000

 Dipole moment (field-independent basis, Debye):
    X=             -8.6210    Y=             -0.0003    Z=              0.0000  Tot=              8.6210
 Quadrupole moment (field-independent basis, Debye-Ang):
   XX=             23.5672   YY=            -10.2750   ZZ=            -10.2750
   XY=              0.0003   XZ=             -0.0000   YZ=             -0.0000

 Normal termination of Gaussian 16 at Mon Apr 21 18:00:56 2025.
