 Gaussian 16, Revision A.03,
 Gaussian 16:  ES64L-G16RevA.03 25-Dec-2016

 ---------------------------------------
 #p UM062X/6-311+G** force int=superfine
 ---------------------------------------

 -------------------
 Title Card Required
 -------------------
 Symbolic Z-matrix:
 Charge =  1 Multiplicity = 2

                         Standard orientation:
 ---------------------------------------------------------------------
 Center     Atomic      Atomic             Coordinates (Angstroms)
 Number     Number       Type             X           Y           Z
 ---------------------------------------------------------------------
      1          6           0        0.000000    0.000000    0.434940
      2          6           0        0.000000    0.000000   -0.434940
      3          1           0        0.000000    0.000000    1.503832
      4          1           0        0.000000    0.000000   -1.503832
 ---------------------------------------------------------------------

 SCF Done:  E(UM062X) =  -76.3827892793     A.U. after    9 cycles

 Unable to determine electronic state:  an orbital has unidentified symmetry.
 Alpha  occ. eigenvalues --  -10.91960 -10.87719  -1.34062  -0.94140  -0.91916
 Alpha  occ. eigenvalues --   -0.88109  -0.84172
 Alpha virt. eigenvalues --   -0.16055  -0.14889  -0.14612  -0.13446  -0.11987
 Alpha virt. eigenvalues --   -0.11945  -0.11619  -0.02246  -0.01313  -0.01013
 Alpha virt. eigenvalues --    0.02594   0.03864   0.16923   0.22641   0.23776

  Beta  occ. eigenvalues --  -10.91477 -10.87386  -1.27368  -0.92635  -0.90890
  Beta  occ. eigenvalues --   -0.81458
  Beta virt. eigenvalues --   -0.55650  -0.15466  -0.13841  -0.13214  -0.13122
  Beta virt. eigenvalues --   -0.12075  -0.11833  -0.11652  -0.00716  -0.00674
  Beta virt. eigenvalues --    0.00408   0.03016   0.04383   0.17349   0.22441

 Mulliken charges and spin densities:
               1          2
     1  C    0.256660   0.523161
     2  C    0.256660   0.523161
     3  H    0.243340  -0.023161
     4  H    0.243340  -0.023161
 Sum of Mulliken charges =   1.00000   1.00000

 Dipole moment (field-independent basis, Debye):
    X=              0.0000    Y=              0.0000    Z=             -0.0000  Tot=              0.0000
 Quadrupole moment (field-independent basis, Debye-Ang):
   XX=             -8.4552   YY=             -9.8635   ZZ=             -2.6892
   XY=             -0.0000   XZ=             -0.0000   YZ=              0.0000

 Normal termination of Gaussian 16 at Tue Nov 19 13:25:10 2024.
