 Gaussian 16, Revision A.03,
 Gaussian 16:  ES64L-G16RevA.03 25-Dec-2016

 --------------------------------------------
 #p opt UM062X/6-311+G** nosymm int=superfine
 --------------------------------------------

 -------------------
 Title Card Required
 -------------------
 Symbolic Z-matrix:
 Charge =  0 Multiplicity = 1

 SCF Done:  E(UM062X) =  -683.842496254     A.U. after   10 cycles
 SCF Done:  E(UM062X) =  -683.842507973     A.U. after    7 cycles
 SCF Done:  E(UM062X) =  -683.842511727     A.U. after    7 cycles
 Optimization completed.
    -- Stationary point found.

                          Input orientation:
 ---------------------------------------------------------------------
 Center     Atomic      Atomic             Coordinates (Angstroms)
 Number     Number       Type             X           Y           Z
 ---------------------------------------------------------------------
      1         15           0       -1.034490    0.000000    0.000000
      2         15           0        1.034490    0.000000    0.000000
      3          1           0       -1.125950   -1.417839    0.000000
      4          1           0        1.125950    1.417839    0.000000
 ---------------------------------------------------------------------

 Alpha  occ. eigenvalues --  -78.04356 -78.04356  -6.86901  -6.86885  -4.98409
 Alpha  occ. eigenvalues --   -4.98401  -4.98348  -4.98313  -4.98174  -4.98146
 Alpha  occ. eigenvalues --   -0.77200  -0.62203  -0.42249  -0.41185  -0.31909
 Alpha  occ. eigenvalues --   -0.31415
 Alpha virt. eigenvalues --   -0.08475   0.01560   0.01853   0.03384   0.04099
 Alpha virt. eigenvalues --    0.04724   0.06594   0.06684   0.07149   0.08382
 Alpha virt. eigenvalues --    0.12281   0.13286   0.25412   0.29377   0.31011

  Beta  occ. eigenvalues --  -78.04356 -78.04356  -6.86901  -6.86885  -4.98409
  Beta  occ. eigenvalues --   -4.98401  -4.98348  -4.98313  -4.98174  -4.98146
  Beta  occ. eigenvalues --   -0.77200  -0.62203  -0.42249  -0.41185  -0.31909
  Beta  occ. eigenvalues --   -0.31415
  Beta virt. eigenvalues --   -0.08475   0.01560   0.01853   0.03384   0.04099
  Beta virt. eigenvalues --    0.04724   0.06594   0.06684   0.07149   0.08382
  Beta virt. eigenvalues --    0.12281   0.13286   0.25412   0.29377   0.31011

 Mulliken charges and spin densities:
               1          2
     1  P    0.019663   0.000000
     2  P    0.019663  -0.000000
     3  H   -0.019663  -0.000000
     4  H   -0.019663   0.000000
 Sum of Mulliken charges =  -0.00000   0.00000

 Dipole moment (field-independent basis, Debye):
    X=              0.0000    Y=             -0.0000    Z=              0.0000  Tot=              0.0000
 Quadrupole moment (field-independent basis, Debye-Ang):
   XX=            -29.4260   YY=            -27.2382   ZZ=            -28.3912
   XY=              2.5731   XZ=              0.0000   YZ=              0.0000

 Normal termination of Gaussian 16 at Mon Apr 21 20:59:35 2025.
