 Gaussian 16, Revision A.03,
 Gaussian 16:  ES64L-G16RevA.03 25-Dec-2016

 --------------------------------------------
 #p opt UM062X/6-311+G** nosymm int=superfine
 --------------------------------------------

 -------------------
 Title Card Required
 -------------------
 Symbolic Z-matrix:
 Charge =  0 Multiplicity = 1

 SCF Done:  E(UM062X) =  -438.474262633     A.U. after   15 cycles
 SCF Done:  E(UM062X) =  -438.488002857     A.U. after   11 cycles
 SCF Done:  E(UM062X) =  -438.495275891     A.U. after   12 cycles
 SCF Done:  E(UM062X) =  -438.495350784     A.U. after   12 cycles
 SCF Done:  E(UM062X) =  -438.495367939     A.U. after   10 cycles
 SCF Done:  E(UM062X) =  -438.495411801     A.U. after   11 cycles
 SCF Done:  E(UM062X) =  -438.495416546     A.U. after    9 cycles
 SCF Done:  E(UM062X) =  -438.495417204     A.U. after   10 cycles
 SCF Done:  E(UM062X) =  -438.495417353     A.U. after    8 cycles
 SCF Done:  E(UM062X) =  -438.495417629     A.U. after   13 cycles
 SCF Done:  E(UM062X) =  -438.495418242     A.U. after   17 cycles
 SCF Done:  E(UM062X) =  -438.495410753     A.U. after   14 cycles
 SCF Done:  E(UM062X) =  -438.495418344     A.U. after   14 cycles
 SCF Done:  E(UM062X) =  -438.495418788     A.U. after   12 cycles
 SCF Done:  E(UM062X) =  -438.495417357     A.U. after   14 cycles
 SCF Done:  E(UM062X) =  -438.495370413     A.U. after   15 cycles
 SCF Done:  E(UM062X) =  -438.495416215     A.U. after   15 cycles
 SCF Done:  E(UM062X) =  -438.495418758     A.U. after   14 cycles
 SCF Done:  E(UM062X) =  -438.495419029     A.U. after   12 cycles
 SCF Done:  E(UM062X) =  -438.495419099     A.U. after   15 cycles
 Optimization completed.
    -- Stationary point found.

                          Input orientation:
 ---------------------------------------------------------------------
 Center     Atomic      Atomic             Coordinates (Angstroms)
 Number     Number       Type             X           Y           Z
 ---------------------------------------------------------------------
      1          6           0       -2.060220    0.000000    0.000000
      2         16           0        2.060220    0.000000    0.000000
      3          1           0        2.019350   -1.343106   -0.050936
      4          1           0       -2.038360    1.080895   -0.009172
      5          1           0       -2.095549   -0.546640   -0.932150
      6          1           0       -2.093608   -0.530871    0.941294
 ---------------------------------------------------------------------

 Alpha  occ. eigenvalues --  -89.87490 -10.65155  -8.23804  -6.15845  -6.15786
 Alpha  occ. eigenvalues --   -6.15234  -0.83548  -0.75376  -0.55605  -0.55539
 Alpha  occ. eigenvalues --   -0.41922  -0.27863  -0.26259
 Alpha virt. eigenvalues --   -0.16782   0.00912   0.03659   0.04006   0.05554
 Alpha virt. eigenvalues --    0.07498   0.08409   0.08438   0.10709   0.13409
 Alpha virt. eigenvalues --    0.15427   0.15562   0.20333   0.34690   0.35719

  Beta  occ. eigenvalues --  -89.87490 -10.65155  -8.23804  -6.15845  -6.15786
  Beta  occ. eigenvalues --   -6.15234  -0.83548  -0.75376  -0.55605  -0.55539
  Beta  occ. eigenvalues --   -0.41922  -0.27863  -0.26259
  Beta virt. eigenvalues --   -0.16782   0.00912   0.03659   0.04006   0.05554
  Beta virt. eigenvalues --    0.07498   0.08409   0.08438   0.10709   0.13409
  Beta virt. eigenvalues --    0.15427   0.15562   0.20333   0.34690   0.35719

 Mulliken charges and spin densities:
               1          2
     1  C   -0.372820   0.000000
     2  S   -0.295253  -0.000000
     3  H    0.050307  -0.000000
     4  H    0.207843  -0.000000
     5  H    0.204792  -0.000000
     6  H    0.205131  -0.000000
 Sum of Mulliken charges =  -0.00000  -0.00000

 Dipole moment (field-independent basis, Debye):
    X=             -5.3021    Y=             -0.9557    Z=             -0.0363  Tot=              5.3876
 Quadrupole moment (field-independent basis, Debye-Ang):
   XX=            -20.9502   YY=            -19.6315   ZZ=            -23.6730
   XY=             -2.0044   XZ=             -0.0775   YZ=              0.1534

 Normal termination of Gaussian 16 at Mon Apr 21 19:43:36 2025.
