 Gaussian 16, Revision A.03,
 Gaussian 16:  ES64L-G16RevA.03 25-Dec-2016

 ---------------------------------------------------------
 #p opt UM062X/6-311+G** nosymm int=superfine SCF=NoVarAcc
 ---------------------------------------------------------

 -------------------
 Title Card Required
 -------------------
 Symbolic Z-matrix:
 Charge =  1 Multiplicity = 2

 SCF Done:  E(UM062X) =  -77.9081351283     A.U. after   10 cycles
 SCF Done:  E(UM062X) =  -77.9121314659     A.U. after    9 cycles
 SCF Done:  E(UM062X) =  -77.9146611527     A.U. after    9 cycles
 SCF Done:  E(UM062X) =  -77.9146645167     A.U. after    7 cycles
 Optimization completed.
    -- Stationary point found.

                          Input orientation:
 ---------------------------------------------------------------------
 Center     Atomic      Atomic             Coordinates (Angstroms)
 Number     Number       Type             X           Y           Z
 ---------------------------------------------------------------------
      1          6           0       -1.806027    0.000000    0.000000
      2          6           0        1.806027    0.000000    0.000000
      3          1           0       -2.363942   -0.942539   -0.000000
      4          1           0       -2.363888    0.942571   -0.000000
      5          1           0        2.363942    0.942539    0.000000
      6          1           0        2.363889   -0.942571    0.000000
 ---------------------------------------------------------------------

 Alpha  occ. eigenvalues --  -10.88882 -10.88882  -1.00167  -1.00028  -0.74832
 Alpha  occ. eigenvalues --   -0.74759  -0.58931  -0.56549
 Alpha virt. eigenvalues --   -0.32183  -0.31619  -0.12895  -0.10911  -0.09343
 Alpha virt. eigenvalues --   -0.07356  -0.06599  -0.05398  -0.04364  -0.01716
 Alpha virt. eigenvalues --   -0.00649   0.00067   0.02089   0.06196   0.26699

  Beta  occ. eigenvalues --  -10.88059 -10.88058  -0.97970  -0.97692  -0.73799
  Beta  occ. eigenvalues --   -0.73711  -0.48178
  Beta virt. eigenvalues --   -0.35364  -0.30327  -0.29608  -0.12692  -0.11001
  Beta virt. eigenvalues --   -0.09175  -0.07138  -0.06631  -0.04566  -0.03803
  Beta virt. eigenvalues --   -0.01439  -0.00011   0.00468   0.02172   0.06952

 Mulliken charges and spin densities:
               1          2
     1  C    0.020048   0.486177
     2  C    0.020048   0.486178
     3  H    0.239977   0.006911
     4  H    0.239975   0.006911
     5  H    0.239976   0.006911
     6  H    0.239975   0.006911
 Sum of Mulliken charges =   1.00000   1.00000

 Dipole moment (field-independent basis, Debye):
    X=              0.0000    Y=              0.0000    Z=             -0.0000  Tot=              0.0000
 Quadrupole moment (field-independent basis, Debye-Ang):
   XX=             15.3119   YY=             -9.4255   ZZ=            -10.7409
   XY=             -0.0000   XZ=              0.0000   YZ=              0.0000

 Normal termination of Gaussian 16 at Tue Dec  3 13:30:40 2024.
