 Gaussian 16, Revision A.03,
 Gaussian 16:  ES64L-G16RevA.03 25-Dec-2016

 --------------------------------------------
 #p opt UM062X/6-311+G** nosymm int=superfine
 --------------------------------------------

 -------------------
 Title Card Required
 -------------------
 Symbolic Z-matrix:
 Charge =  1 Multiplicity = 2

 SCF Done:  E(UM062X) =  -76.6427903744     A.U. after   11 cycles
 SCF Done:  E(UM062X) =  -76.6808091832     A.U. after   11 cycles
 SCF Done:  E(UM062X) =  -76.7329302877     A.U. after   14 cycles
 SCF Done:  E(UM062X) =  -76.7345561150     A.U. after    9 cycles
 SCF Done:  E(UM062X) =  -76.7345603313     A.U. after    7 cycles
 Optimization completed.
    -- Stationary point found.

                          Input orientation:
 ---------------------------------------------------------------------
 Center     Atomic      Atomic             Coordinates (Angstroms)
 Number     Number       Type             X           Y           Z
 ---------------------------------------------------------------------
      1          6           0       -0.845026    0.000000    0.000000
      2          6           0        0.845026    0.000000    0.000000
      3          1           0       -1.941001    0.000004    0.000005
      4          1           0        1.940983    0.000005    0.000006
 ---------------------------------------------------------------------

 Alpha  occ. eigenvalues --  -10.99938 -10.99902  -1.10223  -0.99208  -0.84280
 Alpha  occ. eigenvalues --   -0.63587  -0.61469
 Alpha virt. eigenvalues --   -0.36264  -0.34272  -0.27845  -0.14195  -0.11259
 Alpha virt. eigenvalues --   -0.10570  -0.09085  -0.08849  -0.05314  -0.05000
 Alpha virt. eigenvalues --    0.01380   0.03766   0.07581   0.22614   0.31416

  Beta  occ. eigenvalues --  -10.99688 -10.99663  -1.06382  -0.97438  -0.83403
  Beta  occ. eigenvalues --   -0.59494
  Beta virt. eigenvalues --   -0.40797  -0.32552  -0.28104  -0.25725  -0.15234
  Beta virt. eigenvalues --   -0.11574  -0.11020  -0.09459  -0.09286  -0.05254
  Beta virt. eigenvalues --   -0.04959   0.00496   0.03867   0.07891   0.23322

 Mulliken charges and spin densities:
               1          2
     1  C    0.138210   0.521784
     2  C    0.138207   0.521780
     3  H    0.361795  -0.021782
     4  H    0.361788  -0.021781
 Sum of Mulliken charges =   1.00000   1.00000

 Dipole moment (field-independent basis, Debye):
    X=             -0.0001    Y=              0.0000    Z=              0.0000  Tot=              0.0001
 Quadrupole moment (field-independent basis, Debye-Ang):
   XX=              3.1253   YY=            -11.8321   ZZ=            -11.6020
   XY=              0.0000   XZ=              0.0000   YZ=             -1.0348

 Normal termination of Gaussian 16 at Tue Nov 19 13:15:09 2024.
