 Gaussian 16, Revision A.03,
 Gaussian 16:  ES64L-G16RevA.03 25-Dec-2016

 --------------------------------------------
 #p opt UM062X/6-311+G** nosymm int=superfine
 --------------------------------------------

 -------------------
 Title Card Required
 -------------------
 Symbolic Z-matrix:
 Charge =  1 Multiplicity = 2

 SCF Done:  E(UM062X) =  -1615.56814560     A.U. after   23 cycles
 SCF Done:  E(UM062X) =  -1615.58624927     A.U. after   21 cycles
 SCF Done:  E(UM062X) =  -1615.58739475     A.U. after   22 cycles
 SCF Done:  E(UM062X) =  -1615.58705543     A.U. after   22 cycles
 SCF Done:  E(UM062X) =  -1615.56835831     A.U. after   25 cycles
 SCF Done:  E(UM062X) =  -1615.56946108     A.U. after   22 cycles
 SCF Done:  E(UM062X) =  -1615.58742359     A.U. after   20 cycles
 SCF Done:  E(UM062X) =  -1615.58753804     A.U. after   21 cycles
 SCF Done:  E(UM062X) =  -1615.58765201     A.U. after   21 cycles
 SCF Done:  E(UM062X) =  -1615.58766632     A.U. after   18 cycles
 SCF Done:  E(UM062X) =  -1615.58767418     A.U. after   18 cycles
 SCF Done:  E(UM062X) =  -1615.58767424     A.U. after   18 cycles
 SCF Done:  E(UM062X) =  -1615.58767680     A.U. after   14 cycles
 SCF Done:  E(UM062X) =  -1615.58767692     A.U. after   14 cycles
 SCF Done:  E(UM062X) =  -1615.58767696     A.U. after   14 cycles
 Optimization completed.
    -- Stationary point found.

                          Input orientation:
 ---------------------------------------------------------------------
 Center     Atomic      Atomic             Coordinates (Angstroms)
 Number     Number       Type             X           Y           Z
 ---------------------------------------------------------------------
      1          6           0       -1.483724    0.000000    0.000000
      2          6           0        1.483724    0.000000    0.000000
      3          6           0       -0.000010   -2.095690    0.000098
      4          6           0       -0.000009   -3.487398    0.000123
      5          6           0       -1.133478   -4.305269    0.223999
      6          6           0       -1.282149   -1.475585    0.197303
      7          6           0        0.663111   -5.699662   -0.133009
      8          1           0        1.288374   -6.571534   -0.262047
      9          6           0       -1.584429    0.787573    1.203747
     10          6           0       -0.663122   -5.699656    0.133383
     11          1           0       -1.288389   -6.571520    0.262453
     12          6           0        1.133456   -4.305280   -0.223748
     13          6           0        1.282123   -1.475594   -0.197158
     14          6           0        1.739311    2.209691   -1.289671
     15          6           0       -1.624564    0.378330   -1.383935
     16          6           0       -1.871200    2.812804    2.554014
     17          1           0       -2.005059    3.887652    2.593214
     18          6           0       -2.334441   -3.691440    0.468649
     19          1           0       -3.242649   -4.252235    0.657083
     20          6           0       -1.636866    1.713448   -1.906908
     21          6           0        2.384551   -2.270965   -0.441443
     22          1           0        3.345188   -1.785341   -0.580200
     23          6           0        1.624672    0.378606    1.383880
     24          6           0        1.636765    1.713832    1.906592
     25          6           0        2.334394   -3.691460   -0.468543
     26          1           0        3.242587   -4.252258   -0.657040
     27          6           0       -1.739794    2.209866    1.289299
     28          6           0       -1.494739    0.089808    2.443166
     29          1           0       -1.330396   -0.976794    2.434850
     30          6           0        1.718963   -0.673762    2.348629
     31          1           0        1.744240   -1.699761    2.014781
     32          6           0       -1.831835    2.090629    3.728355
     33          1           0       -1.946215    2.590565    4.682484
     34          6           0       -2.384610   -2.270947    0.441447
     35          1           0       -3.345263   -1.785318    0.580076
     36          6           0       -1.691869    1.907678   -3.302330
     37          1           0       -1.681170    2.926104   -3.672970
     38          6           0        1.584375    0.787376   -1.203855
     39          6           0       -1.710210    3.136560    0.188538
     40          1           0       -1.747444    4.178037    0.493043
     41          6           0       -1.783096    0.863693   -4.193684
     42          1           0       -1.844792    1.055877   -5.257961
     43          6           0       -1.634162    2.929476   -1.140733
     44          1           0       -1.609451    3.829151   -1.748324
     45          6           0        1.692206    1.908376    3.301951
     46          1           0        1.681383    2.926884    3.672365
     47          6           0       -1.621214    0.711781    3.664937
     48          1           0       -1.552209    0.124245    4.572373
     49          6           0       -1.718450   -0.674269   -2.348453
     50          1           0       -1.743613   -1.700194   -2.014354
     51          6           0        1.783924    0.864613    4.193508
     52          1           0        1.845936    1.057041    5.257722
     53          6           0        1.870836    2.812382   -2.554488
     54          1           0        2.004320    3.887269   -2.593896
     55          6           0        1.814340   -0.444340    3.699848
     56          1           0        1.908663   -1.283998    4.377578
     57          6           0        1.832025    2.089913   -3.728671
     58          1           0        1.946556    2.589649   -4.682886
     59          6           0        1.708987    3.136609   -0.189112
     60          1           0        1.745452    4.178046   -0.493844
     61          6           0       -1.813491   -0.445158   -3.699750
     62          1           0       -1.907510   -1.284974   -4.377327
     63          6           0        1.633203    2.929728    1.140201
     64          1           0        1.607941    3.829497    1.747631
     65          6           0        1.495106    0.089299   -2.443113
     66          1           0        1.330973   -0.977339   -2.434556
     67          6           0        1.621737    0.711024   -3.664996
     68          1           0        1.553136    0.123265   -4.572318
 ---------------------------------------------------------------------

 Alpha  occ. eigenvalues --  -10.70797 -10.70796 -10.68608 -10.68608 -10.68578
 Alpha  occ. eigenvalues --  -10.68577 -10.68241 -10.68241 -10.68202 -10.68202
 Alpha  occ. eigenvalues --  -10.67210 -10.67207 -10.66710 -10.66659 -10.66659
 Alpha  occ. eigenvalues --  -10.66555 -10.66555 -10.65965 -10.65965 -10.65825
 Alpha  occ. eigenvalues --  -10.65825 -10.65748 -10.65748 -10.65731 -10.65730
 Alpha  occ. eigenvalues --  -10.65620 -10.65619 -10.65606 -10.65606 -10.65599
 Alpha  occ. eigenvalues --  -10.65599 -10.65448 -10.65448 -10.65402 -10.65402
 Alpha  occ. eigenvalues --  -10.65315 -10.65315 -10.64923 -10.64922 -10.63883
 Alpha  occ. eigenvalues --  -10.63783 -10.63549  -1.12090  -1.10272  -1.10114
 Alpha  occ. eigenvalues --   -1.08354  -1.07794  -1.05466  -1.04930  -1.02549
 Alpha  occ. eigenvalues --   -1.02119  -1.00972  -1.00339  -0.97953  -0.97639
 Alpha  occ. eigenvalues --   -0.96787  -0.96289  -0.94950  -0.93531  -0.93483
 Alpha  occ. eigenvalues --   -0.92845  -0.91795  -0.87387  -0.87274  -0.84993
 Alpha  occ. eigenvalues --   -0.84791  -0.83081  -0.81487  -0.80992  -0.79801
 Alpha  occ. eigenvalues --   -0.79698  -0.79535  -0.77437  -0.76363  -0.76184
 Alpha  occ. eigenvalues --   -0.75851  -0.75390  -0.73430  -0.70213  -0.69657
 Alpha  occ. eigenvalues --   -0.68929  -0.68549  -0.67757  -0.67656  -0.66927
 Alpha  occ. eigenvalues --   -0.66876  -0.65725  -0.65367  -0.65213  -0.64745
 Alpha  occ. eigenvalues --   -0.63247  -0.62836  -0.62395  -0.62132  -0.61023
 Alpha  occ. eigenvalues --   -0.60999  -0.60558  -0.60461  -0.60111  -0.60051
 Alpha  occ. eigenvalues --   -0.59564  -0.58865  -0.58818  -0.58127  -0.57745
 Alpha  occ. eigenvalues --   -0.57536  -0.56956  -0.55977  -0.55665  -0.55657
 Alpha  occ. eigenvalues --   -0.54952  -0.53969  -0.53051  -0.52849  -0.52640
 Alpha  occ. eigenvalues --   -0.52384  -0.52377  -0.52222  -0.51025  -0.50958
 Alpha  occ. eigenvalues --   -0.50951  -0.50893  -0.49878  -0.49529  -0.49477
 Alpha  occ. eigenvalues --   -0.48734  -0.48483  -0.47863  -0.45294  -0.44724
 Alpha  occ. eigenvalues --   -0.44051  -0.42787  -0.40498  -0.40426  -0.39287
 Alpha  occ. eigenvalues --   -0.38165  -0.37541  -0.37092  -0.30928
 Alpha virt. eigenvalues --   -0.20777  -0.16007  -0.15529  -0.14335  -0.10668
 Alpha virt. eigenvalues --   -0.09979  -0.08921  -0.08550  -0.08360  -0.07559
 Alpha virt. eigenvalues --   -0.07532  -0.07435  -0.06653  -0.06345  -0.06148

  Beta  occ. eigenvalues --  -10.70648 -10.70648 -10.68652 -10.68652 -10.68615
  Beta  occ. eigenvalues --  -10.68615 -10.68201 -10.68201 -10.68158 -10.68157
  Beta  occ. eigenvalues --  -10.67229 -10.67226 -10.66681 -10.66655 -10.66654
  Beta  occ. eigenvalues --  -10.66547 -10.66547 -10.65926 -10.65925 -10.65792
  Beta  occ. eigenvalues --  -10.65792 -10.65713 -10.65713 -10.65701 -10.65701
  Beta  occ. eigenvalues --  -10.65638 -10.65638 -10.65625 -10.65625 -10.65598
  Beta  occ. eigenvalues --  -10.65598 -10.65462 -10.65461 -10.65388 -10.65388
  Beta  occ. eigenvalues --  -10.65332 -10.65332 -10.64921 -10.64920 -10.63882
  Beta  occ. eigenvalues --  -10.63783 -10.63546  -1.11937  -1.10109  -1.10032
  Beta  occ. eigenvalues --   -1.08245  -1.07700  -1.05303  -1.04795  -1.02433
  Beta  occ. eigenvalues --   -1.02019  -1.00800  -1.00171  -0.97851  -0.97546
  Beta  occ. eigenvalues --   -0.96673  -0.96192  -0.94903  -0.93465  -0.93388
  Beta  occ. eigenvalues --   -0.92774  -0.91711  -0.87094  -0.86918  -0.84926
  Beta  occ. eigenvalues --   -0.84730  -0.83002  -0.81393  -0.80887  -0.79718
  Beta  occ. eigenvalues --   -0.79630  -0.79464  -0.77330  -0.76212  -0.76033
  Beta  occ. eigenvalues --   -0.75690  -0.75353  -0.73311  -0.70097  -0.69514
  Beta  occ. eigenvalues --   -0.68801  -0.68437  -0.67709  -0.67611  -0.66806
  Beta  occ. eigenvalues --   -0.66768  -0.65644  -0.65221  -0.65073  -0.64649
  Beta  occ. eigenvalues --   -0.63049  -0.62788  -0.62314  -0.62058  -0.60869
  Beta  occ. eigenvalues --   -0.60739  -0.60413  -0.60264  -0.60051  -0.59998
  Beta  occ. eigenvalues --   -0.59434  -0.58734  -0.58730  -0.58057  -0.57572
  Beta  occ. eigenvalues --   -0.57257  -0.56717  -0.55681  -0.55619  -0.55605
  Beta  occ. eigenvalues --   -0.54930  -0.53661  -0.52948  -0.52765  -0.52573
  Beta  occ. eigenvalues --   -0.52279  -0.52279  -0.52183  -0.50961  -0.50885
  Beta  occ. eigenvalues --   -0.50808  -0.50481  -0.49501  -0.49337  -0.48880
  Beta  occ. eigenvalues --   -0.48426  -0.48308  -0.47564  -0.44652  -0.44190
  Beta  occ. eigenvalues --   -0.43331  -0.42441  -0.40361  -0.40137  -0.38700
  Beta  occ. eigenvalues --   -0.38030  -0.37271  -0.36998
  Beta virt. eigenvalues --   -0.21211  -0.18004  -0.15815  -0.15492  -0.14388
  Beta virt. eigenvalues --   -0.10355  -0.09576  -0.08545  -0.08488  -0.08116
  Beta virt. eigenvalues --   -0.07594  -0.07570  -0.07212  -0.06636  -0.06279

 Mulliken charges and spin densities:
               1          2
     1  C    0.020376   0.373123
     2  C    0.020867   0.373136
     3  C    0.282829   0.010764
     4  C    0.199981  -0.006678
     5  C    0.150426   0.005867
     6  C   -0.030445  -0.033708
     7  C   -0.305448   0.000796
     8  H    0.176119  -0.000023
     9  C    0.137116  -0.057233
    10  C   -0.305210   0.000798
    11  H    0.176119  -0.000023
    12  C    0.150606   0.005855
    13  C   -0.030525  -0.033729
    14  C    0.489208   0.029985
    15  C    0.405483  -0.083506
    16  C   -0.392531  -0.032399
    17  H    0.165733   0.001122
    18  C   -0.512647   0.001482
    19  H    0.175865   0.000196
    20  C    0.234748   0.107804
    21  C   -0.088073   0.021924
    22  H    0.175201  -0.000256
    23  C    0.405700  -0.083530
    24  C    0.234437   0.107858
    25  C   -0.512593   0.001480
    26  H    0.175865   0.000196
    27  C    0.489490   0.030076
    28  C    0.006551   0.080963
    29  H    0.208564  -0.004103
    30  C   -0.265368   0.036395
    31  H    0.225884  -0.002845
    32  C   -0.401009   0.057477
    33  H    0.182346  -0.003234
    34  C   -0.088317   0.021903
    35  H    0.175185  -0.000256
    36  C   -0.020906  -0.059831
    37  H    0.160951   0.001522
    38  C    0.137272  -0.057164
    39  C   -0.309017   0.058620
    40  H    0.165410  -0.003151
    41  C   -0.238221   0.068163
    42  H    0.180830  -0.003483
    43  C   -0.340489   0.011327
    44  H    0.160516  -0.000596
    45  C   -0.021337  -0.059853
    46  H    0.160965   0.001523
    47  C   -0.061722  -0.040539
    48  H    0.168449  -0.000018
    49  C   -0.265071   0.036364
    50  H    0.225912  -0.002846
    51  C   -0.238474   0.068113
    52  H    0.180834  -0.003480
    53  C   -0.393024  -0.032375
    54  H    0.165732   0.001122
    55  C   -0.541473  -0.035177
    56  H    0.175930   0.001291
    57  C   -0.401166   0.057466
    58  H    0.182344  -0.003233
    59  C   -0.308031   0.058663
    60  H    0.165371  -0.003155
    61  C   -0.541964  -0.035201
    62  H    0.175930   0.001291
    63  C   -0.339966   0.011291
    64  H    0.160467  -0.000595
    65  C    0.006228   0.080972
    66  H    0.208603  -0.004103
    67  C   -0.061871  -0.040584
    68  H    0.168456  -0.000018
 Sum of Mulliken charges =   1.00000   1.00000

 Dipole moment (field-independent basis, Debye):
    X=             -0.0000    Y=              2.4651    Z=             -0.0005  Tot=              2.4651
 Quadrupole moment (field-independent basis, Debye-Ang):
   XX=           -222.5229   YY=           -174.9819   ZZ=           -176.1860
   XY=             -0.0069   XZ=             -0.9198   YZ=              0.0030

 Normal termination of Gaussian 16 at Thu Nov  7 23:30:12 2024.
