 Gaussian 16, Revision A.03,
 Gaussian 16:  ES64L-G16RevA.03 25-Dec-2016

 ---------------------------------------
 #p UM062X/6-311+G** force int=superfine
 ---------------------------------------

 -------------------
 Title Card Required
 -------------------
 Symbolic Z-matrix:
 Charge =  1 Multiplicity = 2

                         Standard orientation:
 ---------------------------------------------------------------------
 Center     Atomic      Atomic             Coordinates (Angstroms)
 Number     Number       Type             X           Y           Z
 ---------------------------------------------------------------------
      1          7           0        0.000000    0.000000    1.230391
      2          7           0        0.000000    0.000000   -1.230391
 ---------------------------------------------------------------------

 SCF Done:  E(UM062X) =  -108.457063330     A.U. after   11 cycles

 Unable to determine electronic state:  partially filled degenerate orbitals.
 Alpha  occ. eigenvalues --  -15.35618 -15.35608  -1.25035  -1.20794  -0.72479
 Alpha  occ. eigenvalues --   -0.71129  -0.68521
 Alpha virt. eigenvalues --   -0.57996  -0.55327  -0.51242  -0.13030  -0.08863
 Alpha virt. eigenvalues --   -0.08689  -0.08634  -0.03279  -0.03086  -0.02827
 Alpha virt. eigenvalues --    0.04973   0.44473   0.45667   0.47064   0.53818

  Beta  occ. eigenvalues --  -15.35144 -15.35137  -1.21251  -1.17259  -0.70650
  Beta  occ. eigenvalues --   -0.66793
  Beta virt. eigenvalues --   -0.53507  -0.49387  -0.48132  -0.45702  -0.14340
  Beta virt. eigenvalues --   -0.09173  -0.09151  -0.08865  -0.03889  -0.03081
  Beta virt. eigenvalues --   -0.03081   0.03534   0.45014   0.47213   0.47251

 Mulliken charges and spin densities:
               1          2
     1  N    0.500000   0.500000
     2  N    0.500000   0.500000
 Sum of Mulliken charges =   1.00000   1.00000

 Dipole moment (field-independent basis, Debye):
    X=              0.0000    Y=              0.0000    Z=              0.0000  Tot=              0.0000
 Quadrupole moment (field-independent basis, Debye-Ang):
   XX=             -9.9996   YY=             -8.5443   ZZ=             -1.0801
   XY=              0.0000   XZ=             -0.0000   YZ=             -0.0000

 Optimization completed.
    -- Stationary point found.
 Normal termination of Gaussian 16 at Wed Feb 26 13:54:13 2025.
