 Gaussian 16, Revision A.03,
 Gaussian 16:  ES64L-G16RevA.03 25-Dec-2016

 ---------------------------------------
 #p UM062X/6-311+G** force int=superfine
 ---------------------------------------

 -------------------
 Title Card Required
 -------------------
 Symbolic Z-matrix:
 Charge =  1 Multiplicity = 2

                         Standard orientation:
 ---------------------------------------------------------------------
 Center     Atomic      Atomic             Coordinates (Angstroms)
 Number     Number       Type             X           Y           Z
 ---------------------------------------------------------------------
      1          6           0        0.185321    0.532680   -1.706839
      2          6           0       -0.185326   -0.532675    1.706840
      3          1           0       -0.994017   -1.205211    1.444977
      4          1           0        0.406493   -0.477288   -2.032265
      5          1           0       -0.406361    0.477048    2.033124
      6          1           0        0.834173   -0.899470    1.737314
      7          1           0        0.993884    1.205376   -1.444989
      8          1           0       -0.834141    0.899512   -1.738167
 ---------------------------------------------------------------------

 SCF Done:  E(UM062X) =  -79.3241513883     A.U. after   10 cycles

 The electronic state is 2-A.
 Alpha  occ. eigenvalues --  -10.84183 -10.84181  -1.02759  -1.02169  -0.73712
 Alpha  occ. eigenvalues --   -0.73711  -0.73472  -0.73472  -0.49234
 Alpha virt. eigenvalues --   -0.37082  -0.13182  -0.10213  -0.09813  -0.09812
 Alpha virt. eigenvalues --   -0.06242  -0.06242  -0.04527  -0.03175  -0.00793
 Alpha virt. eigenvalues --   -0.00791   0.01281   0.01283   0.03435   0.08221

  Beta  occ. eigenvalues --  -10.83972 -10.83972  -1.00077  -0.99687  -0.73205
  Beta  occ. eigenvalues --   -0.73204  -0.72947  -0.72947
  Beta virt. eigenvalues --   -0.32741  -0.26464  -0.15884  -0.11108  -0.11107
  Beta virt. eigenvalues --   -0.10157  -0.06289  -0.06289  -0.04994  -0.02245
  Beta virt. eigenvalues --   -0.01135  -0.01132   0.01560   0.01562   0.03571

 Mulliken charges and spin densities:
               1          2
     1  C   -0.261551   0.559415
     2  C   -0.261551   0.559415
     3  H    0.253874  -0.019798
     4  H    0.253825  -0.019811
     5  H    0.253848  -0.019811
     6  H    0.253829  -0.019807
     7  H    0.253875  -0.019798
     8  H    0.253851  -0.019806
 Sum of Mulliken charges =   1.00000   1.00000

 Dipole moment (field-independent basis, Debye):
    X=              0.0000    Y=             -0.0001    Z=             -0.0000  Tot=              0.0001
 Quadrupole moment (field-independent basis, Debye-Ang):
   XX=            -10.9284   YY=             -9.7346   ZZ=              2.8451
   XY=              0.4729   XZ=             -1.5147   YZ=             -4.3511

 Normal termination of Gaussian 16 at Wed Nov 13 13:04:35 2024.
