 Gaussian 16, Revision A.03,
 Gaussian 16:  ES64L-G16RevA.03 25-Dec-2016

 --------------------------------------------
 #p opt UM062X/6-311+G** nosymm int=superfine
 --------------------------------------------

 -------------------
 Title Card Required
 -------------------
 Symbolic Z-matrix:
 Charge =  1 Multiplicity = 2

 SCF Done:  E(UM062X) =  -579.678760143     A.U. after   14 cycles
 SCF Done:  E(UM062X) =  -579.680370046     A.U. after   12 cycles
 SCF Done:  E(UM062X) =  -579.683224874     A.U. after   14 cycles
 SCF Done:  E(UM062X) =  -579.684377409     A.U. after   14 cycles
 SCF Done:  E(UM062X) =  -579.684795089     A.U. after   14 cycles
 SCF Done:  E(UM062X) =  -579.684907863     A.U. after   13 cycles
 SCF Done:  E(UM062X) =  -579.684923401     A.U. after   12 cycles
 SCF Done:  E(UM062X) =  -579.684931051     A.U. after   12 cycles
 SCF Done:  E(UM062X) =  -579.684936732     A.U. after   12 cycles
 SCF Done:  E(UM062X) =  -579.684945676     A.U. after   11 cycles
 SCF Done:  E(UM062X) =  -579.684954538     A.U. after   12 cycles
 SCF Done:  E(UM062X) =  -579.684954656     A.U. after    9 cycles
 Optimization completed.
    -- Stationary point found.

                          Input orientation:
 ---------------------------------------------------------------------
 Center     Atomic      Atomic             Coordinates (Angstroms)
 Number     Number       Type             X           Y           Z
 ---------------------------------------------------------------------
      1         14           0       -2.077975    0.000000    0.000000
      2         14           0        2.077975    0.000000    0.000000
      3          1           0       -2.166165   -1.505514    0.000000
      4          1           0        2.166392    1.505508    0.000000
 ---------------------------------------------------------------------

 Alpha  occ. eigenvalues --  -67.26629 -67.26629  -5.80795  -5.80793  -4.11891
 Alpha  occ. eigenvalues --   -4.11891  -4.11811  -4.11811  -4.11159  -4.11159
 Alpha  occ. eigenvalues --   -0.75842  -0.75099  -0.52412  -0.52222  -0.41054
 Alpha virt. eigenvalues --   -0.28825  -0.27821  -0.26733  -0.10934  -0.09605
 Alpha virt. eigenvalues --   -0.08612  -0.08311  -0.07788  -0.06760  -0.05613
 Alpha virt. eigenvalues --   -0.05554  -0.04988  -0.02675   0.13146   0.13438

  Beta  occ. eigenvalues --  -67.26377 -67.26377  -5.80723  -5.80721  -4.11749
  Beta  occ. eigenvalues --   -4.11749  -4.11219  -4.11219  -4.11051  -4.11051
  Beta  occ. eigenvalues --   -0.73931  -0.73488  -0.51791  -0.51487
  Beta virt. eigenvalues --   -0.27968  -0.27604  -0.26305  -0.23381  -0.13651
  Beta virt. eigenvalues --   -0.10575  -0.09045  -0.08522  -0.08392  -0.06676
  Beta virt. eigenvalues --   -0.05510  -0.05394  -0.05243  -0.02734   0.11762

 Mulliken charges and spin densities:
               1          2
     1  Si   0.580974   0.509569
     2  Si   0.580960   0.509581
     3  H   -0.080969  -0.009575
     4  H   -0.080964  -0.009575
 Sum of Mulliken charges =   1.00000   1.00000

 Dipole moment (field-independent basis, Debye):
    X=              0.0000    Y=             -0.0000    Z=              0.0000  Tot=              0.0000
 Quadrupole moment (field-independent basis, Debye-Ang):
   XX=              1.5317   YY=            -27.6962   ZZ=            -19.9306
   XY=              2.2746   XZ=              0.0000   YZ=             -0.0000

 Normal termination of Gaussian 16 at Mon Apr 21 20:43:19 2025.
