 Gaussian 16, Revision A.03,
 Gaussian 16:  ES64L-G16RevA.03 25-Dec-2016

 --------------------------------------------
 #p opt UM062X/6-311+G** nosymm int=superfine
 --------------------------------------------

 -------------------
 Title Card Required
 -------------------
 Symbolic Z-matrix:
 Charge =  0 Multiplicity = 1

 SCF Done:  E(UM062X) =  -76.8717003478     A.U. after   15 cycles
 SCF Done:  E(UM062X) =  -76.8723314930     A.U. after   15 cycles
 SCF Done:  E(UM062X) =  -76.8735575742     A.U. after   16 cycles
 SCF Done:  E(UM062X) =  -76.8740150190     A.U. after   16 cycles
 SCF Done:  E(UM062X) =  -76.8741175631     A.U. after   16 cycles
 SCF Done:  E(UM062X) =  -76.8741396887     A.U. after   20 cycles
 SCF Done:  E(UM062X) =  -76.8741398122     A.U. after   12 cycles
 Optimization completed.
    -- Stationary point found.

                          Input orientation:
 ---------------------------------------------------------------------
 Center     Atomic      Atomic             Coordinates (Angstroms)
 Number     Number       Type             X           Y           Z
 ---------------------------------------------------------------------
      1          6           0       -1.857625    0.000000    0.000000
      2          6           0        1.857625    0.000000    0.000000
      3          1           0       -1.688713   -0.652375    0.892229
      4          1           0        1.688928    0.653911   -0.891141
 ---------------------------------------------------------------------

 Alpha  occ. eigenvalues --  -10.67679 -10.67677  -0.73002  -0.72477  -0.39150
 Alpha  occ. eigenvalues --   -0.38917  -0.23837
 Alpha virt. eigenvalues --   -0.12690  -0.10394  -0.09537   0.03271   0.04582
 Alpha virt. eigenvalues --    0.07236   0.07314   0.09289   0.09700   0.10944
 Alpha virt. eigenvalues --    0.13942   0.18117   0.19323   0.44177   0.45325

  Beta  occ. eigenvalues --  -10.67679 -10.67677  -0.73002  -0.72477  -0.39150
  Beta  occ. eigenvalues --   -0.38917  -0.23837
  Beta virt. eigenvalues --   -0.12690  -0.10394  -0.09537   0.03271   0.04582
  Beta virt. eigenvalues --    0.07236   0.07314   0.09289   0.09700   0.10944
  Beta virt. eigenvalues --    0.13942   0.18117   0.19323   0.44177   0.45325

 Mulliken charges and spin densities:
               1          2
     1  C   -0.143423   0.000002
     2  C   -0.143452  -0.000002
     3  H    0.143439  -0.000000
     4  H    0.143436   0.000000
 Sum of Mulliken charges =  -0.00000   0.00000

 Dipole moment (field-independent basis, Debye):
    X=              0.0002    Y=              0.0023    Z=              0.0017  Tot=              0.0028
 Quadrupole moment (field-independent basis, Debye-Ang):
   XX=            -16.9936   YY=            -12.9640   ZZ=            -13.7756
   XY=              3.6097   XZ=             -4.9281   YZ=              1.2827

 Normal termination of Gaussian 16 at Tue Dec  3 23:49:27 2024.
