 Gaussian 16, Revision A.03,
 Gaussian 16:  ES64L-G16RevA.03 25-Dec-2016

 --------------------------------------------
 #p opt UM062X/6-311+G** nosymm int=superfine
 --------------------------------------------

 -------------------
 Title Card Required
 -------------------
 Symbolic Z-matrix:
 Charge =  0 Multiplicity = 1

 SCF Done:  E(UM062X) =  -114.459389415     A.U. after   10 cycles
 SCF Done:  E(UM062X) =  -114.460117625     A.U. after    9 cycles
 SCF Done:  E(UM062X) =  -114.460187603     A.U. after    8 cycles
 SCF Done:  E(UM062X) =  -114.460186592     A.U. after    7 cycles
 SCF Done:  E(UM062X) =  -114.460185916     A.U. after    8 cycles
 SCF Done:  E(UM062X) =  -114.460187653     A.U. after    7 cycles
 Optimization completed.
    -- Stationary point found.

                          Input orientation:
 ---------------------------------------------------------------------
 Center     Atomic      Atomic             Coordinates (Angstroms)
 Number     Number       Type             X           Y           Z
 ---------------------------------------------------------------------
      1          6           0       -0.673311    0.000000    0.000000
      2          8           0        0.673311    0.000000    0.000000
      3          1           0       -1.206955   -0.951826   -0.000369
      4          1           0       -1.206956    0.951826   -0.000368
 ---------------------------------------------------------------------

 Alpha  occ. eigenvalues --  -19.65604 -10.66273  -1.12174  -0.75226  -0.57366
 Alpha  occ. eigenvalues --   -0.51186  -0.43280  -0.36077
 Alpha virt. eigenvalues --   -0.04614   0.01702   0.04451   0.04503   0.06778
 Alpha virt. eigenvalues --    0.15492   0.20408   0.21000   0.24280   0.26215
 Alpha virt. eigenvalues --    0.26918   0.33804   0.46195   0.50184   0.54988

  Beta  occ. eigenvalues --  -19.65604 -10.66273  -1.12174  -0.75226  -0.57366
  Beta  occ. eigenvalues --   -0.51186  -0.43280  -0.36077
  Beta virt. eigenvalues --   -0.04614   0.01702   0.04451   0.04503   0.06778
  Beta virt. eigenvalues --    0.15492   0.20408   0.21000   0.24280   0.26215
  Beta virt. eigenvalues --    0.26918   0.33804   0.46195   0.50184   0.54988

 Mulliken charges and spin densities:
               1          2
     1  C   -0.038710  -0.000000
     2  O   -0.276513  -0.000000
     3  H    0.157611   0.000000
     4  H    0.157611   0.000000
 Sum of Mulliken charges =  -0.00000  -0.00000

 Dipole moment (field-independent basis, Debye):
    X=             -3.1434    Y=             -0.0000    Z=             -0.0005  Tot=              3.1434
 Quadrupole moment (field-independent basis, Debye-Ang):
   XX=            -11.6304   YY=            -11.4263   ZZ=            -12.1535
   XY=             -0.0000   XZ=              0.0005   YZ=              0.0000

 Normal termination of Gaussian 16 at Mon Apr 21 18:46:59 2025.
