 Gaussian 16, Revision A.03,
 Gaussian 16:  ES64L-G16RevA.03 25-Dec-2016

 ---------------------------------------------------
 #p UM062X/6-311+G** force int=superfine pop=saveNBO
 ---------------------------------------------------

 -------------------
 Title Card Required
 -------------------
 Symbolic Z-matrix:
 Charge =  0 Multiplicity = 1

                         Standard orientation:
 ---------------------------------------------------------------------
 Center     Atomic      Atomic             Coordinates (Angstroms)
 Number     Number       Type             X           Y           Z
 ---------------------------------------------------------------------
      1          8           0        0.000000    0.000000   -2.226757
      2         16           0        0.000000    0.000000    1.113379
 ---------------------------------------------------------------------

 SCF Done:  E(UM062X) =  -473.006646181     A.U. after   21 cycles

 Unable to determine electronic state:  an orbital has unidentified symmetry.
 Alpha  occ. eigenvalues --  -89.96387 -19.79341  -8.32420  -6.25208  -6.23631
 Alpha  occ. eigenvalues --   -6.23608  -1.08927  -0.76416  -0.47879  -0.47703
 Alpha  occ. eigenvalues --   -0.33637  -0.33616
 Alpha virt. eigenvalues --   -0.21843  -0.18630   0.03989   0.05336   0.05819
 Alpha virt. eigenvalues --    0.05923   0.14945   0.16529   0.17328   0.22313
 Alpha virt. eigenvalues --    0.35055   0.35069   0.35196   0.59406   0.78318

  Beta  occ. eigenvalues --  -89.96387 -19.79341  -8.32420  -6.25208  -6.23631
  Beta  occ. eigenvalues --   -6.23608  -1.08927  -0.76416  -0.47879  -0.47703
  Beta  occ. eigenvalues --   -0.33637  -0.33616
  Beta virt. eigenvalues --   -0.21843  -0.18630   0.03989   0.05336   0.05819
  Beta virt. eigenvalues --    0.05923   0.14945   0.16529   0.17328   0.22313
  Beta virt. eigenvalues --    0.35055   0.35069   0.35196   0.59406   0.78318

 Mulliken charges and spin densities:
               1          2
     1  O   -0.005219  -0.000000
     2  S    0.005219  -0.000000
 Sum of Mulliken charges =  -0.00000  -0.00000

 Dipole moment (field-independent basis, Debye):
    X=              0.0000    Y=              0.0000    Z=              0.0847  Tot=              0.0847
 Quadrupole moment (field-independent basis, Debye-Ang):
   XX=            -18.9541   YY=            -21.1625   ZZ=            -15.5941
   XY=              0.0000   XZ=              0.0000   YZ=              0.0000

 Summary of Natural Population Analysis:

                                       Natural Population
                Natural  -----------------------------------------------
    Atom  No    Charge         Core      Valence    Rydberg      Total
 -----------------------------------------------------------------------
      O    1   -0.00237      1.00000     3.00211    0.00026     4.00237
      S    2    0.00237      4.99999     2.99722    0.00042     7.99763
 =======================================================================
   * Total *   -0.00000      5.99999     5.99933    0.00068    12.00000

 Normal termination of Gaussian 16 at Mon Apr 21 20:00:17 2025.
