 Gaussian 16, Revision A.03,
 Gaussian 16:  ES64L-G16RevA.03 25-Dec-2016

 --------------------------------------------
 #p opt UM062X/6-311+G** nosymm int=superfine
 --------------------------------------------

 -------------------
 Title Card Required
 -------------------
 Symbolic Z-matrix:
 Charge =  0 Multiplicity = 1

 SCF Done:  E(UM062X) =  -95.8090119504     A.U. after   11 cycles
 SCF Done:  E(UM062X) =  -95.8127789959     A.U. after   10 cycles
 SCF Done:  E(UM062X) =  -95.8129210586     A.U. after    9 cycles
 SCF Done:  E(UM062X) =  -95.8129220840     A.U. after    8 cycles
 Optimization completed.
    -- Stationary point found.

                          Input orientation:
 ---------------------------------------------------------------------
 Center     Atomic      Atomic             Coordinates (Angstroms)
 Number     Number       Type             X           Y           Z
 ---------------------------------------------------------------------
      1          6           0       -0.855542    0.000000    0.000000
      2          7           0        0.855542    0.000000    0.000000
      3          1           0        1.107049   -0.982930    0.070328
      4          1           0       -1.144360    1.046318   -0.011962
      5          1           0        1.106991    0.411352    0.895499
      6          1           0       -1.144347   -0.493018   -0.922965
      7          1           0       -1.242983   -0.517814    0.874966
 ---------------------------------------------------------------------

 Alpha  occ. eigenvalues --  -14.73505 -10.56763  -0.94035  -0.76180  -0.54154
 Alpha  occ. eigenvalues --   -0.49274  -0.45624  -0.42766  -0.32117
 Alpha virt. eigenvalues --    0.01444   0.03295   0.05133   0.05944   0.11060
 Alpha virt. eigenvalues --    0.13874   0.15595   0.17108   0.17426   0.19133
 Alpha virt. eigenvalues --    0.21836   0.22307   0.23134   0.30010   0.42665

  Beta  occ. eigenvalues --  -14.73505 -10.56763  -0.94035  -0.76180  -0.54154
  Beta  occ. eigenvalues --   -0.49274  -0.45624  -0.42766  -0.32117
  Beta virt. eigenvalues --    0.01444   0.03295   0.05133   0.05944   0.11060
  Beta virt. eigenvalues --    0.13874   0.15595   0.17108   0.17426   0.19133
  Beta virt. eigenvalues --    0.21836   0.22307   0.23134   0.30010   0.42665

 Mulliken charges and spin densities:
               1          2
     1  C   -0.413301   0.000000
     2  N   -0.547207  -0.000000
     3  H    0.237457   0.000000
     4  H    0.166244  -0.000000
     5  H    0.237452   0.000000
     6  H    0.166244  -0.000000
     7  H    0.153111   0.000000
 Sum of Mulliken charges =  -0.00000  -0.00000

 Dipole moment (field-independent basis, Debye):
    X=             -1.0766    Y=             -0.8069    Z=              1.3634  Tot=              1.9154
 Quadrupole moment (field-independent basis, Debye-Ang):
   XX=            -14.8159   YY=            -13.2844   ZZ=            -14.3246
   XY=             -1.2238   XZ=              2.0676   YZ=              0.9475

 Normal termination of Gaussian 16 at Mon Apr 21 18:07:53 2025.
