 Gaussian 16, Revision A.03,
 Gaussian 16:  ES64L-G16RevA.03 25-Dec-2016

 ----------------------------------------------------------------------
 #p opt UM062X/6-311+G** nosymm int=superfine SCF=(MaxCycle=200,NoVarAc
 c,noincfock) guess=read
 ----------------------------------------------------------------------

 -------------------
 Title Card Required
 -------------------
 Symbolic Z-matrix:
 Charge =  1 Multiplicity = 2

 SCF Done:  E(UM062X) =  -92.6496466208     A.U. after   42 cycles
 SCF Done:  E(UM062X) =  -92.6500366844     A.U. after   20 cycles
 SCF Done:  E(UM062X) =  -92.6500401690     A.U. after   21 cycles
 Optimization completed.
    -- Stationary point found.

                          Input orientation:
 ---------------------------------------------------------------------
 Center     Atomic      Atomic             Coordinates (Angstroms)
 Number     Number       Type             X           Y           Z
 ---------------------------------------------------------------------
      1          6           0       -1.401540    0.000000    0.000000
      2          7           0        1.401540    0.000000    0.000000
      3          1           0       -2.522877   -0.000000    0.000000
 ---------------------------------------------------------------------

 Alpha  occ. eigenvalues --  -15.13411 -11.02175  -1.16361  -0.99587  -0.68251
 Alpha  occ. eigenvalues --   -0.68227  -0.65301
 Alpha virt. eigenvalues --   -0.46239  -0.37265  -0.33529  -0.15670  -0.10125
 Alpha virt. eigenvalues --   -0.09334  -0.08375  -0.04291  -0.01584  -0.01402
 Alpha virt. eigenvalues --    0.00490   0.08265   0.23456   0.30321   0.30415

  Beta  occ. eigenvalues --  -15.09620 -11.04665  -1.08802  -0.94945  -0.78436
  Beta  occ. eigenvalues --   -0.67325
  Beta virt. eigenvalues --   -0.42990  -0.29751  -0.29043  -0.29005  -0.15599
  Beta virt. eigenvalues --   -0.11446  -0.09347  -0.09231  -0.06431   0.00055
  Beta virt. eigenvalues --    0.00098   0.00199   0.05393   0.23159   0.29761

 Mulliken charges and spin densities:
               1          2
     1  C    0.362722  -1.617804
     2  N    0.275363   2.720720
     3  H    0.361915  -0.102916
 Sum of Mulliken charges =   1.00000   1.00000

 Dipole moment (field-independent basis, Debye):
    X=             -4.8818    Y=             -0.0000    Z=              0.0000  Tot=              4.8818
 Quadrupole moment (field-independent basis, Debye-Ang):
   XX=              7.0940   YY=            -10.8196   ZZ=             -9.2291
   XY=              0.0000   XZ=             -0.0000   YZ=              0.1654

 Normal termination of Gaussian 16 at Mon Apr 21 23:06:53 2025.
