 Gaussian 16, Revision A.03,
 Gaussian 16:  ES64L-G16RevA.03 25-Dec-2016

 --------------------------------------------
 #p opt UM062X/6-311+G** nosymm int=superfine
 --------------------------------------------

 -------------------
 Title Card Required
 -------------------
 Symbolic Z-matrix:
 Charge =  1 Multiplicity = 2

 SCF Done:  E(UM062X) =  -580.858031633     A.U. after   15 cycles
 SCF Done:  E(UM062X) =  -580.865730716     A.U. after    9 cycles
 SCF Done:  E(UM062X) =  -580.867923168     A.U. after   13 cycles
 SCF Done:  E(UM062X) =  -580.867926158     A.U. after    7 cycles
 Optimization completed.
    -- Stationary point found.

                          Input orientation:
 ---------------------------------------------------------------------
 Center     Atomic      Atomic             Coordinates (Angstroms)
 Number     Number       Type             X           Y           Z
 ---------------------------------------------------------------------
      1         14           0       -2.591295    0.000000    0.000000
      2         14           0        2.591295    0.000000    0.000000
      3          1           0       -3.493668   -1.188787    0.000045
      4          1           0        3.493668    1.188786    0.001071
      5          1           0       -3.493683    1.188775   -0.000036
      6          1           0        3.493683   -1.188775   -0.001063
 ---------------------------------------------------------------------

 Alpha  occ. eigenvalues --  -67.23493 -67.23493  -5.77995  -5.77995  -4.09263
 Alpha  occ. eigenvalues --   -4.09263  -4.08941  -4.08941  -4.08602  -4.08602
 Alpha  occ. eigenvalues --   -0.77531  -0.77499  -0.59335  -0.59327  -0.48342
 Alpha  occ. eigenvalues --   -0.47510
 Alpha virt. eigenvalues --   -0.26301  -0.26033  -0.11859  -0.11518  -0.09155
 Alpha virt. eigenvalues --   -0.08601  -0.07587  -0.06719  -0.06672  -0.05888
 Alpha virt. eigenvalues --   -0.05304  -0.05238  -0.05232  -0.03299   0.13551

  Beta  occ. eigenvalues --  -67.23168 -67.23168  -5.77754  -5.77754  -4.09162
  Beta  occ. eigenvalues --   -4.09162  -4.08496  -4.08496  -4.08178  -4.08178
  Beta  occ. eigenvalues --   -0.75735  -0.75583  -0.58170  -0.58157  -0.41313
  Beta virt. eigenvalues --   -0.33642  -0.25152  -0.24800  -0.11166  -0.10360
  Beta virt. eigenvalues --   -0.09226  -0.07062  -0.07052  -0.06222  -0.06210
  Beta virt. eigenvalues --   -0.05939  -0.05167  -0.04986  -0.04527  -0.02955

 Mulliken charges and spin densities:
               1          2
     1  Si   0.567163   0.390751
     2  Si   0.567163   0.390751
     3  H   -0.033581   0.054625
     4  H   -0.033581   0.054625
     5  H   -0.033581   0.054625
     6  H   -0.033581   0.054625
 Sum of Mulliken charges =   1.00000   1.00000

 Dipole moment (field-independent basis, Debye):
    X=             -0.0000    Y=              0.0000    Z=              0.0000  Tot=              0.0000
 Quadrupole moment (field-independent basis, Debye-Ang):
   XX=             12.3757   YY=            -25.9664   ZZ=            -20.8839
   XY=             -0.0000   XZ=              0.0000   YZ=             -0.0022

 Normal termination of Gaussian 16 at Mon Apr 21 20:29:00 2025.
