 Gaussian 16, Revision A.03,
 Gaussian 16:  ES64L-G16RevA.03 25-Dec-2016

 --------------------------------------------
 #p opt UM062X/6-311+G** nosymm int=superfine
 --------------------------------------------

 -------------------
 Title Card Required
 -------------------
 Symbolic Z-matrix:
 Charge =  0 Multiplicity = 1

 SCF Done:  E(UM062X) =  -76.8504592483     A.U. after   15 cycles
 SCF Done:  E(UM062X) =  -76.8507083512     A.U. after   15 cycles
 SCF Done:  E(UM062X) =  -76.8514020855     A.U. after   18 cycles
 SCF Done:  E(UM062X) =  -76.8520301247     A.U. after   17 cycles
 SCF Done:  E(UM062X) =  -76.8520782848     A.U. after   15 cycles
 SCF Done:  E(UM062X) =  -76.8520933989     A.U. after   27 cycles
 SCF Done:  E(UM062X) =  -76.8520938421     A.U. after   15 cycles
 SCF Done:  E(UM062X) =  -76.8520940648     A.U. after   11 cycles
 Optimization completed.
    -- Stationary point found.

                          Input orientation:
 ---------------------------------------------------------------------
 Center     Atomic      Atomic             Coordinates (Angstroms)
 Number     Number       Type             X           Y           Z
 ---------------------------------------------------------------------
      1          6           0       -2.207625    0.000000    0.000000
      2          6           0        2.207625    0.000000    0.000000
      3          1           0       -2.002908   -0.650498    0.887204
      4          1           0        2.003038    0.650935   -0.886912
 ---------------------------------------------------------------------

 Alpha  occ. eigenvalues --  -10.67569 -10.67568  -0.72998  -0.72796  -0.39170
 Alpha  occ. eigenvalues --   -0.39100  -0.22486
 Alpha virt. eigenvalues --   -0.14341  -0.10269  -0.09899   0.03008   0.04334
 Alpha virt. eigenvalues --    0.07172   0.07235   0.09045   0.09453   0.10263
 Alpha virt. eigenvalues --    0.13640   0.17880   0.19000   0.45278   0.46240

  Beta  occ. eigenvalues --  -10.67569 -10.67568  -0.72998  -0.72796  -0.39170
  Beta  occ. eigenvalues --   -0.39100  -0.22486
  Beta virt. eigenvalues --   -0.14341  -0.10269  -0.09899   0.03008   0.04334
  Beta virt. eigenvalues --    0.07172   0.07235   0.09045   0.09453   0.10263
  Beta virt. eigenvalues --    0.13640   0.17880   0.19000   0.45278   0.46240

 Mulliken charges and spin densities:
               1          2
     1  C   -0.138836   0.000007
     2  C   -0.138848  -0.000007
     3  H    0.138843  -0.000000
     4  H    0.138842   0.000000
 Sum of Mulliken charges =  -0.00000  -0.00000

 Dipole moment (field-independent basis, Debye):
    X=              0.0001    Y=              0.0007    Z=              0.0005  Tot=              0.0008
 Quadrupole moment (field-independent basis, Debye-Ang):
   XX=            -17.7743   YY=            -13.0455   ZZ=            -13.8761
   XY=              4.1944   XZ=             -5.7187   YZ=              1.3194

 Normal termination of Gaussian 16 at Wed Dec  4 00:38:57 2024.
