 Gaussian 16, Revision A.03,
 Gaussian 16:  ES64L-G16RevA.03 25-Dec-2016

 --------------------------------------------
 #p opt UM062X/6-311+G** nosymm int=superfine
 --------------------------------------------

 -------------------
 Title Card Required
 -------------------
 Symbolic Z-matrix:
 Charge =  0 Multiplicity = 1

 SCF Done:  E(UM062X) =  -81.8548258955     A.U. after   11 cycles
 SCF Done:  E(UM062X) =  -81.8587992043     A.U. after    9 cycles
 SCF Done:  E(UM062X) =  -81.8605288604     A.U. after   10 cycles
 SCF Done:  E(UM062X) =  -81.8533784813     A.U. after   12 cycles
 SCF Done:  E(UM062X) =  -81.8606321894     A.U. after   10 cycles
 SCF Done:  E(UM062X) =  -81.8620815249     A.U. after   13 cycles
 SCF Done:  E(UM062X) =  -81.8624530243     A.U. after   12 cycles
 SCF Done:  E(UM062X) =  -81.8694517268     A.U. after   11 cycles
 SCF Done:  E(UM062X) =  -81.8701348006     A.U. after   11 cycles
 SCF Done:  E(UM062X) =  -81.8677430537     A.U. after   12 cycles
 SCF Done:  E(UM062X) =  -81.8722296286     A.U. after   11 cycles
 SCF Done:  E(UM062X) =  -81.8724322780     A.U. after   10 cycles
 SCF Done:  E(UM062X) =  -81.8724427986     A.U. after    9 cycles
 SCF Done:  E(UM062X) =  -81.8724434231     A.U. after    8 cycles
 Optimization completed.
    -- Stationary point found.

                          Input orientation:
 ---------------------------------------------------------------------
 Center     Atomic      Atomic             Coordinates (Angstroms)
 Number     Number       Type             X           Y           Z
 ---------------------------------------------------------------------
      1          5           0       -1.120399    0.000000    0.000000
      2          7           0        1.120399    0.000000    0.000000
      3          1           0       -1.570788   -1.085406   -0.037032
      4          1           0        1.305832    0.815824    0.583393
      5          1           0       -1.570791    1.085392   -0.037413
      6          1           0        1.305829   -0.815622    0.583675
 ---------------------------------------------------------------------

 Alpha  occ. eigenvalues --  -14.72650  -7.14125  -0.89126  -0.59761  -0.50762
 Alpha  occ. eigenvalues --   -0.46637  -0.36305  -0.30150
 Alpha virt. eigenvalues --   -0.05432   0.00041   0.01490   0.03363   0.05363
 Alpha virt. eigenvalues --    0.06822   0.11546   0.13815   0.14501   0.16732
 Alpha virt. eigenvalues --    0.20364   0.20736   0.21563   0.29066   0.34078

  Beta  occ. eigenvalues --  -14.72650  -7.14125  -0.89126  -0.59761  -0.50762
  Beta  occ. eigenvalues --   -0.46637  -0.36305  -0.30150
  Beta virt. eigenvalues --   -0.05432   0.00041   0.01490   0.03363   0.05363
  Beta virt. eigenvalues --    0.06822   0.11546   0.13815   0.14501   0.16732
  Beta virt. eigenvalues --    0.20364   0.20736   0.21563   0.29066   0.34078

 Mulliken charges and spin densities:
               1          2
     1  B    0.198274   0.000000
     2  N   -0.746081  -0.000000
     3  H    0.037930  -0.000000
     4  H    0.235973   0.000000
     5  H    0.037930  -0.000000
     6  H    0.235973   0.000000
 Sum of Mulliken charges =  -0.00000   0.00000

 Dipole moment (field-independent basis, Debye):
    X=             -2.3527    Y=              0.0003    Z=              1.5836  Tot=              2.8360
 Quadrupole moment (field-independent basis, Debye-Ang):
   XX=            -14.8411   YY=            -13.3119   ZZ=            -14.5024
   XY=              0.0004   XZ=              2.5067   YZ=             -0.0002

 Normal termination of Gaussian 16 at Mon Apr 21 17:45:36 2025.
