 Gaussian 16, Revision A.03,
 Gaussian 16:  ES64L-G16RevA.03 25-Dec-2016

 --------------------------------------------
 #p opt UM062X/6-311+G** nosymm int=superfine
 --------------------------------------------

 -------------------
 Title Card Required
 -------------------
 Symbolic Z-matrix:
 Charge =  0 Multiplicity = 1

 SCF Done:  E(UM062X) =  -95.7820738029     A.U. after   11 cycles
 SCF Done:  E(UM062X) =  -95.7898061618     A.U. after   11 cycles
 SCF Done:  E(UM062X) =  -95.7903784948     A.U. after   10 cycles
 SCF Done:  E(UM062X) =  -95.7903842817     A.U. after    8 cycles
 Optimization completed.
    -- Stationary point found.

                          Input orientation:
 ---------------------------------------------------------------------
 Center     Atomic      Atomic             Coordinates (Angstroms)
 Number     Number       Type             X           Y           Z
 ---------------------------------------------------------------------
      1          6           0       -0.930542    0.000000    0.000000
      2          7           0        0.930542    0.000000    0.000000
      3          1           0        1.126004   -0.995667    0.095663
      4          1           0       -1.181630    1.054093   -0.008420
      5          1           0        1.126070    0.395346    0.918797
      6          1           0       -1.181644   -0.498675   -0.928711
      7          1           0       -1.278182   -0.524262    0.884544
 ---------------------------------------------------------------------

 Alpha  occ. eigenvalues --  -14.74059 -10.57591  -0.92669  -0.76839  -0.53303
 Alpha  occ. eigenvalues --   -0.49362  -0.46775  -0.40241  -0.32553
 Alpha virt. eigenvalues --    0.01435   0.02278   0.05156   0.05929   0.10468
 Alpha virt. eigenvalues --    0.12399   0.13818   0.16090   0.17024   0.18831
 Alpha virt. eigenvalues --    0.21604   0.22483   0.22742   0.30829   0.42338

  Beta  occ. eigenvalues --  -14.74059 -10.57591  -0.92669  -0.76839  -0.53303
  Beta  occ. eigenvalues --   -0.49362  -0.46775  -0.40241  -0.32553
  Beta virt. eigenvalues --    0.01435   0.02278   0.05156   0.05929   0.10468
  Beta virt. eigenvalues --    0.12399   0.13818   0.16090   0.17024   0.18831
  Beta virt. eigenvalues --    0.21604   0.22483   0.22742   0.30829   0.42338

 Mulliken charges and spin densities:
               1          2
     1  C   -0.419811  -0.000000
     2  N   -0.561975   0.000000
     3  H    0.237892  -0.000000
     4  H    0.173023   0.000000
     5  H    0.237887  -0.000000
     6  H    0.173048   0.000000
     7  H    0.159935   0.000000
 Sum of Mulliken charges =  -0.00000   0.00000

 Dipole moment (field-independent basis, Debye):
    X=             -1.3393    Y=             -0.8420    Z=              1.4229  Tot=              2.1278
 Quadrupole moment (field-independent basis, Debye-Ang):
   XX=            -14.9824   YY=            -13.2825   ZZ=            -14.2485
   XY=             -1.2553   XZ=              2.1217   YZ=              0.8796

 Normal termination of Gaussian 16 at Mon Apr 21 18:10:10 2025.
