 Gaussian 16, Revision A.03,
 Gaussian 16:  ES64L-G16RevA.03 25-Dec-2016

 --------------------------------------------
 #p opt UM062X/6-311+G** nosymm int=superfine
 --------------------------------------------

 -------------------
 Title Card Required
 -------------------
 Symbolic Z-matrix:
 Charge =  0 Multiplicity = 1

 SCF Done:  E(UM062X) =  -51.8101890676     A.U. after   10 cycles
 SCF Done:  E(UM062X) =  -51.8152274992     A.U. after    9 cycles
 SCF Done:  E(UM062X) =  -51.8180333097     A.U. after   11 cycles
 SCF Done:  E(UM062X) =  -51.8180356327     A.U. after    9 cycles
 SCF Done:  E(UM062X) =  -51.8180229525     A.U. after    8 cycles
 SCF Done:  E(UM062X) =  -51.8180352862     A.U. after    9 cycles
 Optimization completed.
    -- Stationary point found.

                          Input orientation:
 ---------------------------------------------------------------------
 Center     Atomic      Atomic             Coordinates (Angstroms)
 Number     Number       Type             X           Y           Z
 ---------------------------------------------------------------------
      1          5           0       -1.870607    0.000000    0.000000
      2          5           0        1.870607    0.000000    0.000000
      3          1           0       -2.339411   -1.082675    0.000208
      4          1           0        2.339411    1.082660   -0.005603
      5          1           0       -2.339412    1.082674    0.000693
      6          1           0        2.339412   -1.082655    0.006489
 ---------------------------------------------------------------------

 Alpha  occ. eigenvalues --   -7.11286  -7.11285  -0.57789  -0.57364  -0.44905
 Alpha  occ. eigenvalues --   -0.44764  -0.20830
 Alpha virt. eigenvalues --   -0.06025  -0.05191  -0.03706   0.02296   0.03335
 Alpha virt. eigenvalues --    0.03851   0.05508   0.06259   0.07314   0.08165
 Alpha virt. eigenvalues --    0.10111   0.15514   0.16257   0.17152   0.24632

  Beta  occ. eigenvalues --   -7.11286  -7.11285  -0.57789  -0.57364  -0.44905
  Beta  occ. eigenvalues --   -0.44764  -0.20830
  Beta virt. eigenvalues --   -0.06025  -0.05191  -0.03706   0.02296   0.03335
  Beta virt. eigenvalues --    0.03851   0.05508   0.06259   0.07314   0.08165
  Beta virt. eigenvalues --    0.10111   0.15514   0.16257   0.17152   0.24632

 Mulliken charges and spin densities:
               1          2
     1  B   -0.055985  -0.000002
     2  B   -0.055985   0.000002
     3  H    0.027992  -0.000000
     4  H    0.027992   0.000000
     5  H    0.027992  -0.000000
     6  H    0.027992   0.000000
 Sum of Mulliken charges =  -0.00000   0.00000

 Dipole moment (field-independent basis, Debye):
    X=              0.0000    Y=              0.0000    Z=              0.0007  Tot=              0.0007
 Quadrupole moment (field-independent basis, Debye-Ang):
   XX=            -11.8923   YY=            -16.9351   ZZ=            -14.4559
   XY=             -0.0000   XZ=              0.0000   YZ=              0.0066

 Normal termination of Gaussian 16 at Mon Apr 21 17:12:38 2025.
