 Gaussian 16, Revision A.03,
 Gaussian 16:  ES64L-G16RevA.03 25-Dec-2016

 --------------------------------
 #p UM062X/6-311+G** Pop=NBO Read
 --------------------------------

 ------------
 NBO Analysis
 ------------
 Symbolic Z-matrix:
 Charge =  0 Multiplicity = 1

                         Standard orientation:
 ---------------------------------------------------------------------
 Center     Atomic      Atomic             Coordinates (Angstroms)
 Number     Number       Type             X           Y           Z
 ---------------------------------------------------------------------
      1          5           0       -0.797146    0.196640    0.433655
      2          7           0        0.623557   -0.153817   -0.339221
      3          1           0        0.505229   -0.124629   -1.348440
      4          1           0       -1.568507   -0.653619    0.062021
      5          1           0        1.347819    0.514292   -0.089320
      6          1           0        0.954008   -1.082107   -0.089313
      7          1           0       -0.533113    0.131489    1.609281
      8          1           0       -1.084604    1.308090    0.062045
 ---------------------------------------------------------------------

 SCF Done:  E(UM062X) =  -83.1691657144     A.U. after   10 cycles

 The electronic state is 1-A.
 Alpha  occ. eigenvalues --  -14.83910  -6.97137  -1.05648  -0.62263  -0.62263
 Alpha  occ. eigenvalues --   -0.59152  -0.41892  -0.33260  -0.33260
 Alpha virt. eigenvalues --   -0.01275   0.05093   0.05093   0.06142   0.09334
 Alpha virt. eigenvalues --    0.11509   0.11509   0.14874   0.20066   0.20066
 Alpha virt. eigenvalues --    0.24066   0.25735   0.25735   0.33846   0.41013

  Beta  occ. eigenvalues --  -14.83910  -6.97137  -1.05648  -0.62263  -0.62263
  Beta  occ. eigenvalues --   -0.59152  -0.41892  -0.33260  -0.33260
  Beta virt. eigenvalues --   -0.01275   0.05093   0.05093   0.06142   0.09334
  Beta virt. eigenvalues --    0.11509   0.11509   0.14874   0.20066   0.20066
  Beta virt. eigenvalues --    0.24066   0.25735   0.25735   0.33846   0.41013

 Mulliken charges and spin densities:
               1          2
     1  B   -0.091996   0.000000
     2  N   -0.564146   0.000000
     3  H    0.289554   0.000000
     4  H   -0.070842  -0.000000
     5  H    0.289554  -0.000000
     6  H    0.289553   0.000000
     7  H   -0.070838  -0.000000
     8  H   -0.070839  -0.000000
 Sum of Mulliken charges =  -0.00000   0.00000

 Dipole moment (field-independent basis, Debye):
    X=              4.6790    Y=             -1.1542    Z=             -2.5454  Tot=              5.4501
 Quadrupole moment (field-independent basis, Debye-Ang):
   XX=            -16.4718   YY=            -16.2186   ZZ=            -16.2820
   XY=              0.0665   XZ=              0.1466   YZ=             -0.0362

 Summary of Natural Population Analysis:

                                       Natural Population
                Natural  -----------------------------------------------
    Atom  No    Charge         Core      Valence    Rydberg      Total
 -----------------------------------------------------------------------
      B    1   -0.10358      0.99980     1.59978    0.00400     2.60358
      N    2   -0.49980      0.99988     2.99394    0.00598     3.99980
      H    3    0.22607      0.00000     0.27297    0.00096     0.27393
      H    4   -0.02495      0.00000     0.52466    0.00028     0.52495
      H    5    0.22607      0.00000     0.27297    0.00096     0.27393
      H    6    0.22607      0.00000     0.27297    0.00096     0.27393
      H    7   -0.02494      0.00000     0.52466    0.00028     0.52494
      H    8   -0.02494      0.00000     0.52466    0.00028     0.52494
 =======================================================================
   * Total *   -0.00000      1.99968     6.98660    0.01372     9.00000

 Normal termination of Gaussian 16 at Wed Apr 16 01:09:59 2025.
