 Gaussian 16, Revision A.03,
 Gaussian 16:  ES64L-G16RevA.03 25-Dec-2016

 --------------------------------------------
 #p opt UM062X/6-311+G** nosymm int=superfine
 --------------------------------------------

 -------------------
 Title Card Required
 -------------------
 Symbolic Z-matrix:
 Charge = -1 Multiplicity = 2

 SCF Done:  E(UM062X) =  -52.0063484444     A.U. after   11 cycles
 SCF Done:  E(UM062X) =  -52.0070891223     A.U. after    9 cycles
 SCF Done:  E(UM062X) =  -52.0073099677     A.U. after    9 cycles
 SCF Done:  E(UM062X) =  -52.0073073645     A.U. after   10 cycles
 SCF Done:  E(UM062X) =  -52.0073006592     A.U. after   10 cycles
 SCF Done:  E(UM062X) =  -52.0073107934     A.U. after   10 cycles
 SCF Done:  E(UM062X) =  -52.0073110593     A.U. after    8 cycles
 SCF Done:  E(UM062X) =  -52.0073112624     A.U. after    7 cycles
 Optimization completed.
    -- Stationary point found.

                          Input orientation:
 ---------------------------------------------------------------------
 Center     Atomic      Atomic             Coordinates (Angstroms)
 Number     Number       Type             X           Y           Z
 ---------------------------------------------------------------------
      1          5           0       -1.022274    0.000000    0.000000
      2          5           0        1.022274    0.000000    0.000000
      3          1           0       -1.644369   -1.033868    0.000235
      4          1           0        1.644369    1.033868   -0.000257
      5          1           0       -1.644370    1.033868   -0.000246
      6          1           0        1.644370   -1.033868    0.000241
 ---------------------------------------------------------------------

 Alpha  occ. eigenvalues --   -6.82683  -6.82664  -0.37004  -0.32160  -0.20386
 Alpha  occ. eigenvalues --   -0.17246  -0.09043   0.00218
 Alpha virt. eigenvalues --    0.15748   0.16993   0.17646   0.19243   0.19440
 Alpha virt. eigenvalues --    0.22508   0.22711   0.25739   0.26732   0.33902
 Alpha virt. eigenvalues --    0.35517   0.35733   0.38948   0.43904   0.51869

  Beta  occ. eigenvalues --   -6.82659  -6.82645  -0.35068  -0.30998  -0.20058
  Beta  occ. eigenvalues --   -0.17180  -0.08191
  Beta virt. eigenvalues --    0.11648   0.14524   0.15252   0.16864   0.17239
  Beta virt. eigenvalues --    0.18585   0.18885   0.22114   0.23641   0.28736
  Beta virt. eigenvalues --    0.33046   0.35733   0.36091   0.38557   0.43935

 Mulliken charges and spin densities:
               1          2
     1  B   -0.369593   0.544998
     2  B   -0.369592   0.544997
     3  H   -0.065204  -0.022499
     4  H   -0.065204  -0.022499
     5  H   -0.065204  -0.022499
     6  H   -0.065204  -0.022499
 Sum of Mulliken charges =  -1.00000   1.00000

 Dipole moment (field-independent basis, Debye):
    X=              0.0000    Y=             -0.0000    Z=             -0.0000  Tot=              0.0000
 Quadrupole moment (field-independent basis, Debye-Ang):
   XX=            -29.5506   YY=            -23.2349   ZZ=            -23.1561
   XY=             -0.0000   XZ=              0.0000   YZ=              0.0000

 Normal termination of Gaussian 16 at Mon Apr 21 17:21:03 2025.
