 Gaussian 16, Revision A.03,
 Gaussian 16:  ES64L-G16RevA.03 25-Dec-2016

 --------------------------------------------
 #p opt UM062X/6-311+G** nosymm int=superfine
 --------------------------------------------

 -------------------
 Title Card Required
 -------------------
 Symbolic Z-matrix:
 Charge =  0 Multiplicity = 1

 SCF Done:  E(UM062X) =  -82.0084585902     A.U. after   10 cycles
 SCF Done:  E(UM062X) =  -82.0086865302     A.U. after    8 cycles
 SCF Done:  E(UM062X) =  -82.0085909713     A.U. after    9 cycles
 SCF Done:  E(UM062X) =  -82.0084431572     A.U. after    9 cycles
 SCF Done:  E(UM062X) =  -82.0083192024     A.U. after    9 cycles
 SCF Done:  E(UM062X) =  -82.0087058399     A.U. after    6 cycles
 SCF Done:  E(UM062X) =  -82.0087354982     A.U. after    8 cycles
 SCF Done:  E(UM062X) =  -82.0087354288     A.U. after    7 cycles
 SCF Done:  E(UM062X) =  -82.0087356295     A.U. after    6 cycles
 Optimization completed.
    -- Stationary point found.

                          Input orientation:
 ---------------------------------------------------------------------
 Center     Atomic      Atomic             Coordinates (Angstroms)
 Number     Number       Type             X           Y           Z
 ---------------------------------------------------------------------
      1          5           0       -0.770399    0.000000    0.000000
      2          7           0        0.770399    0.000000    0.000000
      3          1           0       -1.314219   -1.053472    0.000079
      4          1           0        1.309408    0.849618   -0.000170
      5          1           0       -1.314219    1.053472   -0.000243
      6          1           0        1.309408   -0.849618    0.000002
 ---------------------------------------------------------------------

 Alpha  occ. eigenvalues --  -14.74412  -7.05440  -0.94896  -0.58833  -0.57236
 Alpha  occ. eigenvalues --   -0.45163  -0.40095  -0.34322
 Alpha virt. eigenvalues --    0.00981   0.01008   0.03664   0.03668   0.06951
 Alpha virt. eigenvalues --    0.10706   0.12206   0.16450   0.17136   0.18790
 Alpha virt. eigenvalues --    0.20301   0.22815   0.25948   0.28726   0.41448

  Beta  occ. eigenvalues --  -14.74412  -7.05440  -0.94896  -0.58833  -0.57236
  Beta  occ. eigenvalues --   -0.45163  -0.40095  -0.34322
  Beta virt. eigenvalues --    0.00981   0.01008   0.03664   0.03668   0.06951
  Beta virt. eigenvalues --    0.10706   0.12206   0.16450   0.17136   0.18790
  Beta virt. eigenvalues --    0.20301   0.22815   0.25948   0.28726   0.41448

 Mulliken charges and spin densities:
               1          2
     1  B    0.119493   0.000000
     2  N   -0.623024  -0.000000
     3  H   -0.011970  -0.000000
     4  H    0.263736   0.000000
     5  H   -0.011970  -0.000000
     6  H    0.263736   0.000000
 Sum of Mulliken charges =  -0.00000   0.00000

 Dipole moment (field-independent basis, Debye):
    X=              1.1687    Y=             -0.0000    Z=             -0.0002  Tot=              1.1687
 Quadrupole moment (field-independent basis, Debye-Ang):
   XX=            -12.7394   YY=            -13.0883   ZZ=            -15.4681
   XY=              0.0000   XZ=             -0.0005   YZ=             -0.0002

 Normal termination of Gaussian 16 at Mon Apr 21 17:40:19 2025.
