 Gaussian 16, Revision A.03,
 Gaussian 16:  ES64L-G16RevA.03 25-Dec-2016

 --------------------------------------------
 #p opt UM062X/6-311+G** nosymm int=superfine
 --------------------------------------------

 -------------------
 Title Card Required
 -------------------
 Symbolic Z-matrix:
 Charge =  0 Multiplicity = 1

 SCF Done:  E(UM062X) =  -111.839025941     A.U. after   12 cycles
 SCF Done:  E(UM062X) =  -111.841839070     A.U. after   12 cycles
 SCF Done:  E(UM062X) =  -111.842043727     A.U. after   10 cycles
 SCF Done:  E(UM062X) =  -111.842051438     A.U. after    9 cycles
 Optimization completed.
    -- Stationary point found.

                          Input orientation:
 ---------------------------------------------------------------------
 Center     Atomic      Atomic             Coordinates (Angstroms)
 Number     Number       Type             X           Y           Z
 ---------------------------------------------------------------------
      1          7           0       -0.786540    0.000000    0.000000
      2          7           0        0.786540    0.000000    0.000000
      3          1           0       -1.014821   -0.988131   -0.003463
      4          1           0        1.014824    0.842429   -0.516465
      5          1           0       -1.096373    0.375577    0.891794
      6          1           0        1.096382    0.142556    0.957096
 ---------------------------------------------------------------------

 Alpha  occ. eigenvalues --  -14.76421 -14.76404  -1.02839  -0.86489  -0.56898
 Alpha  occ. eigenvalues --   -0.55263  -0.49195  -0.35476  -0.32761
 Alpha virt. eigenvalues --    0.04055   0.05008   0.09331   0.10846   0.13868
 Alpha virt. eigenvalues --    0.13926   0.15240   0.16667   0.19580   0.20654
 Alpha virt. eigenvalues --    0.23938   0.25746   0.26656   0.52100   0.56763

  Beta  occ. eigenvalues --  -14.76421 -14.76404  -1.02839  -0.86489  -0.56898
  Beta  occ. eigenvalues --   -0.55263  -0.49195  -0.35476  -0.32761
  Beta virt. eigenvalues --    0.04055   0.05008   0.09331   0.10846   0.13868
  Beta virt. eigenvalues --    0.13926   0.15240   0.16667   0.19580   0.20654
  Beta virt. eigenvalues --    0.23938   0.25746   0.26656   0.52100   0.56763

 Mulliken charges and spin densities:
               1          2
     1  N   -0.520380  -0.000000
     2  N   -0.520380   0.000000
     3  H    0.277279   0.000000
     4  H    0.277279  -0.000000
     5  H    0.243101   0.000000
     6  H    0.243101   0.000000
 Sum of Mulliken charges =  -0.00000   0.00000

 Dipole moment (field-independent basis, Debye):
    X=              0.0000    Y=              0.5820    Z=              2.0767  Tot=              2.1567
 Quadrupole moment (field-independent basis, Debye-Ang):
   XX=            -13.8284   YY=            -12.9028   ZZ=            -12.6249
   XY=              3.1450   XZ=             -0.8814   YZ=              0.0845

 Normal termination of Gaussian 16 at Thu May 15 14:22:01 2025.
