 Gaussian 16, Revision A.03,
 Gaussian 16:  ES64L-G16RevA.03 25-Dec-2016

 ---------------------------------------
 #p UM062X/6-311+G** force int=superfine
 ---------------------------------------

 -------------------
 Title Card Required
 -------------------
 Symbolic Z-matrix:
 Charge =  1 Multiplicity = 2

                         Standard orientation:
 ---------------------------------------------------------------------
 Center     Atomic      Atomic             Coordinates (Angstroms)
 Number     Number       Type             X           Y           Z
 ---------------------------------------------------------------------
      1          6           0        0.000000    0.000000    0.596489
      2          6           0        0.000000    0.000000   -0.596489
      3          1           0        0.000000    0.000000    1.676062
      4          1           0        0.000000    0.000000   -1.676062
 ---------------------------------------------------------------------

 SCF Done:  E(UM062X) =  -76.8964594960     A.U. after    9 cycles

 Unable to determine electronic state:  an orbital has unidentified symmetry.
 Alpha  occ. eigenvalues --  -10.93324 -10.93016  -1.24746  -0.96782  -0.89981
 Alpha  occ. eigenvalues --   -0.74455  -0.71622
 Alpha virt. eigenvalues --   -0.25973  -0.23985  -0.14997  -0.14547  -0.11656
 Alpha virt. eigenvalues --   -0.10529  -0.10262  -0.05377  -0.04612  -0.04139
 Alpha virt. eigenvalues --    0.02314   0.04558   0.16895   0.18275   0.28639

  Beta  occ. eigenvalues --  -10.93065 -10.92784  -1.19790  -0.95211  -0.89400
  Beta  occ. eigenvalues --   -0.69077
  Beta virt. eigenvalues --   -0.47193  -0.22441  -0.19957  -0.15643  -0.14266
  Beta virt. eigenvalues --   -0.11730  -0.10775  -0.10444  -0.04823  -0.03919
  Beta virt. eigenvalues --   -0.03221   0.02178   0.04835   0.17400   0.19075

 Mulliken charges and spin densities:
               1          2
     1  C    0.199355   0.519358
     2  C    0.199355   0.519358
     3  H    0.300645  -0.019358
     4  H    0.300645  -0.019358
 Sum of Mulliken charges =   1.00000   1.00000

 Dipole moment (field-independent basis, Debye):
    X=              0.0000    Y=             -0.0000    Z=             -0.0000  Tot=              0.0000
 Quadrupole moment (field-independent basis, Debye-Ang):
   XX=             -9.4711   YY=            -11.2311   ZZ=             -0.8575
   XY=              0.0000   XZ=             -0.0000   YZ=              0.0000

 Normal termination of Gaussian 16 at Tue Nov 19 13:29:56 2024.
