 Gaussian 16, Revision A.03,
 Gaussian 16:  ES64L-G16RevA.03 25-Dec-2016

 --------------------------------------------
 #p opt UM062X/6-311+G** nosymm int=superfine
 --------------------------------------------

 -------------------
 Title Card Required
 -------------------
 Symbolic Z-matrix:
 Charge =  0 Multiplicity = 1

 SCF Done:  E(UM062X) =  -74.3416899861     A.U. after   13 cycles
 SCF Done:  E(UM062X) =  -74.3750621552     A.U. after   10 cycles
 SCF Done:  E(UM062X) =  -74.4307895957     A.U. after   11 cycles
 SCF Done:  E(UM062X) =  -74.5214606614     A.U. after   11 cycles
 SCF Done:  E(UM062X) =  -74.6168648059     A.U. after   11 cycles
 SCF Done:  E(UM062X) =  -74.6574775642     A.U. after   13 cycles
 SCF Done:  E(UM062X) =  -74.7451163760     A.U. after   11 cycles
 SCF Done:  E(UM062X) =  -74.7572978378     A.U. after   11 cycles
 SCF Done:  E(UM062X) =  -74.7857207603     A.U. after   14 cycles
 SCF Done:  E(UM062X) =  -75.0319593222     A.U. after   12 cycles
 SCF Done:  E(UM062X) =  -75.1334272285     A.U. after   13 cycles
 SCF Done:  E(UM062X) =  -75.1349924829     A.U. after   14 cycles
 SCF Done:  E(UM062X) =  -75.1367606890     A.U. after   12 cycles
 SCF Done:  E(UM062X) =  -75.1383449077     A.U. after   12 cycles
 SCF Done:  E(UM062X) =  -75.1386051431     A.U. after   12 cycles
 SCF Done:  E(UM062X) =  -75.1387022135     A.U. after   12 cycles
 SCF Done:  E(UM062X) =  -75.1387678929     A.U. after   10 cycles
 SCF Done:  E(UM062X) =  -75.1387902777     A.U. after   11 cycles
 SCF Done:  E(UM062X) =  -75.1387929310     A.U. after    9 cycles
 SCF Done:  E(UM062X) =  -75.1387929929     A.U. after   10 cycles
 Optimization completed.
    -- Stationary point found.

                          Input orientation:
 ---------------------------------------------------------------------
 Center     Atomic      Atomic             Coordinates (Angstroms)
 Number     Number       Type             X           Y           Z
 ---------------------------------------------------------------------
      1          6           0       -0.291560   -0.000000    0.000000
      2          6           0        0.291560   -0.000000   -0.000000
      3          1           0       -1.219189   -1.417049    0.000506
      4          1           0       -1.362953    0.158112   -0.000123
      5          1           0        1.219189    1.417049   -0.000406
      6          1           0        1.362953   -0.158112   -0.000033
 ---------------------------------------------------------------------

 Alpha  occ. eigenvalues --  -11.10243 -10.59148  -0.84923  -0.71190  -0.69951
 Alpha  occ. eigenvalues --   -0.59851  -0.43372  -0.23221
 Alpha virt. eigenvalues --   -0.11438   0.02702   0.03117   0.04282   0.07715
 Alpha virt. eigenvalues --    0.08966   0.09515   0.10906   0.16340   0.22440
 Alpha virt. eigenvalues --    0.22746   0.26239   0.28655   0.39398   0.42139

  Beta  occ. eigenvalues --  -11.10243 -10.59148  -0.84923  -0.71190  -0.69951
  Beta  occ. eigenvalues --   -0.59851  -0.43372  -0.23221
  Beta virt. eigenvalues --   -0.11438   0.02702   0.03117   0.04282   0.07715
  Beta virt. eigenvalues --    0.08966   0.09515   0.10906   0.16340   0.22440
  Beta virt. eigenvalues --    0.22746   0.26239   0.28655   0.39398   0.42139

 Mulliken charges and spin densities:
               1          2
     1  C   -0.171539  -0.000000
     2  C   -0.171539   0.000000
     3  H   -0.024824   0.000000
     4  H    0.196363   0.000000
     5  H   -0.024824  -0.000000
     6  H    0.196363  -0.000000
 Sum of Mulliken charges =   0.00000  -0.00000

 Dipole moment (field-independent basis, Debye):
    X=             -0.0000    Y=             -0.0000    Z=             -0.0001  Tot=              0.0001
 Quadrupole moment (field-independent basis, Debye-Ang):
   XX=            -13.6976   YY=            -16.2634   ZZ=            -13.3629
   XY=             -2.7161   XZ=              0.0009   YZ=              0.0009

 Normal termination of Gaussian 16 at Tue Nov 19 09:57:52 2024.
