 Gaussian 16, Revision A.03,
 Gaussian 16:  ES64L-G16RevA.03 25-Dec-2016

 ---------------------------------------------------
 #p UM062X/6-311+G** force int=superfine pop=saveNBO
 ---------------------------------------------------

 -------------------
 Title Card Required
 -------------------
 Symbolic Z-matrix:
 Charge =  0 Multiplicity = 1

                         Standard orientation:
 ---------------------------------------------------------------------
 Center     Atomic      Atomic             Coordinates (Angstroms)
 Number     Number       Type             X           Y           Z
 ---------------------------------------------------------------------
      1          8           0        0.000000    0.000000    0.593562
      2          8           0        0.000000    0.000000   -0.593562
 ---------------------------------------------------------------------

 SCF Done:  E(UM062X) =  -150.249004493     A.U. after    9 cycles

 Unable to determine electronic state:  an orbital has unidentified symmetry.
 Alpha  occ. eigenvalues --  -19.79093 -19.79031  -1.44687  -0.91688  -0.63293
 Alpha  occ. eigenvalues --   -0.63116  -0.60928  -0.34376
 Alpha virt. eigenvalues --   -0.11904   0.10870   0.10986   0.14065   0.14950
 Alpha virt. eigenvalues --    0.20623   0.22000   0.22331   0.35341   0.35904
 Alpha virt. eigenvalues --    0.98376   0.98423   0.99751   1.02064   1.06661

  Beta  occ. eigenvalues --  -19.79093 -19.79031  -1.44687  -0.91688  -0.63293
  Beta  occ. eigenvalues --   -0.63116  -0.60928  -0.34376
  Beta virt. eigenvalues --   -0.11904   0.10870   0.10986   0.14065   0.14950
  Beta virt. eigenvalues --    0.20623   0.22000   0.22331   0.35341   0.35904
  Beta virt. eigenvalues --    0.98376   0.98423   0.99751   1.02064   1.06661

 Mulliken charges and spin densities:
               1          2
     1  O   -0.000000   0.000000
     2  O   -0.000000   0.000000
 Sum of Mulliken charges =  -0.00000   0.00000

 Dipole moment (field-independent basis, Debye):
    X=             -0.0000    Y=              0.0000    Z=              0.0000  Tot=              0.0000
 Quadrupole moment (field-independent basis, Debye-Ang):
   XX=            -11.0558   YY=             -9.1821   ZZ=            -10.9036
   XY=              0.0000   XZ=              0.0000   YZ=             -0.0000

 Summary of Natural Population Analysis:

                                       Natural Population
                Natural  -----------------------------------------------
    Atom  No    Charge         Core      Valence    Rydberg      Total
 -----------------------------------------------------------------------
      O    1    0.00000      0.99995     2.98141    0.01863     4.00000
      O    2    0.00000      0.99995     2.98141    0.01863     4.00000
 =======================================================================
   * Total *    0.00000      1.99991     5.96283    0.03727     8.00000

 Optimization completed.
    -- Stationary point found.
 Normal termination of Gaussian 16 at Wed Apr 16 04:51:53 2025.
