 Gaussian 16, Revision A.03,
 Gaussian 16:  ES64L-G16RevA.03 25-Dec-2016

 --------------------------------------------
 #p opt UM062X/6-311+G** nosymm int=superfine
 --------------------------------------------

 -------------------
 Title Card Required
 -------------------
 Symbolic Z-matrix:
 Charge =  0 Multiplicity = 2

 SCF Done:  E(UM062X) =  -398.729979255     A.U. after   11 cycles
 SCF Done:  E(UM062X) =  -398.729984750     A.U. after    8 cycles
 Optimization completed.
    -- Stationary point found.

                          Input orientation:
 ---------------------------------------------------------------------
 Center     Atomic      Atomic             Coordinates (Angstroms)
 Number     Number       Type             X           Y           Z
 ---------------------------------------------------------------------
      1         16           0        0.910017    0.001748    0.000000
      2          1           0        1.064969   -1.333978    0.000000
 ---------------------------------------------------------------------

 Alpha  occ. eigenvalues --  -89.92824  -8.28933  -6.22142  -6.20872  -6.20317
 Alpha  occ. eigenvalues --   -0.82550  -0.47402  -0.37635  -0.33547
 Alpha virt. eigenvalues --    0.03071   0.05389   0.05703   0.06083   0.08415
 Alpha virt. eigenvalues --    0.32504   0.35094   0.35804   0.39773   0.58504
 Alpha virt. eigenvalues --    0.70781   0.73795   0.79095   0.79228   0.98671

  Beta  occ. eigenvalues --  -89.91899  -8.28690  -6.20577  -6.20006  -6.19710
  Beta  occ. eigenvalues --   -0.77583  -0.45733  -0.31432
  Beta virt. eigenvalues --   -0.13305   0.02020   0.05096   0.06137   0.06231
  Beta virt. eigenvalues --    0.08631   0.31769   0.32846   0.35409   0.40472
  Beta virt. eigenvalues --    0.60296   0.75826   0.75957   0.84426   0.86774

 Mulliken charges and spin densities:
               1          2
     1  S   -0.070640   1.028456
     2  H    0.070640  -0.028456
 Sum of Mulliken charges =  -0.00000   1.00000

 Dipole moment (field-independent basis, Debye):
    X=              0.1252    Y=             -1.0790    Z=              0.0000  Tot=              1.0863
 Quadrupole moment (field-independent basis, Debye-Ang):
   XX=            -15.7539   YY=            -12.0612   ZZ=            -12.9814
   XY=             -1.4432   XZ=              0.0000   YZ=              0.0000

 1\1\GINC-NODE02\FOpt\UM062X\6-311+G(d,p)\H1S1(2)\SZHAO\16-Apr-2025\0\\
 #p opt UM062X/6-311+G** nosymm int=superfine\\Title Card Required\\0,2
 \S,0.9100167052,0.0017482232,0.\H,1.0649692648,-1.3339778532,0.\\Versi
 on=ES64L-G16RevA.03\HF=-398.7299847\S2=0.752993\S2-1=0.\S2A=0.750005\R
 MSD=3.915e-09\RMSF=6.224e-05\Dipole=0.04926,-0.4245225,0.\Quadrupole=-
 1.6022672,1.1432105,0.4590567,-1.0729765,0.,0.\PG=C*V [C*(H1S1)]\\@

 Normal termination of Gaussian 16 at Wed Apr 16 08:42:37 2025.
