 Gaussian 16, Revision A.03,
 Gaussian 16:  ES64L-G16RevA.03 25-Dec-2016

 ---------------------------------------
 #p UM062X/6-311+G** force int=superfine
 ---------------------------------------

 -------------------
 Title Card Required
 -------------------
 Symbolic Z-matrix:
 Charge =  1 Multiplicity = 2

                         Standard orientation:
 ---------------------------------------------------------------------
 Center     Atomic      Atomic             Coordinates (Angstroms)
 Number     Number       Type             X           Y           Z
 ---------------------------------------------------------------------
      1          6           0       -0.000000    0.523100    0.000000
      2          6           0       -0.000000   -0.523100    0.000000
      3          1           0       -0.834209    1.289781    0.000000
      4          1           0        0.845530    1.280209    0.000000
      5          1           0        0.834209   -1.289781    0.000000
      6          1           0       -0.845530   -1.280209    0.000000
 ---------------------------------------------------------------------

 SCF Done:  E(UM062X) =  -77.9981455509     A.U. after   10 cycles

 The electronic state is 2-AG.
 Alpha  occ. eigenvalues --  -10.81930 -10.81031  -1.23351  -0.97208  -0.86908
 Alpha  occ. eigenvalues --   -0.86233  -0.69902  -0.66547
 Alpha virt. eigenvalues --   -0.17524  -0.16450  -0.15144  -0.13776  -0.10436
 Alpha virt. eigenvalues --   -0.08766  -0.07428  -0.06782  -0.02799  -0.02774
 Alpha virt. eigenvalues --   -0.00175   0.02440   0.12878   0.17142   0.19930

  Beta  occ. eigenvalues --  -10.81936 -10.81020  -1.22230  -0.92423  -0.83892
  Beta  occ. eigenvalues --   -0.80952  -0.69572
  Beta virt. eigenvalues --   -0.45763  -0.17244  -0.15380  -0.15040  -0.13544
  Beta virt. eigenvalues --   -0.10263  -0.08659  -0.05211  -0.05012  -0.02547
  Beta virt. eigenvalues --   -0.02044   0.00228   0.03196   0.13091   0.17055

 Mulliken charges and spin densities:
               1          2
     1  C   -0.156045   0.114388
     2  C   -0.156045   0.114388
     3  H    0.327895   0.190503
     4  H    0.328150   0.195109
     5  H    0.327895   0.190503
     6  H    0.328150   0.195109
 Sum of Mulliken charges =   1.00000   1.00000

 Dipole moment (field-independent basis, Debye):
    X=             -0.0000    Y=             -0.0000    Z=              0.0000  Tot=              0.0000
 Quadrupole moment (field-independent basis, Debye-Ang):
   XX=             -7.4416   YY=             -2.3883   ZZ=            -12.6559
   XY=              0.0279   XZ=              0.0000   YZ=              0.0000

 Normal termination of Gaussian 16 at Tue Nov 19 11:52:38 2024.
