 Gaussian 16, Revision A.03,
 Gaussian 16:  ES64L-G16RevA.03 25-Dec-2016

 ---------------------------------------------------
 #p UM062X/6-311+G** force int=superfine pop=saveNBO
 ---------------------------------------------------

 -------------------
 Title Card Required
 -------------------
 Symbolic Z-matrix:
 Charge =  0 Multiplicity = 1

                         Standard orientation:
 ---------------------------------------------------------------------
 Center     Atomic      Atomic             Coordinates (Angstroms)
 Number     Number       Type             X           Y           Z
 ---------------------------------------------------------------------
      1         15           0        0.000000    0.000000    1.663495
      2         15           0        0.000000    0.000000   -1.663495
 ---------------------------------------------------------------------

 SCF Done:  E(UM062X) =  -682.365859891     A.U. after    9 cycles

 The electronic state is 1-SGG.
 Alpha  occ. eigenvalues --  -78.12153 -78.12152  -6.93701  -6.93701  -5.05002
 Alpha  occ. eigenvalues --   -5.05002  -5.05002  -5.05002  -5.04980  -5.04980
 Alpha  occ. eigenvalues --   -0.65286  -0.62302  -0.29380  -0.26292  -0.26292
 Alpha virt. eigenvalues --   -0.16239  -0.16239  -0.12314   0.02406   0.03274
 Alpha virt. eigenvalues --    0.04571   0.04571   0.06228   0.06461   0.06461
 Alpha virt. eigenvalues --    0.11149   0.28986   0.29682   0.29682   0.33228

  Beta  occ. eigenvalues --  -78.12153 -78.12152  -6.93701  -6.93701  -5.05002
  Beta  occ. eigenvalues --   -5.05002  -5.05002  -5.05002  -5.04980  -5.04980
  Beta  occ. eigenvalues --   -0.65286  -0.62302  -0.29380  -0.26292  -0.26292
  Beta virt. eigenvalues --   -0.16239  -0.16239  -0.12314   0.02406   0.03274
  Beta virt. eigenvalues --    0.04571   0.04571   0.06228   0.06461   0.06461
  Beta virt. eigenvalues --    0.11149   0.28986   0.29682   0.29682   0.33228

 Mulliken charges and spin densities:
               1          2
     1  P   -0.000000  -0.000000
     2  P   -0.000000  -0.000000
 Sum of Mulliken charges =  -0.00000  -0.00000

 Dipole moment (field-independent basis, Debye):
    X=             -0.0000    Y=             -0.0000    Z=             -0.0000  Tot=              0.0000
 Quadrupole moment (field-independent basis, Debye-Ang):
   XX=            -29.3727   YY=            -29.3727   ZZ=            -24.4623
   XY=              0.0000   XZ=             -0.0000   YZ=              0.0000

 Summary of Natural Population Analysis:

                                       Natural Population
                Natural  -----------------------------------------------
    Atom  No    Charge         Core      Valence    Rydberg      Total
 -----------------------------------------------------------------------
      P    1   -0.00000      4.99999     2.49931    0.00070     7.50000
      P    2   -0.00000      4.99999     2.49931    0.00070     7.50000
 =======================================================================
   * Total *   -0.00000      9.99998     4.99862    0.00140    15.00000

 Normal termination of Gaussian 16 at Mon Apr 21 21:21:12 2025.
