 Gaussian 16, Revision A.03,
 Gaussian 16:  ES64L-G16RevA.03 25-Dec-2016

 --------------------------------------------
 #p opt UM062X/6-311+G** nosymm int=superfine
 --------------------------------------------

 -------------------
 Title Card Required
 -------------------
 Symbolic Z-matrix:
 Charge =  0 Multiplicity = 1

 SCF Done:  E(UM062X) =  -79.7598792866     A.U. after    8 cycles
 SCF Done:  E(UM062X) =  -79.7691195265     A.U. after    8 cycles
 SCF Done:  E(UM062X) =  -79.7692242660     A.U. after    7 cycles
 Optimization completed.
    -- Stationary point found.

                          Input orientation:
 ---------------------------------------------------------------------
 Center     Atomic      Atomic             Coordinates (Angstroms)
 Number     Number       Type             X           Y           Z
 ---------------------------------------------------------------------
      1          6           0       -0.664286    0.000000    0.000000
      2          6           0        0.664354    0.000000    0.000000
      3          1           0        1.105625   -0.869295    0.503040
      4          1           0       -1.105538   -0.870301   -0.501331
      5          1           0        1.105607    0.870302    0.501327
      6          1           0        1.105647   -0.000956   -1.004355
      7          1           0       -1.105557    0.869293   -0.503044
      8          1           0       -1.105581    0.000953    1.004353
 ---------------------------------------------------------------------

 Alpha  occ. eigenvalues --  -10.50881 -10.50775  -0.89359  -0.68870  -0.52109
 Alpha  occ. eigenvalues --   -0.52109  -0.47250  -0.37846  -0.37846
 Alpha virt. eigenvalues --    0.02133   0.04195   0.05205   0.05205   0.08752
 Alpha virt. eigenvalues --    0.08884   0.08884   0.14145   0.19248   0.19249
 Alpha virt. eigenvalues --    0.20196   0.20197   0.24085   0.27928   0.35169

  Beta  occ. eigenvalues --  -10.50881 -10.50775  -0.89359  -0.68870  -0.52109
  Beta  occ. eigenvalues --   -0.52109  -0.47250  -0.37846  -0.37846
  Beta virt. eigenvalues --    0.02133   0.04195   0.05205   0.05205   0.08752
  Beta virt. eigenvalues --    0.08884   0.08884   0.14145   0.19248   0.19249
  Beta virt. eigenvalues --    0.20196   0.20197   0.24085   0.27928   0.35169

 Mulliken charges and spin densities:
               1          2
     1  C   -0.449240   0.000000
     2  C   -0.449240  -0.000000
     3  H    0.149747   0.000000
     4  H    0.149746   0.000000
     5  H    0.149746   0.000000
     6  H    0.149746   0.000000
     7  H    0.149747  -0.000000
     8  H    0.149746   0.000000
 Sum of Mulliken charges =  -0.00000   0.00000

 Dipole moment (field-independent basis, Debye):
    X=              0.0000    Y=             -0.0000    Z=             -0.0000  Tot=              0.0000
 Quadrupole moment (field-independent basis, Debye-Ang):
   XX=            -15.6316   YY=            -14.9630   ZZ=            -14.9629
   XY=             -0.0000   XZ=             -0.0000   YZ=             -0.0001

 Normal termination of Gaussian 16 at Tue Nov 19 11:48:48 2024.
