 Gaussian 16, Revision A.03,
 Gaussian 16:  ES64L-G16RevA.03 25-Dec-2016

 --------------------------------------------
 #p opt UM062X/6-311+G** nosymm int=superfine
 --------------------------------------------

 -------------------
 Title Card Required
 -------------------
 Symbolic Z-matrix:
 Charge =  0 Multiplicity = 1

 SCF Done:  E(UM062X) =  -94.4464784036     A.U. after   11 cycles
 SCF Done:  E(UM062X) =  -94.4540535694     A.U. after   11 cycles
 SCF Done:  E(UM062X) =  -94.4545275279     A.U. after   10 cycles
 SCF Done:  E(UM062X) =  -94.4522258937     A.U. after   12 cycles
 SCF Done:  E(UM062X) =  -94.4546251669     A.U. after   10 cycles
 SCF Done:  E(UM062X) =  -94.4543336224     A.U. after   12 cycles
 SCF Done:  E(UM062X) =  -94.4546295976     A.U. after    9 cycles
 Optimization completed.
    -- Stationary point found.

                          Input orientation:
 ---------------------------------------------------------------------
 Center     Atomic      Atomic             Coordinates (Angstroms)
 Number     Number       Type             X           Y           Z
 ---------------------------------------------------------------------
      1          6           0       -0.906637    0.000000    0.000000
      2          7           0        0.906637    0.000000    0.000000
      3          1           0       -1.430099   -0.946330   -0.006369
      4          1           0        1.012084   -1.024665   -0.006862
      5          1           0       -1.338713    0.988910    0.007135
 ---------------------------------------------------------------------

 Alpha  occ. eigenvalues --  -14.80810 -10.64994  -0.90398  -0.75861  -0.55123
 Alpha  occ. eigenvalues --   -0.45276  -0.37991  -0.31725
 Alpha virt. eigenvalues --   -0.08354   0.01758   0.02279   0.04867   0.07746
 Alpha virt. eigenvalues --    0.09815   0.13403   0.15478   0.15963   0.17478
 Alpha virt. eigenvalues --    0.20957   0.23294   0.26670   0.42264   0.44733

  Beta  occ. eigenvalues --  -14.80810 -10.64994  -0.90398  -0.75861  -0.55123
  Beta  occ. eigenvalues --   -0.45276  -0.37991  -0.31725
  Beta virt. eigenvalues --   -0.08354   0.01758   0.02279   0.04867   0.07746
  Beta virt. eigenvalues --    0.09815   0.13403   0.15478   0.15963   0.17478
  Beta virt. eigenvalues --    0.20957   0.23294   0.26670   0.42264   0.44733

 Mulliken charges and spin densities:
               1          2
     1  C   -0.307097  -0.000000
     2  N   -0.275053   0.000000
     3  H    0.188225   0.000000
     4  H    0.195434  -0.000000
     5  H    0.198491   0.000000
 Sum of Mulliken charges =  -0.00000   0.00000

 Dipole moment (field-independent basis, Debye):
    X=             -2.4470    Y=             -1.4681    Z=             -0.0094  Tot=              2.8537
 Quadrupole moment (field-independent basis, Debye-Ang):
   XX=            -12.4653   YY=            -11.3845   ZZ=            -15.3799
   XY=             -1.9168   XZ=             -0.0133   YZ=              0.0274

 Normal termination of Gaussian 16 at Mon Apr 21 18:20:48 2025.
