 Gaussian 16, Revision A.03,
 Gaussian 16:  ES64L-G16RevA.03 25-Dec-2016

 --------------------------------------------
 #p opt UM062X/6-311+G** nosymm int=superfine
 --------------------------------------------

 -------------------
 Title Card Required
 -------------------
 Symbolic Z-matrix:
 Charge =  1 Multiplicity = 2

 SCF Done:  E(UM062X) =  -80.1589313016     A.U. after   20 cycles
 SCF Done:  E(UM062X) =  -80.1597548704     A.U. after   10 cycles
 SCF Done:  E(UM062X) =  -80.1597574860     A.U. after    8 cycles
 Optimization completed.
    -- Stationary point found.

                          Input orientation:
 ---------------------------------------------------------------------
 Center     Atomic      Atomic             Coordinates (Angstroms)
 Number     Number       Type             X           Y           Z
 ---------------------------------------------------------------------
      1          5           0       -1.702734    0.000000    0.000000
      2          7           0        1.702734    0.000000    0.000000
      3          1           0       -2.907718   -0.000265    0.000000
      4          1           0        2.738289    0.000008   -0.000000
 ---------------------------------------------------------------------

 Alpha  occ. eigenvalues --  -14.96659  -7.53304  -1.09629  -0.85856  -0.63651
 Alpha  occ. eigenvalues --   -0.56129  -0.56129
 Alpha virt. eigenvalues --   -0.43291  -0.34343  -0.34343  -0.15085  -0.11320
 Alpha virt. eigenvalues --   -0.09886  -0.09886  -0.06727  -0.03150   0.00778
 Alpha virt. eigenvalues --    0.00778   0.03911   0.07903   0.13066   0.13066

  Beta  occ. eigenvalues --  -14.94204  -7.54546  -0.96824  -0.89448  -0.67916
  Beta  occ. eigenvalues --   -0.57934
  Beta virt. eigenvalues --   -0.35679  -0.35679  -0.20809  -0.20809  -0.14472
  Beta virt. eigenvalues --   -0.10664  -0.09563  -0.09563  -0.07149  -0.02335
  Beta virt. eigenvalues --    0.02695   0.02695   0.05927   0.08492   0.16330

 Mulliken charges and spin densities:
               1          2
     1  B    0.743734  -0.837078
     2  N   -0.246002   2.049445
     3  H    0.223002  -0.143191
     4  H    0.279266  -0.069176
 Sum of Mulliken charges =   1.00000   1.00000

 Dipole moment (field-independent basis, Debye):
    X=             -6.4735    Y=             -0.0002    Z=             -0.0000  Tot=              6.4735
 Quadrupole moment (field-independent basis, Debye-Ang):
   XX=             14.9151   YY=            -10.2806   ZZ=            -10.2806
   XY=              0.0004   XZ=             -0.0000   YZ=             -0.0000

 Normal termination of Gaussian 16 at Mon Apr 21 17:59:16 2025.
