 Gaussian 16, Revision A.03,
 Gaussian 16:  ES64L-G16RevA.03 25-Dec-2016

 ---------------------------------------
 #p UM062X/6-311+G** force int=superfine
 ---------------------------------------

 -------------------
 Title Card Required
 -------------------
 Symbolic Z-matrix:
 Charge =  1 Multiplicity = 2

                         Standard orientation:
 ---------------------------------------------------------------------
 Center     Atomic      Atomic             Coordinates (Angstroms)
 Number     Number       Type             X           Y           Z
 ---------------------------------------------------------------------
      1          7           0        0.000000    0.000000    1.930391
      2          7           0        0.000000    0.000000   -1.930391
 ---------------------------------------------------------------------

 SCF Done:  E(UM062X) =  -108.327030676     A.U. after   10 cycles

 Unable to determine electronic state:  partially filled degenerate orbitals.
 Alpha  occ. eigenvalues --  -15.30104 -15.30101  -1.18851  -1.18439  -0.64351
 Alpha  occ. eigenvalues --   -0.62408  -0.61722
 Alpha virt. eigenvalues --   -0.56963  -0.54324  -0.53827  -0.12930  -0.07981
 Alpha virt. eigenvalues --   -0.07471  -0.07300  -0.04463  -0.02940  -0.02754
 Alpha virt. eigenvalues --    0.03430   0.52001   0.53120   0.53208   0.54230

  Beta  occ. eigenvalues --  -15.29614 -15.29612  -1.15114  -1.14767  -0.60649
  Beta  occ. eigenvalues --   -0.59945
  Beta virt. eigenvalues --   -0.52535  -0.51974  -0.43063  -0.42857  -0.13671
  Beta virt. eigenvalues --   -0.08813  -0.07606  -0.07320  -0.04660  -0.03247
  Beta virt. eigenvalues --   -0.02963   0.02435   0.53001   0.53359   0.54412

 Mulliken charges and spin densities:
               1          2
     1  N    0.500000   0.500000
     2  N    0.500000   0.500000
 Sum of Mulliken charges =   1.00000   1.00000

 Dipole moment (field-independent basis, Debye):
    X=              0.0000    Y=             -0.0000    Z=              0.0000  Tot=              0.0000
 Quadrupole moment (field-independent basis, Debye-Ang):
   XX=             -9.9987   YY=             -8.5589   ZZ=              9.1868
   XY=             -0.0000   XZ=             -0.0000   YZ=             -0.0000

 Optimization completed.
    -- Stationary point found.
 Normal termination of Gaussian 16 at Wed Feb 26 14:02:01 2025.
