 Gaussian 16, Revision A.03,
 Gaussian 16:  ES64L-G16RevA.03 25-Dec-2016

 ---------------------------------------
 #p UM062X/6-311+G** force int=superfine
 ---------------------------------------

 -------------------
 Title Card Required
 -------------------
 Symbolic Z-matrix:
 Charge =  0 Multiplicity = 1

                         Standard orientation:
 ---------------------------------------------------------------------
 Center     Atomic      Atomic             Coordinates (Angstroms)
 Number     Number       Type             X           Y           Z
 ---------------------------------------------------------------------
      1          6           0       -0.794130    0.000000    0.000000
      2          6           0        0.794130    0.000000   -0.000000
      3          1           0        1.175682   -0.884260    0.511670
      4          1           0       -1.175678   -0.885258   -0.509942
      5          1           0        1.175678    0.885258    0.509942
      6          1           0        1.175648   -0.000995   -1.021639
      7          1           0       -1.175682    0.884260   -0.511670
      8          1           0       -1.175648    0.000995    1.021639
 ---------------------------------------------------------------------

 SCF Done:  E(UM062X) =  -79.7954055851     A.U. after    8 cycles

 The electronic state is 1-AG.
 Alpha  occ. eigenvalues --  -10.52536 -10.52506  -0.83764  -0.70370  -0.49846
 Alpha  occ. eigenvalues --   -0.49846  -0.41362  -0.40923  -0.40923
 Alpha virt. eigenvalues --    0.02197   0.04034   0.05530   0.05530   0.08741
 Alpha virt. eigenvalues --    0.08741   0.08984   0.13848   0.18637   0.18637
 Alpha virt. eigenvalues --    0.21273   0.21273   0.24156   0.25732   0.28176

  Beta  occ. eigenvalues --  -10.52536 -10.52506  -0.83764  -0.70370  -0.49846
  Beta  occ. eigenvalues --   -0.49846  -0.41362  -0.40923  -0.40923
  Beta virt. eigenvalues --    0.02197   0.04034   0.05530   0.05530   0.08741
  Beta virt. eigenvalues --    0.08741   0.08984   0.13848   0.18637   0.18637
  Beta virt. eigenvalues --    0.21273   0.21273   0.24156   0.25732   0.28176

 Mulliken charges and spin densities:
               1          2
     1  C   -0.474933   0.000000
     2  C   -0.474933   0.000000
     3  H    0.158311  -0.000000
     4  H    0.158311  -0.000000
     5  H    0.158311  -0.000000
     6  H    0.158311  -0.000000
     7  H    0.158311  -0.000000
     8  H    0.158311  -0.000000
 Sum of Mulliken charges =   0.00000  -0.00000

 Dipole moment (field-independent basis, Debye):
    X=             -0.0000    Y=              0.0000    Z=              0.0000  Tot=              0.0000
 Quadrupole moment (field-independent basis, Debye-Ang):
   XX=            -15.6283   YY=            -14.9626   ZZ=            -14.9626
   XY=             -0.0000   XZ=              0.0001   YZ=             -0.0000

 Normal termination of Gaussian 16 at Tue Nov 19 12:44:32 2024.
