 Gaussian 16, Revision A.03,
 Gaussian 16:  ES64L-G16RevA.03 25-Dec-2016

 --------------------------------------------
 #p opt UM062X/6-311+G** nosymm int=superfine
 --------------------------------------------

 -------------------
 Title Card Required
 -------------------
 Symbolic Z-matrix:
 Charge =  0 Multiplicity = 1

 SCF Done:  E(UM062X) =  -797.404504699     A.U. after   14 cycles
 SCF Done:  E(UM062X) =  -797.404895535     A.U. after   12 cycles
 SCF Done:  E(UM062X) =  -797.405752208     A.U. after   15 cycles
 SCF Done:  E(UM062X) =  -797.405944856     A.U. after   13 cycles
 SCF Done:  E(UM062X) =  -797.405954521     A.U. after   12 cycles
 SCF Done:  E(UM062X) =  -797.405919765     A.U. after   15 cycles
 SCF Done:  E(UM062X) =  -797.405955344     A.U. after   15 cycles
 SCF Done:  E(UM062X) =  -797.405948475     A.U. after   21 cycles
 SCF Done:  E(UM062X) =  -797.405953326     A.U. after   19 cycles
 SCF Done:  E(UM062X) =  -797.405958036     A.U. after   14 cycles
 SCF Done:  E(UM062X) =  -797.405958134     A.U. after   19 cycles
 SCF Done:  E(UM062X) =  -797.405958184     A.U. after   12 cycles
 Optimization completed.
    -- Stationary point found.

                          Input orientation:
 ---------------------------------------------------------------------
 Center     Atomic      Atomic             Coordinates (Angstroms)
 Number     Number       Type             X           Y           Z
 ---------------------------------------------------------------------
      1         16           0       -1.968191    0.000000    0.000000
      2         16           0        1.968191    0.000000    0.000000
      3          1           0       -1.834044   -1.313432   -0.263246
      4          1           0        1.833803    0.289107    1.307974
 ---------------------------------------------------------------------

 Alpha  occ. eigenvalues --  -89.94620 -89.94620  -8.30837  -8.30836  -6.22988
 Alpha  occ. eigenvalues --   -6.22987  -6.22730  -6.22730  -6.22164  -6.22164
 Alpha  occ. eigenvalues --   -0.81600  -0.81073  -0.47408  -0.47342  -0.33512
 Alpha  occ. eigenvalues --   -0.33293  -0.31588
 Alpha virt. eigenvalues --   -0.21066   0.01919   0.03082   0.04450   0.04909
 Alpha virt. eigenvalues --    0.06551   0.06908   0.07315   0.07440   0.09630
 Alpha virt. eigenvalues --    0.13028   0.30814   0.30948   0.32554   0.35371

  Beta  occ. eigenvalues --  -89.94620 -89.94620  -8.30837  -8.30836  -6.22988
  Beta  occ. eigenvalues --   -6.22987  -6.22730  -6.22730  -6.22164  -6.22164
  Beta  occ. eigenvalues --   -0.81600  -0.81073  -0.47408  -0.47342  -0.33512
  Beta  occ. eigenvalues --   -0.33293  -0.31588
  Beta virt. eigenvalues --   -0.21066   0.01919   0.03082   0.04450   0.04909
  Beta virt. eigenvalues --    0.06551   0.06908   0.07315   0.07440   0.09630
  Beta virt. eigenvalues --    0.13028   0.30814   0.30948   0.32554   0.35371

 Mulliken charges and spin densities:
               1          2
     1  S   -0.084044   0.000001
     2  S   -0.084028  -0.000001
     3  H    0.084033  -0.000000
     4  H    0.084039   0.000000
 Sum of Mulliken charges =  -0.00000   0.00000

 Dipole moment (field-independent basis, Debye):
    X=              0.0000    Y=             -0.8473    Z=              0.8642  Tot=              1.2103
 Quadrupole moment (field-independent basis, Debye-Ang):
   XX=            -25.3172   YY=            -28.0630   ZZ=            -28.1274
   XY=              2.5728   XZ=              2.5218   YZ=              1.6312

 Normal termination of Gaussian 16 at Mon Apr 21 21:19:28 2025.
