 Gaussian 16, Revision A.03,
 Gaussian 16:  ES64L-G16RevA.03 25-Dec-2016

 --------------------------------------------
 #p opt UM062X/6-311+G** nosymm int=superfine
 --------------------------------------------

 -------------------
 Title Card Required
 -------------------
 Symbolic Z-matrix:
 Charge =  1 Multiplicity = 2

 SCF Done:  E(UM062X) =  -1615.57050923     A.U. after   26 cycles
 SCF Done:  E(UM062X) =  -1615.57341410     A.U. after   24 cycles
 SCF Done:  E(UM062X) =  -1615.57349494     A.U. after   28 cycles
 SCF Done:  E(UM062X) =  -1615.57339751     A.U. after   27 cycles
 SCF Done:  E(UM062X) =  -1615.54958670     A.U. after   29 cycles
 SCF Done:  E(UM062X) =  -1615.54559707     A.U. after   28 cycles
 SCF Done:  E(UM062X) =  -1615.57376353     A.U. after   25 cycles
 SCF Done:  E(UM062X) =  -1615.57414551     A.U. after   26 cycles
 SCF Done:  E(UM062X) =  -1615.57411113     A.U. after   25 cycles
 SCF Done:  E(UM062X) =  -1615.57422850     A.U. after   25 cycles
 SCF Done:  E(UM062X) =  -1615.57427744     A.U. after   20 cycles
 SCF Done:  E(UM062X) =  -1615.57427995     A.U. after   19 cycles
 SCF Done:  E(UM062X) =  -1615.57428321     A.U. after   19 cycles
 SCF Done:  E(UM062X) =  -1615.57428343     A.U. after   20 cycles
 SCF Done:  E(UM062X) =  -1615.57428355     A.U. after   21 cycles
 SCF Done:  E(UM062X) =  -1615.57428361     A.U. after   15 cycles
 SCF Done:  E(UM062X) =  -1615.57428363     A.U. after   15 cycles
 Optimization completed.
    -- Stationary point found.

                          Input orientation:
 ---------------------------------------------------------------------
 Center     Atomic      Atomic             Coordinates (Angstroms)
 Number     Number       Type             X           Y           Z
 ---------------------------------------------------------------------
      1          6           0       -1.669154   -0.000000    0.000000
      2          6           0        1.669154   -0.000000    0.000000
      3          6           0        0.000001   -2.047909   -0.001297
      4          6           0       -0.000003   -3.450769   -0.002184
      5          6           0       -1.132749   -4.286360    0.190540
      6          6           0       -1.329491   -1.463899    0.159060
      7          6           0        0.664866   -5.679417   -0.119785
      8          1           0        1.298650   -6.547162   -0.234146
      9          6           0       -1.677206    0.761134    1.222964
     10          6           0       -0.664881   -5.679561    0.112618
     11          1           0       -1.298668   -6.547446    0.225887
     12          6           0        1.132743   -4.286121   -0.195945
     13          6           0        1.329497   -1.463697   -0.160891
     14          6           0        1.798579    2.187299   -1.347155
     15          6           0       -1.780452    0.413743   -1.372866
     16          6           0       -1.838249    2.762676    2.632454
     17          1           0       -1.947439    3.838753    2.702251
     18          6           0       -2.350035   -3.704484    0.405228
     19          1           0       -3.250932   -4.283541    0.571242
     20          6           0       -1.774063    1.762739   -1.863089
     21          6           0        2.415770   -2.289085   -0.377202
     22          1           0        3.387128   -1.818462   -0.492610
     23          6           0        1.780442    0.412032    1.373379
     24          6           0        1.774065    1.760407    1.865305
     25          6           0        2.350039   -3.703978   -0.409844
     26          1           0        3.250942   -4.282828   -0.576552
     27          6           0       -1.798863    2.185596    1.349883
     28          6           0       -1.520450    0.035584    2.441632
     29          1           0       -1.382648   -1.034025    2.402951
     30          6           0        1.844742   -0.618838    2.364581
     31          1           0        1.878280   -1.651199    2.051647
     32          6           0       -1.735014    2.014758    3.786788
     33          1           0       -1.778099    2.495490    4.756541
     34          6           0       -2.415761   -2.289552    0.374383
     35          1           0       -3.387111   -1.819069    0.490427
     36          6           0       -1.791157    1.990378   -3.253767
     37          1           0       -1.768338    3.017261   -3.599669
     38          6           0        1.677136    0.762670   -1.222028
     39          6           0       -1.812129    3.135499    0.269460
     40          1           0       -1.840941    4.170003    0.597455
     41          6           0       -1.852311    0.967872   -4.172632
     42          1           0       -1.881020    1.185907   -5.233348
     43          6           0       -1.769304    2.958897   -1.066391
     44          1           0       -1.758641    3.873117   -1.652117
     45          6           0        1.791240    1.986300    3.256264
     46          1           0        1.768447    3.012749    3.603453
     47          6           0       -1.554891    0.634062    3.680736
     48          1           0       -1.440428    0.025666    4.569672
     49          6           0       -1.844698   -0.615884   -2.365359
     50          1           0       -1.878247   -1.648634   -2.053714
     51          6           0        1.852452    0.962642    4.173847
     52          1           0        1.881232    1.179347    5.234833
     53          6           0        1.837822    2.766003   -2.628999
     54          1           0        1.946839    3.842185   -2.697442
     55          6           0        1.896538   -0.358126    3.711863
     56          1           0        1.967029   -1.181540    4.412102
     57          6           0        1.734681    2.019524   -3.784274
     58          1           0        1.777652    2.501486   -4.753423
     59          6           0        1.811830    3.135846   -0.265530
     60          1           0        1.840515    4.170763   -0.592231
     61          6           0       -1.896423   -0.353477   -3.712314
     62          1           0       -1.966888   -1.176006   -4.413594
     63          6           0        1.769198    2.957568    1.070101
     64          1           0        1.758572    3.871053    1.656973
     65          6           0        1.520457    0.038630   -2.441598
     66          1           0        1.382825   -1.031048   -2.404260
     67          6           0        1.554789    0.638668   -3.679954
     68          1           0        1.440426    0.031365   -4.569649
 ---------------------------------------------------------------------

 Alpha  occ. eigenvalues --  -10.70659 -10.70658 -10.68673 -10.68673 -10.68614
 Alpha  occ. eigenvalues --  -10.68614 -10.68258 -10.68257 -10.68255 -10.68254
 Alpha  occ. eigenvalues --  -10.67649 -10.67521 -10.67509 -10.66712 -10.66711
 Alpha  occ. eigenvalues --  -10.66608 -10.66607 -10.65919 -10.65919 -10.65874
 Alpha  occ. eigenvalues --  -10.65873 -10.65729 -10.65728 -10.65685 -10.65685
 Alpha  occ. eigenvalues --  -10.65611 -10.65611 -10.65583 -10.65582 -10.65399
 Alpha  occ. eigenvalues --  -10.65399 -10.65362 -10.65362 -10.65347 -10.65347
 Alpha  occ. eigenvalues --  -10.65194 -10.65194 -10.64830 -10.64829 -10.63843
 Alpha  occ. eigenvalues --  -10.63728 -10.63626  -1.11709  -1.10364  -1.09952
 Alpha  occ. eigenvalues --   -1.08250  -1.07820  -1.05142  -1.04984  -1.02478
 Alpha  occ. eigenvalues --   -1.02151  -1.01026  -1.00153  -0.97920  -0.97656
 Alpha  occ. eigenvalues --   -0.96679  -0.96306  -0.94832  -0.93545  -0.93457
 Alpha  occ. eigenvalues --   -0.92862  -0.91684  -0.87332  -0.87115  -0.84970
 Alpha  occ. eigenvalues --   -0.84815  -0.82999  -0.81530  -0.80676  -0.79739
 Alpha  occ. eigenvalues --   -0.79659  -0.79533  -0.77282  -0.76280  -0.76152
 Alpha  occ. eigenvalues --   -0.75890  -0.75288  -0.73256  -0.70115  -0.69597
 Alpha  occ. eigenvalues --   -0.68689  -0.68521  -0.67749  -0.67648  -0.66889
 Alpha  occ. eigenvalues --   -0.66885  -0.65730  -0.65342  -0.65225  -0.64651
 Alpha  occ. eigenvalues --   -0.63218  -0.62705  -0.62401  -0.62097  -0.60929
 Alpha  occ. eigenvalues --   -0.60914  -0.60513  -0.60165  -0.60032  -0.60007
 Alpha  occ. eigenvalues --   -0.59522  -0.58798  -0.58698  -0.58088  -0.57610
 Alpha  occ. eigenvalues --   -0.57371  -0.57178  -0.55917  -0.55653  -0.55648
 Alpha  occ. eigenvalues --   -0.54915  -0.54075  -0.52994  -0.52844  -0.52596
 Alpha  occ. eigenvalues --   -0.52418  -0.52348  -0.52022  -0.51030  -0.50955
 Alpha  occ. eigenvalues --   -0.50864  -0.50739  -0.49619  -0.49556  -0.49459
 Alpha  occ. eigenvalues --   -0.48356  -0.48305  -0.47973  -0.45646  -0.44708
 Alpha  occ. eigenvalues --   -0.43822  -0.42797  -0.40619  -0.40409  -0.39245
 Alpha  occ. eigenvalues --   -0.38129  -0.37540  -0.36997  -0.30155
 Alpha virt. eigenvalues --   -0.21483  -0.16021  -0.15509  -0.14355  -0.10723
 Alpha virt. eigenvalues --   -0.09969  -0.08926  -0.08570  -0.08334  -0.07585
 Alpha virt. eigenvalues --   -0.07542  -0.07454  -0.06637  -0.06294  -0.06186

  Beta  occ. eigenvalues --  -10.70496 -10.70496 -10.68721 -10.68721 -10.68658
  Beta  occ. eigenvalues --  -10.68658 -10.68215 -10.68214 -10.68212 -10.68211
  Beta  occ. eigenvalues --  -10.67625 -10.67541 -10.67523 -10.66709 -10.66708
  Beta  occ. eigenvalues --  -10.66601 -10.66601 -10.65879 -10.65878 -10.65838
  Beta  occ. eigenvalues --  -10.65838 -10.65696 -10.65696 -10.65646 -10.65646
  Beta  occ. eigenvalues --  -10.65631 -10.65630 -10.65602 -10.65601 -10.65416
  Beta  occ. eigenvalues --  -10.65415 -10.65366 -10.65366 -10.65359 -10.65359
  Beta  occ. eigenvalues --  -10.65182 -10.65182 -10.64829 -10.64828 -10.63840
  Beta  occ. eigenvalues --  -10.63728 -10.63626  -1.11563  -1.10194  -1.09879
  Beta  occ. eigenvalues --   -1.08145  -1.07731  -1.04973  -1.04838  -1.02368
  Beta  occ. eigenvalues --   -1.02058  -1.00846  -0.99990  -0.97818  -0.97562
  Beta  occ. eigenvalues --   -0.96571  -0.96215  -0.94788  -0.93476  -0.93362
  Beta  occ. eigenvalues --   -0.92798  -0.91601  -0.87030  -0.86759  -0.84906
  Beta  occ. eigenvalues --   -0.84755  -0.82923  -0.81434  -0.80581  -0.79658
  Beta  occ. eigenvalues --   -0.79592  -0.79463  -0.77179  -0.76140  -0.75990
  Beta  occ. eigenvalues --   -0.75730  -0.75247  -0.73140  -0.69999  -0.69453
  Beta  occ. eigenvalues --   -0.68577  -0.68406  -0.67705  -0.67605  -0.66773
  Beta  occ. eigenvalues --   -0.66768  -0.65641  -0.65190  -0.65082  -0.64557
  Beta  occ. eigenvalues --   -0.63048  -0.62653  -0.62322  -0.62030  -0.60785
  Beta  occ. eigenvalues --   -0.60697  -0.60393  -0.60048  -0.59954  -0.59823
  Beta  occ. eigenvalues --   -0.59378  -0.58702  -0.58570  -0.58014  -0.57510
  Beta  occ. eigenvalues --   -0.57133  -0.56790  -0.55685  -0.55606  -0.55602
  Beta  occ. eigenvalues --   -0.54883  -0.53782  -0.52895  -0.52760  -0.52540
  Beta  occ. eigenvalues --   -0.52316  -0.52232  -0.52000  -0.50966  -0.50844
  Beta  occ. eigenvalues --   -0.50787  -0.50312  -0.49453  -0.49411  -0.48872
  Beta  occ. eigenvalues --   -0.48288  -0.47705  -0.47639  -0.44891  -0.44211
  Beta  occ. eigenvalues --   -0.43112  -0.42444  -0.40349  -0.40323  -0.38649
  Beta  occ. eigenvalues --   -0.38048  -0.37187  -0.36966
  Beta virt. eigenvalues --   -0.20569  -0.18331  -0.15921  -0.15502  -0.14421
  Beta virt. eigenvalues --   -0.10371  -0.09558  -0.08554  -0.08550  -0.08012
  Beta virt. eigenvalues --   -0.07622  -0.07561  -0.07274  -0.06627  -0.06282

 Mulliken charges and spin densities:
               1          2
     1  C    0.043817   0.369833
     2  C    0.044035   0.369913
     3  C    0.368967   0.026112
     4  C    0.218727  -0.018452
     5  C    0.110303   0.007545
     6  C    0.016395  -0.043836
     7  C   -0.319128   0.000601
     8  H    0.176016   0.000003
     9  C    0.001345  -0.049340
    10  C   -0.319083   0.000601
    11  H    0.176015   0.000003
    12  C    0.110324   0.007540
    13  C    0.016253  -0.043852
    14  C    0.589468   0.030446
    15  C    0.348129  -0.078485
    16  C   -0.439330  -0.037218
    17  H    0.164812   0.001163
    18  C   -0.462200   0.001246
    19  H    0.175273   0.000096
    20  C    0.268768   0.109576
    21  C   -0.104584   0.023216
    22  H    0.177530  -0.000483
    23  C    0.348113  -0.078509
    24  C    0.268801   0.109612
    25  C   -0.462141   0.001249
    26  H    0.175273   0.000096
    27  C    0.589618   0.030423
    28  C   -0.056387   0.085459
    29  H    0.212315  -0.004963
    30  C   -0.246215   0.037077
    31  H    0.223582  -0.003677
    32  C   -0.395387   0.063014
    33  H    0.182371  -0.003613
    34  C   -0.104654   0.023200
    35  H    0.177526  -0.000483
    36  C   -0.028710  -0.065166
    37  H    0.158976   0.001469
    38  C    0.001431  -0.049368
    39  C   -0.353612   0.047314
    40  H    0.163317  -0.002270
    41  C   -0.202941   0.075739
    42  H    0.181113  -0.004017
    43  C   -0.367727   0.010940
    44  H    0.160646  -0.000443
    45  C   -0.028824  -0.065191
    46  H    0.158979   0.001470
    47  C    0.046176  -0.039822
    48  H    0.167312   0.000281
    49  C   -0.246158   0.037042
    50  H    0.223582  -0.003676
    51  C   -0.203008   0.075755
    52  H    0.181112  -0.004017
    53  C   -0.439475  -0.037229
    54  H    0.164813   0.001163
    55  C   -0.561847  -0.037012
    56  H    0.176518   0.001506
    57  C   -0.395352   0.063036
    58  H    0.182370  -0.003615
    59  C   -0.353509   0.047317
    60  H    0.163310  -0.002271
    61  C   -0.561901  -0.036998
    62  H    0.176521   0.001505
    63  C   -0.367619   0.010922
    64  H    0.160643  -0.000442
    65  C   -0.056642   0.085471
    66  H    0.212319  -0.004964
    67  C    0.046204  -0.039824
    68  H    0.167315   0.000281
 Sum of Mulliken charges =   1.00000   1.00000

 Dipole moment (field-independent basis, Debye):
    X=             -0.0008    Y=              2.5467    Z=              0.0017  Tot=              2.5467
 Quadrupole moment (field-independent basis, Debye-Ang):
   XX=           -222.1158   YY=           -174.7430   ZZ=           -176.3570
   XY=             -0.0036   XZ=              1.0343   YZ=              0.0015

 Normal termination of Gaussian 16 at Fri Nov 15 18:37:54 2024.
