 Gaussian 16, Revision A.03,
 Gaussian 16:  ES64L-G16RevA.03 25-Dec-2016

 --------------------------------------------
 #p opt UM062X/6-311+G** nosymm int=superfine
 --------------------------------------------

 -------------------
 Title Card Required
 -------------------
 Symbolic Z-matrix:
 Charge =  0 Multiplicity = 1

 SCF Done:  E(UM062X) =  -579.897300731     A.U. after    9 cycles
 SCF Done:  E(UM062X) =  -579.900715456     A.U. after    9 cycles
 SCF Done:  E(UM062X) =  -579.900727673     A.U. after    7 cycles
 Optimization completed.
    -- Stationary point found.

                          Input orientation:
 ---------------------------------------------------------------------
 Center     Atomic      Atomic             Coordinates (Angstroms)
 Number     Number       Type             X           Y           Z
 ---------------------------------------------------------------------
      1         14           0       -1.703705    0.000000    0.000000
      2         14           0        1.703705    0.000000    0.000000
      3          1           0       -3.236581   -0.000003   -0.000000
      4          1           0        3.236581    0.000065    0.000000
 ---------------------------------------------------------------------

 Alpha  occ. eigenvalues --  -67.04371 -67.04371  -5.58789  -5.58788  -3.89875
 Alpha  occ. eigenvalues --   -3.89874  -3.89429  -3.89429  -3.89310  -3.89310
 Alpha  occ. eigenvalues --   -0.55212  -0.54084  -0.35671  -0.29139  -0.19214
 Alpha virt. eigenvalues --   -0.09986  -0.09238  -0.07428   0.02271   0.03002
 Alpha virt. eigenvalues --    0.04509   0.05107   0.05710   0.06087   0.07107
 Alpha virt. eigenvalues --    0.08785   0.09808   0.20351   0.29255   0.29613

  Beta  occ. eigenvalues --  -67.04371 -67.04371  -5.58789  -5.58788  -3.89875
  Beta  occ. eigenvalues --   -3.89874  -3.89429  -3.89429  -3.89310  -3.89310
  Beta  occ. eigenvalues --   -0.55212  -0.54084  -0.35671  -0.29139  -0.19214
  Beta virt. eigenvalues --   -0.09986  -0.09238  -0.07428   0.02271   0.03002
  Beta virt. eigenvalues --    0.04509   0.05107   0.05710   0.06087   0.07107
  Beta virt. eigenvalues --    0.08785   0.09808   0.20351   0.29255   0.29613

 Mulliken charges and spin densities:
               1          2
     1  Si   0.142547   0.000000
     2  Si   0.142546  -0.000000
     3  H   -0.142546  -0.000000
     4  H   -0.142546   0.000000
 Sum of Mulliken charges =  -0.00000   0.00000

 Dipole moment (field-independent basis, Debye):
    X=             -0.0000    Y=              0.0000    Z=             -0.0000  Tot=              0.0000
 Quadrupole moment (field-independent basis, Debye-Ang):
   XX=            -31.7920   YY=            -24.1737   ZZ=            -35.4183
   XY=             -0.0002   XZ=             -0.0000   YZ=              0.0007

 Normal termination of Gaussian 16 at Mon Apr 21 21:24:11 2025.
