 Gaussian 16, Revision A.03,
 Gaussian 16:  ES64L-G16RevA.03 25-Dec-2016

 --------------------------------------------
 #p opt UM062X/6-311+G** nosymm int=superfine
 --------------------------------------------

 -------------------
 Title Card Required
 -------------------
 Symbolic Z-matrix:
 Charge =  1 Multiplicity = 2

 SCF Done:  E(UM062X) =  -76.5862781693     A.U. after   10 cycles
 SCF Done:  E(UM062X) =  -76.5866373938     A.U. after    9 cycles
 Optimization completed.
    -- Stationary point found.

                          Input orientation:
 ---------------------------------------------------------------------
 Center     Atomic      Atomic             Coordinates (Angstroms)
 Number     Number       Type             X           Y           Z
 ---------------------------------------------------------------------
      1          6           0       -1.657160    0.000000    0.000000
      2          6           0        1.657160    0.000000    0.000000
      3          1           0       -2.775317    0.000000    0.000000
      4          1           0        2.775316    0.000000    0.000000
 ---------------------------------------------------------------------

 Alpha  occ. eigenvalues --  -10.94968 -10.94967  -0.98689  -0.98373  -0.65417
 Alpha  occ. eigenvalues --   -0.62353  -0.49239
 Alpha virt. eigenvalues --   -0.40359  -0.34052  -0.33269  -0.12687  -0.11542
 Alpha virt. eigenvalues --   -0.07915  -0.07405  -0.05434  -0.04962  -0.04576
 Alpha virt. eigenvalues --   -0.01496  -0.00148   0.05993   0.23469   0.30899

  Beta  occ. eigenvalues --  -10.94564 -10.94564  -0.96289  -0.96104  -0.64098
  Beta  occ. eigenvalues --   -0.60938
  Beta virt. eigenvalues --   -0.32287  -0.31346  -0.30717  -0.29688  -0.13197
  Beta virt. eigenvalues --   -0.11461  -0.07422  -0.06704  -0.06263  -0.04257
  Beta virt. eigenvalues --   -0.03342  -0.02144   0.01533   0.07420   0.22781

 Mulliken charges and spin densities:
               1          2
     1  C    0.259568   0.516465
     2  C    0.259568   0.516466
     3  H    0.240432  -0.016465
     4  H    0.240432  -0.016465
 Sum of Mulliken charges =   1.00000   1.00000

 Dipole moment (field-independent basis, Debye):
    X=             -0.0000    Y=             -0.0000    Z=             -0.0000  Tot=              0.0000
 Quadrupole moment (field-independent basis, Debye-Ang):
   XX=             16.2003   YY=            -10.3535   ZZ=            -10.6928
   XY=              0.0000   XZ=             -0.0000   YZ=              1.0023

 Normal termination of Gaussian 16 at Tue Dec  3 11:29:19 2024.
