 Gaussian 16, Revision A.03,
 Gaussian 16:  ES64L-G16RevA.03 25-Dec-2016

 --------------------------------------------
 #p opt UM062X/6-311+G** nosymm int=superfine
 --------------------------------------------

 -------------------
 Title Card Required
 -------------------
 Symbolic Z-matrix:
 Charge =  0 Multiplicity = 1

 SCF Done:  E(UM062X) =  -92.8198327555     A.U. after   15 cycles
 SCF Done:  E(UM062X) =  -92.8217896597     A.U. after   11 cycles
 SCF Done:  E(UM062X) =  -92.8218001033     A.U. after    9 cycles
 Optimization completed.
    -- Stationary point found.

                          Input orientation:
 ---------------------------------------------------------------------
 Center     Atomic      Atomic             Coordinates (Angstroms)
 Number     Number       Type             X           Y           Z
 ---------------------------------------------------------------------
      1          6           0       -1.922395    0.000000    0.000000
      2          7           0        1.922395    0.000000    0.000000
      3          1           0       -3.047707    0.000000   -0.000000
 ---------------------------------------------------------------------

 Alpha  occ. eigenvalues --  -14.81309 -10.76392  -0.80380  -0.76153  -0.45552
 Alpha  occ. eigenvalues --   -0.25988  -0.25988
 Alpha virt. eigenvalues --   -0.18395  -0.18395  -0.07754  -0.00126   0.06145
 Alpha virt. eigenvalues --    0.06145   0.07903   0.12582   0.15731   0.17363
 Alpha virt. eigenvalues --    0.17363   0.23274   0.41732   0.51909   0.51909

  Beta  occ. eigenvalues --  -14.81309 -10.76392  -0.80380  -0.76153  -0.45552
  Beta  occ. eigenvalues --   -0.25988  -0.25988
  Beta virt. eigenvalues --   -0.18395  -0.18395  -0.07754  -0.00126   0.06145
  Beta virt. eigenvalues --    0.06145   0.07903   0.12582   0.15731   0.17363
  Beta virt. eigenvalues --    0.17363   0.23274   0.41732   0.51909   0.51909

 Mulliken charges and spin densities:
               1          2
     1  C    0.083921   0.000000
     2  N   -0.254180  -0.000000
     3  H    0.170260  -0.000000
 Sum of Mulliken charges =  -0.00000  -0.00000

 Dipole moment (field-independent basis, Debye):
    X=             -6.5375    Y=              0.0000    Z=             -0.0000  Tot=              6.5375
 Quadrupole moment (field-independent basis, Debye-Ang):
   XX=             -4.2396   YY=            -14.2133   ZZ=            -14.2133
   XY=             -0.0000   XZ=              0.0000   YZ=             -0.0000

 Normal termination of Gaussian 16 at Mon Apr 21 18:39:19 2025.
