 Gaussian 16, Revision A.03,
 Gaussian 16:  ES64L-G16RevA.03 25-Dec-2016

 --------------------------------------------
 #p opt UM062X/6-311+G** nosymm int=superfine
 --------------------------------------------

 -------------------
 Title Card Required
 -------------------
 Symbolic Z-matrix:
 Charge =  0 Multiplicity = 1

 SCF Done:  E(UM062X) =  -474.559839675     A.U. after   12 cycles
 SCF Done:  E(UM062X) =  -474.560183134     A.U. after   11 cycles
 SCF Done:  E(UM062X) =  -474.560045590     A.U. after   11 cycles
 SCF Done:  E(UM062X) =  -474.560211304     A.U. after    9 cycles
 SCF Done:  E(UM062X) =  -474.560212105     A.U. after    9 cycles
 SCF Done:  E(UM062X) =  -474.560212123     A.U. after    8 cycles
 Optimization completed.
    -- Stationary point found.

                          Input orientation:
 ---------------------------------------------------------------------
 Center     Atomic      Atomic             Coordinates (Angstroms)
 Number     Number       Type             X           Y           Z
 ---------------------------------------------------------------------
      1          8           0       -0.889392    0.000000    0.000000
      2         16           0        0.889392    0.000000    0.000000
      3          1           0       -1.139415   -0.929677   -0.017309
      4          1           0        1.020253    0.120773    1.332734
 ---------------------------------------------------------------------

 Alpha  occ. eigenvalues --  -89.94837 -19.66576  -8.31030  -6.23277  -6.22880
 Alpha  occ. eigenvalues --   -6.22385  -1.14798  -0.81666  -0.58087  -0.51174
 Alpha  occ. eigenvalues --   -0.46187  -0.39024  -0.32113
 Alpha virt. eigenvalues --   -0.02622   0.01649   0.04465   0.05235   0.07145
 Alpha virt. eigenvalues --    0.09044   0.16084   0.18597   0.20054   0.22858
 Alpha virt. eigenvalues --    0.28526   0.32182   0.34119   0.35351   0.41264

  Beta  occ. eigenvalues --  -89.94837 -19.66576  -8.31030  -6.23277  -6.22880
  Beta  occ. eigenvalues --   -6.22385  -1.14798  -0.81666  -0.58087  -0.51174
  Beta  occ. eigenvalues --   -0.46187  -0.39024  -0.32113
  Beta virt. eigenvalues --   -0.02622   0.01649   0.04465   0.05235   0.07145
  Beta virt. eigenvalues --    0.09044   0.16084   0.18597   0.20054   0.22858
  Beta virt. eigenvalues --    0.28526   0.32182   0.34119   0.35351   0.41264

 Mulliken charges and spin densities:
               1          2
     1  O   -0.421379  -0.000000
     2  S    0.068873   0.000000
     3  H    0.279289  -0.000000
     4  H    0.073217  -0.000000
 Sum of Mulliken charges =  -0.00000  -0.00000

 Dipole moment (field-independent basis, Debye):
    X=              0.6404    Y=             -1.5663    Z=              1.0357  Tot=              1.9839
 Quadrupole moment (field-independent basis, Debye-Ang):
   XX=            -18.8717   YY=            -19.7170   ZZ=            -18.3465
   XY=              2.6313   XZ=              1.4881   YZ=              0.4116

 Normal termination of Gaussian 16 at Thu May 15 12:51:24 2025.
