 Gaussian 16, Revision A.03,
 Gaussian 16:  ES64L-G16RevA.03 25-Dec-2016

 --------------------------------------------
 #p opt UM062X/6-311+G** nosymm int=superfine
 --------------------------------------------

 -------------------
 Title Card Required
 -------------------
 Symbolic Z-matrix:
 Charge = -1 Multiplicity = 2

 SCF Done:  E(UM062X) =  -53.2312415254     A.U. after   11 cycles
 SCF Done:  E(UM062X) =  -53.2316699102     A.U. after   10 cycles
 SCF Done:  E(UM062X) =  -53.2317491792     A.U. after    9 cycles
 Optimization completed.
    -- Stationary point found.

                          Input orientation:
 ---------------------------------------------------------------------
 Center     Atomic      Atomic             Coordinates (Angstroms)
 Number     Number       Type             X           Y           Z
 ---------------------------------------------------------------------
      1          5           0       -1.265672    0.000000    0.000000
      2          5           0        1.265672    0.000000    0.000000
      3          1           0        1.429564   -1.191496   -0.000005
      4          1           0       -1.429468   -0.595756    1.031875
      5          1           0        1.429608    0.595766   -1.031848
      6          1           0        1.429429    0.595742    1.031889
      7          1           0       -1.429571    1.191496    0.000007
      8          1           0       -1.429562   -0.595754   -1.031862
 ---------------------------------------------------------------------

 Alpha  occ. eigenvalues --   -6.81312  -6.81306  -0.39580  -0.35235  -0.20273
 Alpha  occ. eigenvalues --   -0.20273  -0.17732  -0.17732  -0.02190
 Alpha virt. eigenvalues --    0.16009   0.17235   0.17623   0.17623   0.19222
 Alpha virt. eigenvalues --    0.19222   0.21091   0.23205   0.26673   0.33050
 Alpha virt. eigenvalues --    0.33050   0.37387   0.37387   0.39001   0.41410

  Beta  occ. eigenvalues --   -6.81236  -6.81235  -0.36981  -0.33609  -0.19766
  Beta  occ. eigenvalues --   -0.19766  -0.17454  -0.17454
  Beta virt. eigenvalues --    0.13548   0.15092   0.17413   0.17413   0.17972
  Beta virt. eigenvalues --    0.18742   0.18742   0.23192   0.24293   0.32165
  Beta virt. eigenvalues --    0.33021   0.33021   0.37624   0.37625   0.39508

 Mulliken charges and spin densities:
               1          2
     1  B   -0.275095   0.594272
     2  B   -0.275095   0.594272
     3  H   -0.074968  -0.031422
     4  H   -0.074965  -0.031424
     5  H   -0.074974  -0.031427
     6  H   -0.074963  -0.031423
     7  H   -0.074969  -0.031422
     8  H   -0.074971  -0.031427
 Sum of Mulliken charges =  -1.00000   1.00000

 Dipole moment (field-independent basis, Debye):
    X=             -0.0000    Y=             -0.0000    Z=              0.0000  Tot=              0.0000
 Quadrupole moment (field-independent basis, Debye-Ang):
   XX=            -33.0564   YY=            -23.9973   ZZ=            -23.9973
   XY=             -0.0000   XZ=              0.0000   YZ=              0.0000

 Normal termination of Gaussian 16 at Mon Apr 21 16:51:09 2025.
