 Gaussian 16, Revision A.03,
 Gaussian 16:  ES64L-G16RevA.03 25-Dec-2016

 --------------------------------------------
 #p opt UM062X/6-311+G** nosymm int=superfine
 --------------------------------------------

 -------------------
 Title Card Required
 -------------------
 Symbolic Z-matrix:
 Charge =  0 Multiplicity = 1

 SCF Done:  E(UM062X) =  -437.394586385     A.U. after   11 cycles
 SCF Done:  E(UM062X) =  -437.395362151     A.U. after    9 cycles
 SCF Done:  E(UM062X) =  -437.395503638     A.U. after   10 cycles
 SCF Done:  E(UM062X) =  -437.392987235     A.U. after   12 cycles
 SCF Done:  E(UM062X) =  -437.395533703     A.U. after    9 cycles
 SCF Done:  E(UM062X) =  -437.395533959     A.U. after    8 cycles
 Optimization completed.
    -- Stationary point found.

                          Input orientation:
 ---------------------------------------------------------------------
 Center     Atomic      Atomic             Coordinates (Angstroms)
 Number     Number       Type             X           Y           Z
 ---------------------------------------------------------------------
      1          6           0       -0.952140    0.000000    0.000000
      2         16           0        0.952140    0.000000    0.000000
      3          1           0       -1.470417   -0.950856    0.001457
      4          1           0       -1.470945    0.950566   -0.001444
 ---------------------------------------------------------------------

 Alpha  occ. eigenvalues --  -89.91684 -10.65202  -8.27661  -6.19699  -6.19681
 Alpha  occ. eigenvalues --   -6.19047  -0.84183  -0.70761  -0.54887  -0.43112
 Alpha  occ. eigenvalues --   -0.33996  -0.29992
 Alpha virt. eigenvalues --   -0.09953   0.00821   0.04023   0.05029   0.06020
 Alpha virt. eigenvalues --    0.08196   0.08627   0.09197   0.09886   0.14998
 Alpha virt. eigenvalues --    0.16996   0.20830   0.35113   0.36551   0.36646

  Beta  occ. eigenvalues --  -89.91684 -10.65202  -8.27661  -6.19699  -6.19681
  Beta  occ. eigenvalues --   -6.19047  -0.84183  -0.70761  -0.54887  -0.43112
  Beta  occ. eigenvalues --   -0.33996  -0.29992
  Beta virt. eigenvalues --   -0.09953   0.00821   0.04023   0.05029   0.06020
  Beta virt. eigenvalues --    0.08196   0.08627   0.09197   0.09886   0.14998
  Beta virt. eigenvalues --    0.16996   0.20830   0.35113   0.36551   0.36646

 Mulliken charges and spin densities:
               1          2
     1  C   -0.361944  -0.000000
     2  S   -0.049515   0.000000
     3  H    0.205731   0.000000
     4  H    0.205728   0.000000
 Sum of Mulliken charges =  -0.00000  -0.00000

 Dipole moment (field-independent basis, Debye):
    X=             -2.3237    Y=             -0.0002    Z=              0.0000  Tot=              2.3237
 Quadrupole moment (field-independent basis, Debye-Ang):
   XX=            -17.5129   YY=            -20.8392   ZZ=            -20.9136
   XY=             -0.0006   XZ=             -0.0000   YZ=             -0.0001

 Normal termination of Gaussian 16 at Mon Apr 21 19:41:38 2025.
