 Gaussian 16, Revision A.03,
 Gaussian 16:  ES64L-G16RevA.03 25-Dec-2016

 --------------------------------------------
 #p opt UM062X/6-311+G** nosymm int=superfine
 --------------------------------------------

 -------------------
 Title Card Required
 -------------------
 Symbolic Z-matrix:
 Charge = -1 Multiplicity = 2

 SCF Done:  E(UM062X) =  -50.5456496333     A.U. after   15 cycles
 SCF Done:  E(UM062X) =  -50.5518049551     A.U. after   11 cycles
 SCF Done:  E(UM062X) =  -50.5524048324     A.U. after   10 cycles
 Optimization completed.
    -- Stationary point found.

                          Input orientation:
 ---------------------------------------------------------------------
 Center     Atomic      Atomic             Coordinates (Angstroms)
 Number     Number       Type             X           Y           Z
 ---------------------------------------------------------------------
      1          5           0       -1.541404    0.000000    0.000000
      2          5           0        1.541404    0.000000    0.000000
      3          1           0       -2.832560   -0.000974   -0.000000
      4          1           0        2.832560    0.000974    0.000000
 ---------------------------------------------------------------------

 Alpha  occ. eigenvalues --   -6.90098  -6.90097  -0.33341  -0.32790  -0.11013
 Alpha  occ. eigenvalues --   -0.02884   0.02153
 Alpha virt. eigenvalues --    0.12443   0.12636   0.15057   0.15913   0.16503
 Alpha virt. eigenvalues --    0.22072   0.22307   0.22599   0.22686   0.24009
 Alpha virt. eigenvalues --    0.26070   0.34854   0.38278   0.53671   0.58192

  Beta  occ. eigenvalues --   -6.90019  -6.90019  -0.32255  -0.31902  -0.09771
  Beta  occ. eigenvalues --   -0.01903
  Beta virt. eigenvalues --    0.10193   0.11317   0.13179   0.13559   0.13839
  Beta virt. eigenvalues --    0.14327   0.18950   0.20412   0.20544   0.21584
  Beta virt. eigenvalues --    0.22149   0.22910   0.34501   0.38368   0.53212

 Mulliken charges and spin densities:
               1          2
     1  B   -0.395040   0.507918
     2  B   -0.395040   0.507918
     3  H   -0.104960  -0.007918
     4  H   -0.104960  -0.007918
 Sum of Mulliken charges =  -1.00000   1.00000

 Dipole moment (field-independent basis, Debye):
    X=             -0.0000    Y=              0.0000    Z=             -0.0000  Tot=              0.0000
 Quadrupole moment (field-independent basis, Debye-Ang):
   XX=            -38.4998   YY=            -19.1727   ZZ=            -26.7035
   XY=             -0.0017   XZ=             -0.0000   YZ=              0.0000

 Normal termination of Gaussian 16 at Mon Apr 21 17:26:54 2025.
