 Gaussian 16, Revision A.03,
 Gaussian 16:  ES64L-G16RevA.03 25-Dec-2016

 --------------------------------------------
 #p opt UM062X/6-311+G** nosymm int=superfine
 --------------------------------------------

 -------------------
 Title Card Required
 -------------------
 Symbolic Z-matrix:
 Charge =  0 Multiplicity = 1

 SCF Done:  E(UM062X) =  -438.506055805     A.U. after   12 cycles
 SCF Done:  E(UM062X) =  -438.519133549     A.U. after   11 cycles
 SCF Done:  E(UM062X) =  -438.524945455     A.U. after   11 cycles
 SCF Done:  E(UM062X) =  -438.525005580     A.U. after   10 cycles
 SCF Done:  E(UM062X) =  -438.525025780     A.U. after   11 cycles
 SCF Done:  E(UM062X) =  -438.525041071     A.U. after    9 cycles
 SCF Done:  E(UM062X) =  -438.525043488     A.U. after   11 cycles
 SCF Done:  E(UM062X) =  -438.525044181     A.U. after    8 cycles
 SCF Done:  E(UM062X) =  -438.525044602     A.U. after    8 cycles
 SCF Done:  E(UM062X) =  -438.525044817     A.U. after   12 cycles
 Optimization completed.
    -- Stationary point found.

                          Input orientation:
 ---------------------------------------------------------------------
 Center     Atomic      Atomic             Coordinates (Angstroms)
 Number     Number       Type             X           Y           Z
 ---------------------------------------------------------------------
      1          6           0       -1.735220    0.000000    0.000000
      2         16           0        1.735220    0.000000    0.000000
      3          1           0        1.693520   -1.343844   -0.001597
      4          1           0       -1.756198    1.080626    0.002517
      5          1           0       -1.794457   -0.534851   -0.937493
      6          1           0       -1.794611   -0.539212    0.934981
 ---------------------------------------------------------------------

 Alpha  occ. eigenvalues --  -89.88124 -10.64566  -8.24390  -6.16442  -6.16367
 Alpha  occ. eigenvalues --   -6.15822  -0.82800  -0.75816  -0.54789  -0.54702
 Alpha  occ. eigenvalues --   -0.42350  -0.28284  -0.28151
 Alpha virt. eigenvalues --   -0.14536   0.01274   0.03919   0.04465   0.05603
 Alpha virt. eigenvalues --    0.07551   0.08325   0.08474   0.10901   0.13572
 Alpha virt. eigenvalues --    0.16020   0.16418   0.21514   0.33661   0.36203

  Beta  occ. eigenvalues --  -89.88124 -10.64566  -8.24390  -6.16442  -6.16367
  Beta  occ. eigenvalues --   -6.15822  -0.82800  -0.75816  -0.54789  -0.54702
  Beta  occ. eigenvalues --   -0.42350  -0.28284  -0.28151
  Beta virt. eigenvalues --   -0.14536   0.01274   0.03919   0.04465   0.05603
  Beta virt. eigenvalues --    0.07551   0.08325   0.08474   0.10901   0.13572
  Beta virt. eigenvalues --    0.16020   0.16418   0.21514   0.33661   0.36203

 Mulliken charges and spin densities:
               1          2
     1  C   -0.408305   0.000000
     2  S   -0.273070  -0.000000
     3  H    0.052765   0.000000
     4  H    0.211193  -0.000000
     5  H    0.208718  -0.000000
     6  H    0.208699   0.000000
 Sum of Mulliken charges =  -0.00000  -0.00000

 Dipole moment (field-independent basis, Debye):
    X=             -4.3871    Y=             -0.9489    Z=             -0.0012  Tot=              4.4885
 Quadrupole moment (field-independent basis, Debye-Ang):
   XX=            -20.6881   YY=            -19.5635   ZZ=            -23.6166
   XY=             -1.7564   XZ=             -0.0022   YZ=              0.0048

 Normal termination of Gaussian 16 at Mon Apr 21 19:36:43 2025.
