 Gaussian 16, Revision A.03,
 Gaussian 16:  ES64L-G16RevA.03 25-Dec-2016

 --------------------------------
 #p UM062X/6-311+G** Pop=NBO Read
 --------------------------------

 ------------
 NBO Analysis
 ------------
 Symbolic Z-matrix:
 Charge =  0 Multiplicity = 1

                         Standard orientation:
 ---------------------------------------------------------------------
 Center     Atomic      Atomic             Coordinates (Angstroms)
 Number     Number       Type             X           Y           Z
 ---------------------------------------------------------------------
      1          6           0        0.000000   -0.525574    0.000000
      2          8           0        0.000000    0.671048    0.000000
      3          1           0       -0.939299   -1.107469    0.000000
      4          1           0        0.939296   -1.107475    0.000000
 ---------------------------------------------------------------------

 SCF Done:  E(UM062X) =  -114.456588327     A.U. after   10 cycles

 The electronic state is 1-A'.
 Alpha  occ. eigenvalues --  -19.66719 -10.65286  -1.19758  -0.72937  -0.58336
 Alpha  occ. eigenvalues --   -0.54030  -0.47973  -0.34736
 Alpha virt. eigenvalues --   -0.01143   0.02607   0.04707   0.05269   0.07714
 Alpha virt. eigenvalues --    0.20002   0.21855   0.24561   0.24850   0.29094
 Alpha virt. eigenvalues --    0.30126   0.40829   0.68123   0.74454   0.76874

  Beta  occ. eigenvalues --  -19.66719 -10.65286  -1.19758  -0.72937  -0.58336
  Beta  occ. eigenvalues --   -0.54030  -0.47973  -0.34736
  Beta virt. eigenvalues --   -0.01143   0.02607   0.04707   0.05269   0.07714
  Beta virt. eigenvalues --    0.20002   0.21855   0.24561   0.24850   0.29094
  Beta virt. eigenvalues --    0.30126   0.40829   0.68123   0.74454   0.76874

 Mulliken charges and spin densities:
               1          2
     1  C   -0.009436   0.000000
     2  O   -0.209144  -0.000000
     3  H    0.109290   0.000000
     4  H    0.109290   0.000000
 Sum of Mulliken charges =  -0.00000  -0.00000

 Dipole moment (field-independent basis, Debye):
    X=             -0.0000    Y=             -2.4995    Z=              0.0000  Tot=              2.4995
 Quadrupole moment (field-independent basis, Debye-Ang):
   XX=            -11.6310   YY=            -12.3242   ZZ=            -11.7334
   XY=             -0.0000   XZ=              0.0000   YZ=              0.0000

 Summary of Natural Population Analysis:

                                       Natural Population
                Natural  -----------------------------------------------
    Atom  No    Charge         Core      Valence    Rydberg      Total
 -----------------------------------------------------------------------
      C    1    0.10855      0.99989     1.87439    0.01717     2.89145
      O    2   -0.25405      0.99989     3.24537    0.00878     4.25405
      H    3    0.07275      0.00000     0.42600    0.00125     0.42725
      H    4    0.07275      0.00000     0.42600    0.00125     0.42725
 =======================================================================
   * Total *   -0.00000      1.99978     5.97177    0.02845     8.00000

 Normal termination of Gaussian 16 at Wed Apr 16 02:52:34 2025.
