 Gaussian 16, Revision A.03,
 Gaussian 16:  ES64L-G16RevA.03 25-Dec-2016

 ---------------------------------------
 #p UM062X/6-311+G** force int=superfine
 ---------------------------------------

 -------------------
 Title Card Required
 -------------------
 Symbolic Z-matrix:
 Charge =  1 Multiplicity = 2

                         Standard orientation:
 ---------------------------------------------------------------------
 Center     Atomic      Atomic             Coordinates (Angstroms)
 Number     Number       Type             X           Y           Z
 ---------------------------------------------------------------------
      1          6           0        0.000000    0.000000   -0.832598
      2          6           0        0.000000    0.000000    0.832600
      3          1           0       -0.000000    0.000000   -1.927643
      4          1           0       -0.000000    0.000000    1.927630
 ---------------------------------------------------------------------

 SCF Done:  E(UM062X) =  -76.7469872848     A.U. after   10 cycles

 Unable to determine electronic state:  an orbital has unidentified symmetry.
 Alpha  occ. eigenvalues --  -10.99742 -10.99704  -1.10702  -0.99133  -0.84663
 Alpha  occ. eigenvalues --   -0.63966  -0.61830
 Alpha virt. eigenvalues --   -0.35917  -0.33921  -0.26910  -0.14210  -0.11149
 Alpha virt. eigenvalues --   -0.10630  -0.09136  -0.08899  -0.05302  -0.04984
 Alpha virt. eigenvalues --    0.01473   0.03834   0.07858   0.22423   0.31436

  Beta  occ. eigenvalues --  -10.99494 -10.99467  -1.06803  -0.97375  -0.83819
  Beta  occ. eigenvalues --   -0.59830
  Beta virt. eigenvalues --   -0.41028  -0.32205  -0.27830  -0.24781  -0.15262
  Beta virt. eigenvalues --   -0.11456  -0.11062  -0.09509  -0.09331  -0.05226
  Beta virt. eigenvalues --   -0.04919   0.00611   0.03939   0.08196   0.23171

 Mulliken charges and spin densities:
               1          2
     1  C    0.140233   0.521630
     2  C    0.140231   0.521634
     3  H    0.359771  -0.021632
     4  H    0.359765  -0.021631
 Sum of Mulliken charges =   1.00000   1.00000

 Dipole moment (field-independent basis, Debye):
    X=             -0.0000    Y=              0.0000    Z=             -0.0000  Tot=              0.0000
 Quadrupole moment (field-independent basis, Debye-Ang):
   XX=            -12.6987   YY=            -10.6273   ZZ=              2.9002
   XY=             -0.0000   XZ=              0.0000   YZ=             -0.0000

 Normal termination of Gaussian 16 at Tue Nov 19 13:37:00 2024.
