 Gaussian 16, Revision A.03,
 Gaussian 16:  ES64L-G16RevA.03 25-Dec-2016

 --------------------------------------------
 #p opt UM062X/6-311+G** nosymm int=superfine
 --------------------------------------------

 -------------------
 Title Card Required
 -------------------
 Symbolic Z-matrix:
 Charge =  0 Multiplicity = 1

 SCF Done:  E(UM062X) =  -382.336708586     A.U. after   11 cycles
 SCF Done:  E(UM062X) =  -382.343148173     A.U. after   10 cycles
 SCF Done:  E(UM062X) =  -382.345080634     A.U. after   10 cycles
 SCF Done:  E(UM062X) =  -382.345101487     A.U. after    8 cycles
 SCF Done:  E(UM062X) =  -382.345111211     A.U. after    9 cycles
 SCF Done:  E(UM062X) =  -382.345111744     A.U. after    8 cycles
 SCF Done:  E(UM062X) =  -382.345111843     A.U. after    7 cycles
 Optimization completed.
    -- Stationary point found.

                          Input orientation:
 ---------------------------------------------------------------------
 Center     Atomic      Atomic             Coordinates (Angstroms)
 Number     Number       Type             X           Y           Z
 ---------------------------------------------------------------------
      1          6           0       -1.356264    0.000000    0.000000
      2         15           0        1.356264    0.000000    0.000000
      3          1           0        1.352529   -1.418196    0.027748
      4          1           0       -1.551459    1.038403    0.231934
      5          1           0        1.352487    0.084582    1.415918
      6          1           0       -1.551416   -0.311478   -1.017386
      7          1           0       -1.565626   -0.720996    0.779021
 ---------------------------------------------------------------------

 Alpha  occ. eigenvalues --  -78.03114 -10.57252  -6.85439  -4.96968  -4.96922
 Alpha  occ. eigenvalues --   -4.96724  -0.77580  -0.69215  -0.48880  -0.48874
 Alpha  occ. eigenvalues --   -0.43526  -0.34908  -0.28637
 Alpha virt. eigenvalues --   -0.05173   0.01671   0.04007   0.04465   0.04837
 Alpha virt. eigenvalues --    0.06433   0.06761   0.07522   0.07633   0.12864
 Alpha virt. eigenvalues --    0.17533   0.18884   0.19192   0.25440   0.30156

  Beta  occ. eigenvalues --  -78.03114 -10.57252  -6.85439  -4.96968  -4.96922
  Beta  occ. eigenvalues --   -4.96724  -0.77580  -0.69215  -0.48880  -0.48874
  Beta  occ. eigenvalues --   -0.43526  -0.34908  -0.28637
  Beta virt. eigenvalues --   -0.05173   0.01671   0.04007   0.04465   0.04837
  Beta virt. eigenvalues --    0.06433   0.06761   0.07522   0.07633   0.12864
  Beta virt. eigenvalues --    0.17533   0.18884   0.19192   0.25440   0.30156

 Mulliken charges and spin densities:
               1          2
     1  C   -0.555208   0.000000
     2  P   -0.019569   0.000000
     3  H    0.013517  -0.000000
     4  H    0.182906  -0.000000
     5  H    0.013526  -0.000000
     6  H    0.182917  -0.000000
     7  H    0.181910  -0.000000
 Sum of Mulliken charges =  -0.00000   0.00000

 Dipole moment (field-independent basis, Debye):
    X=             -0.7915    Y=             -0.5128    Z=              0.5552  Tot=              1.0943
 Quadrupole moment (field-independent basis, Debye-Ang):
   XX=            -22.8476   YY=            -22.1363   ZZ=            -22.2493
   XY=             -1.0845   XZ=              1.1740   YZ=              0.7118

 Normal termination of Gaussian 16 at Mon Apr 21 19:05:02 2025.
