 Gaussian 16, Revision A.03,
 Gaussian 16:  ES64L-G16RevA.03 25-Dec-2016

 --------------------------------------------
 #p opt UM062X/6-311+G** nosymm int=superfine
 --------------------------------------------

 -------------------
 Title Card Required
 -------------------
 Symbolic Z-matrix:
 Charge =  0 Multiplicity = 1

 SCF Done:  E(UM062X) =  -582.492581763     A.U. after    9 cycles
 SCF Done:  E(UM062X) =  -582.493038611     A.U. after    8 cycles
 SCF Done:  E(UM062X) =  -582.493092101     A.U. after    7 cycles
 Optimization completed.
    -- Stationary point found.

                          Input orientation:
 ---------------------------------------------------------------------
 Center     Atomic      Atomic             Coordinates (Angstroms)
 Number     Number       Type             X           Y           Z
 ---------------------------------------------------------------------
      1         14           0       -1.444819    0.000000    0.000000
      2         14           0        1.444819    0.000000    0.000000
      3          1           0        1.917281   -1.400585   -0.000049
      4          1           0       -1.917340   -0.700134    1.213022
      5          1           0        1.917421    0.700292   -1.212898
      6          1           0        1.917343    0.700185    1.212991
      7          1           0       -1.917283    1.400584   -0.000109
      8          1           0       -1.917424   -0.700345   -1.212867
 ---------------------------------------------------------------------

 Alpha  occ. eigenvalues --  -67.00399 -67.00399  -5.55283  -5.55283  -3.86457
 Alpha  occ. eigenvalues --   -3.86450  -3.86364  -3.86364  -3.86363  -3.86363
 Alpha  occ. eigenvalues --   -0.61873  -0.59029  -0.41593  -0.41593  -0.40519
 Alpha  occ. eigenvalues --   -0.40518  -0.29667
 Alpha virt. eigenvalues --   -0.01455   0.02032   0.03025   0.03025   0.04586
 Alpha virt. eigenvalues --    0.04880   0.05605   0.05605   0.06314   0.06314
 Alpha virt. eigenvalues --    0.08488   0.09132   0.09132   0.15375   0.17616

  Beta  occ. eigenvalues --  -67.00399 -67.00399  -5.55283  -5.55283  -3.86457
  Beta  occ. eigenvalues --   -3.86450  -3.86364  -3.86364  -3.86363  -3.86363
  Beta  occ. eigenvalues --   -0.61873  -0.59029  -0.41593  -0.41593  -0.40519
  Beta  occ. eigenvalues --   -0.40518  -0.29667
  Beta virt. eigenvalues --   -0.01455   0.02032   0.03025   0.03025   0.04586
  Beta virt. eigenvalues --    0.04880   0.05605   0.05605   0.06314   0.06314
  Beta virt. eigenvalues --    0.08488   0.09132   0.09132   0.15375   0.17616

 Mulliken charges and spin densities:
               1          2
     1  Si   0.296628  -0.000000
     2  Si   0.296628   0.000000
     3  H   -0.098878  -0.000000
     4  H   -0.098875   0.000000
     5  H   -0.098875  -0.000000
     6  H   -0.098875  -0.000000
     7  H   -0.098878  -0.000000
     8  H   -0.098875   0.000000
 Sum of Mulliken charges =  -0.00000  -0.00000

 Dipole moment (field-independent basis, Debye):
    X=              0.0000    Y=              0.0000    Z=             -0.0000  Tot=              0.0000
 Quadrupole moment (field-independent basis, Debye-Ang):
   XX=            -31.3508   YY=            -31.6038   ZZ=            -31.6037
   XY=              0.0004   XZ=              0.0000   YZ=              0.0000

 Normal termination of Gaussian 16 at Mon Apr 21 20:13:58 2025.
