 Gaussian 16, Revision A.03,
 Gaussian 16:  ES64L-G16RevA.03 25-Dec-2016

 ---------------------------------------
 #p UM062X/6-311+G** force int=superfine
 ---------------------------------------

 -------------------
 Title Card Required
 -------------------
 Symbolic Z-matrix:
 Charge =  1 Multiplicity = 2

                         Standard orientation:
 ---------------------------------------------------------------------
 Center     Atomic      Atomic             Coordinates (Angstroms)
 Number     Number       Type             X           Y           Z
 ---------------------------------------------------------------------
      1          6           0        0.809078    0.886443   -1.632108
      2          6           0       -0.809080   -0.886438    1.632110
      3          1           0       -1.729373   -1.089752    1.097536
      4          1           0        0.708284   -0.026115   -2.207538
      5          1           0       -0.708491    0.025586    2.208422
      6          1           0       -0.019235   -1.627950    1.650729
      7          1           0        1.729314    1.089969   -1.097516
      8          1           0        0.019515    1.628233   -1.651640
 ---------------------------------------------------------------------

 SCF Done:  E(UM062X) =  -79.3170031651     A.U. after   10 cycles

 The electronic state is 2-A.
 Alpha  occ. eigenvalues --  -10.83378 -10.83377  -1.01955  -1.01660  -0.73024
 Alpha  occ. eigenvalues --   -0.73024  -0.72930  -0.72929  -0.47133
 Alpha virt. eigenvalues --   -0.37686  -0.12647  -0.10133  -0.09333  -0.09333
 Alpha virt. eigenvalues --   -0.06212  -0.06212  -0.04391  -0.02843   0.00093
 Alpha virt. eigenvalues --    0.00096   0.01404   0.01406   0.02572   0.08832

  Beta  occ. eigenvalues --  -10.83156 -10.83156  -0.99298  -0.99122  -0.72497
  Beta  occ. eigenvalues --   -0.72497  -0.72387  -0.72386
  Beta virt. eigenvalues --   -0.32389  -0.26666  -0.16798  -0.10763  -0.10760
  Beta virt. eigenvalues --   -0.10230  -0.06192  -0.06191  -0.05383  -0.01886
  Beta virt. eigenvalues --   -0.00109  -0.00106   0.01660   0.01663   0.02362

 Mulliken charges and spin densities:
               1          2
     1  C   -0.246990   0.557251
     2  C   -0.246989   0.557252
     3  H    0.249002  -0.019096
     4  H    0.248979  -0.019082
     5  H    0.248999  -0.019084
     6  H    0.248987  -0.019072
     7  H    0.249004  -0.019096
     8  H    0.249007  -0.019074
 Sum of Mulliken charges =   1.00000   1.00000

 Dipole moment (field-independent basis, Debye):
    X=              0.0000    Y=             -0.0000    Z=             -0.0000  Tot=              0.0001
 Quadrupole moment (field-independent basis, Debye-Ang):
   XX=             -8.0242   YY=             -7.4057   ZZ=              1.4618
   XY=              3.3882   XZ=             -6.2377   YZ=             -6.8327

 Normal termination of Gaussian 16 at Tue Nov 19 08:44:48 2024.
