 Gaussian 16, Revision A.03,
 Gaussian 16:  ES64L-G16RevA.03 25-Dec-2016

 ---------------------------------------------------
 #p UM062X/6-311+G** force int=superfine pop=saveNBO
 ---------------------------------------------------

 -------------------
 Title Card Required
 -------------------
 Symbolic Z-matrix:
 Charge =  1 Multiplicity = 2

                         Standard orientation:
 ---------------------------------------------------------------------
 Center     Atomic      Atomic             Coordinates (Angstroms)
 Number     Number       Type             X           Y           Z
 ---------------------------------------------------------------------
      1         14           0        1.376292   -0.000035   -0.000009
      2         14           0       -1.376292    0.000020    0.000019
      3          1           0       -1.574399   -0.733777   -1.255257
      4          1           0        1.573695    0.720336   -1.263160
      5          1           0       -1.574307   -0.720143    1.263186
      6          1           0       -1.573405    1.454169   -0.007846
      7          1           0        1.574431    0.733730    1.255280
      8          1           0        1.573988   -1.454101    0.007655
 ---------------------------------------------------------------------

 SCF Done:  E(UM062X) =  -582.173419044     A.U. after   11 cycles

 The electronic state is 2-A.
 Alpha  occ. eigenvalues --  -67.24204 -67.24204  -5.79126  -5.79125  -4.10865
 Alpha  occ. eigenvalues --   -4.10854  -4.10014  -4.10014  -4.10014  -4.10014
 Alpha  occ. eigenvalues --   -0.86490  -0.81110  -0.64661  -0.64659  -0.62521
 Alpha  occ. eigenvalues --   -0.62521  -0.52793
 Alpha virt. eigenvalues --   -0.21102  -0.16531  -0.12049  -0.12045  -0.11490
 Alpha virt. eigenvalues --   -0.11488  -0.11369  -0.10138  -0.09452  -0.09451
 Alpha virt. eigenvalues --   -0.06593  -0.06593  -0.06590  -0.03279   0.00451

  Beta  occ. eigenvalues --  -67.23918 -67.23918  -5.79052  -5.79050  -4.10122
  Beta  occ. eigenvalues --   -4.10113  -4.09922  -4.09922  -4.09922  -4.09922
  Beta  occ. eigenvalues --   -0.83665  -0.79414  -0.64056  -0.64055  -0.62083
  Beta  occ. eigenvalues --   -0.62082
  Beta virt. eigenvalues --   -0.34400  -0.17825  -0.15554  -0.11262  -0.11261
  Beta virt. eigenvalues --   -0.11228  -0.11224  -0.10523  -0.09871  -0.08802
  Beta virt. eigenvalues --   -0.08801  -0.06229  -0.06228  -0.03814  -0.02213

 Mulliken charges and spin densities:
               1          2
     1  Si   0.478499   0.512160
     2  Si   0.478499   0.512160
     3  H    0.007180  -0.004080
     4  H    0.007157  -0.004040
     5  H    0.007173  -0.004063
     6  H    0.007149  -0.004017
     7  H    0.007180  -0.004081
     8  H    0.007164  -0.004038
 Sum of Mulliken charges =   1.00000   1.00000

 Dipole moment (field-independent basis, Debye):
    X=             -0.0000    Y=             -0.0001    Z=              0.0001  Tot=              0.0001
 Quadrupole moment (field-independent basis, Debye-Ang):
   XX=            -12.4234   YY=            -25.5584   ZZ=            -25.5587
   XY=             -0.0006   XZ=             -0.0001   YZ=              0.0000

 Summary of Natural Population Analysis:

                                       Natural Population
                Natural  -----------------------------------------------
    Atom  No    Charge         Core      Valence    Rydberg      Total
 -----------------------------------------------------------------------
     Si    1    0.63126      4.99857     1.36128    0.00889     6.36874
     Si    2    0.63126      4.99857     1.36128    0.00889     6.36874
      H    3   -0.04377      0.00000     0.54196    0.00180     0.54377
      H    4   -0.04375      0.00000     0.54194    0.00180     0.54375
      H    5   -0.04376      0.00000     0.54195    0.00180     0.54376
      H    6   -0.04373      0.00000     0.54193    0.00180     0.54373
      H    7   -0.04377      0.00000     0.54196    0.00180     0.54377
      H    8   -0.04374      0.00000     0.54194    0.00180     0.54374
 =======================================================================
   * Total *    1.00000      9.99714     5.97425    0.02861    16.00000

 Optimization completed.
    -- Stationary point found.
 Normal termination of Gaussian 16 at Wed Apr 16 05:46:20 2025.
