 Gaussian 16, Revision A.03,
 Gaussian 16:  ES64L-G16RevA.03 25-Dec-2016

 ----------------------------------------------------------------------
 #p opt UM062X/6-311+G** nosymm int=superfine SCF=(MaxCycle=200,NoVarAc
 c,noincfock) guess=read
 ----------------------------------------------------------------------

 -------------------
 Title Card Required
 -------------------
 Symbolic Z-matrix:
 Charge =  0 Multiplicity = 1

 SCF Done:  E(UM062X) =  -151.299117147     A.U. after   34 cycles
 SCF Done:  E(UM062X) =  -151.299496169     A.U. after   29 cycles
 SCF Done:  E(UM062X) =  -151.299866250     A.U. after   31 cycles
 SCF Done:  E(UM062X) =  -151.300285371     A.U. after   18 cycles
 SCF Done:  E(UM062X) =  -151.300535527     A.U. after   19 cycles
 SCF Done:  E(UM062X) =  -151.300859509     A.U. after   18 cycles
 SCF Done:  E(UM062X) =  -151.300966677     A.U. after   18 cycles
 SCF Done:  E(UM062X) =  -151.301020253     A.U. after   19 cycles
 SCF Done:  E(UM062X) =  -151.301046683     A.U. after   27 cycles
 SCF Done:  E(UM062X) =  -151.301051673     A.U. after   22 cycles
 SCF Done:  E(UM062X) =  -151.301051958     A.U. after   16 cycles
 SCF Done:  E(UM062X) =  -151.301051979     A.U. after   16 cycles
 Optimization completed.
    -- Stationary point found.

                          Input orientation:
 ---------------------------------------------------------------------
 Center     Atomic      Atomic             Coordinates (Angstroms)
 Number     Number       Type             X           Y           Z
 ---------------------------------------------------------------------
      1          8           0       -2.036938    0.000000    0.000000
      2          8           0        2.036938    0.000000    0.000000
      3          1           0       -1.847037   -0.756501   -0.582823
      4          1           0        1.847626    0.756159    0.583455
 ---------------------------------------------------------------------

 Alpha  occ. eigenvalues --  -19.72237 -19.72236  -1.12872  -1.12745  -0.56647
 Alpha  occ. eigenvalues --   -0.56598  -0.44068  -0.43997  -0.35569
 Alpha virt. eigenvalues --   -0.27671   0.05155   0.07258   0.15286   0.15364
 Alpha virt. eigenvalues --    0.16201   0.18005   0.19265   0.19815   0.20169
 Alpha virt. eigenvalues --    0.30090   0.49383   0.50459   0.99659   1.00977

  Beta  occ. eigenvalues --  -19.72237 -19.72236  -1.12872  -1.12745  -0.56647
  Beta  occ. eigenvalues --   -0.56598  -0.44068  -0.43997  -0.35569
  Beta virt. eigenvalues --   -0.27671   0.05155   0.07258   0.15286   0.15364
  Beta virt. eigenvalues --    0.16201   0.18005   0.19265   0.19815   0.20169
  Beta virt. eigenvalues --    0.30090   0.49383   0.50459   0.99659   1.00977

 Mulliken charges and spin densities:
               1          2
     1  O   -0.266156   0.000000
     2  O   -0.266187  -0.000000
     3  H    0.266175   0.000000
     4  H    0.266169   0.000000
 Sum of Mulliken charges =  -0.00000   0.00000

 Dipole moment (field-independent basis, Debye):
    X=              0.0008    Y=             -0.0007    Z=              0.0012  Tot=              0.0016
 Quadrupole moment (field-independent basis, Debye-Ang):
   XX=            -13.8032   YY=            -10.6048   ZZ=            -11.8867
   XY=              5.6441   XZ=              4.3515   YZ=              2.4370

 Normal termination of Gaussian 16 at Tue Apr 22 01:29:58 2025.
