 Gaussian 16, Revision A.03,
 Gaussian 16:  ES64L-G16RevA.03 25-Dec-2016

 --------------------------------------------
 #p opt UM062X/6-311+G** nosymm int=superfine
 --------------------------------------------

 -------------------
 Title Card Required
 -------------------
 Symbolic Z-matrix:
 Charge =  0 Multiplicity = 1

 SCF Done:  E(UM062X) =  -581.125396289     A.U. after   10 cycles
 SCF Done:  E(UM062X) =  -581.146632965     A.U. after    9 cycles
 SCF Done:  E(UM062X) =  -581.161213182     A.U. after   10 cycles
 SCF Done:  E(UM062X) =  -581.161232221     A.U. after    9 cycles
 SCF Done:  E(UM062X) =  -581.161239716     A.U. after    9 cycles
 SCF Done:  E(UM062X) =  -581.162566603     A.U. after   11 cycles
 SCF Done:  E(UM062X) =  -581.170509504     A.U. after   12 cycles
 SCF Done:  E(UM062X) =  -581.171484722     A.U. after   13 cycles
 SCF Done:  E(UM062X) =  -581.175263356     A.U. after   11 cycles
 SCF Done:  E(UM062X) =  -581.176458231     A.U. after   12 cycles
 SCF Done:  E(UM062X) =  -581.189849771     A.U. after   11 cycles
 SCF Done:  E(UM062X) =  -581.192717801     A.U. after   11 cycles
 SCF Done:  E(UM062X) =  -581.193248164     A.U. after   11 cycles
 SCF Done:  E(UM062X) =  -581.193383845     A.U. after   10 cycles
 SCF Done:  E(UM062X) =  -581.193502870     A.U. after   10 cycles
 SCF Done:  E(UM062X) =  -581.193546226     A.U. after   10 cycles
 SCF Done:  E(UM062X) =  -581.193558117     A.U. after   10 cycles
 SCF Done:  E(UM062X) =  -581.193558512     A.U. after    8 cycles
 SCF Done:  E(UM062X) =  -581.193558587     A.U. after    8 cycles
 SCF Done:  E(UM062X) =  -581.193558604     A.U. after    6 cycles
 Optimization completed.
    -- Stationary point found.

                          Input orientation:
 ---------------------------------------------------------------------
 Center     Atomic      Atomic             Coordinates (Angstroms)
 Number     Number       Type             X           Y           Z
 ---------------------------------------------------------------------
      1         14           0       -1.712518    0.000000    0.000000
      2         14           0        1.712518    0.000000    0.000000
      3          1           0       -1.528351   -1.099376    1.030930
      4          1           0        2.721721    1.114810   -0.066718
      5          1           0       -1.528304    1.094929    1.035627
      6          1           0        2.721021   -1.114994   -0.073836
 ---------------------------------------------------------------------

 Alpha  occ. eigenvalues --  -67.04581 -66.99798  -5.59244  -5.54464  -3.90552
 Alpha  occ. eigenvalues --   -3.89977  -3.89848  -3.85691  -3.85201  -3.85072
 Alpha  occ. eigenvalues --   -0.60139  -0.55746  -0.41182  -0.36728  -0.31166
 Alpha  occ. eigenvalues --   -0.26699
 Alpha virt. eigenvalues --   -0.09967  -0.04973   0.01606   0.02753   0.03784
 Alpha virt. eigenvalues --    0.04425   0.05095   0.05834   0.06145   0.06433
 Alpha virt. eigenvalues --    0.08622   0.09341   0.11200   0.17652   0.27206

  Beta  occ. eigenvalues --  -67.04581 -66.99798  -5.59244  -5.54464  -3.90552
  Beta  occ. eigenvalues --   -3.89977  -3.89848  -3.85691  -3.85201  -3.85072
  Beta  occ. eigenvalues --   -0.60139  -0.55746  -0.41182  -0.36728  -0.31166
  Beta  occ. eigenvalues --   -0.26699
  Beta virt. eigenvalues --   -0.09967  -0.04973   0.01606   0.02753   0.03784
  Beta virt. eigenvalues --    0.04425   0.05095   0.05834   0.06145   0.06433
  Beta virt. eigenvalues --    0.08622   0.09341   0.11200   0.17652   0.27206

 Mulliken charges and spin densities:
               1          2
     1  Si   0.240081  -0.000000
     2  Si   0.309676   0.000000
     3  H   -0.154534  -0.000000
     4  H   -0.120345  -0.000000
     5  H   -0.154515   0.000000
     6  H   -0.120364  -0.000000
 Sum of Mulliken charges =  -0.00000  -0.00000

 Dipole moment (field-independent basis, Debye):
    X=              2.0077    Y=             -0.0004    Z=              0.2008  Tot=              2.0177
 Quadrupole moment (field-independent basis, Debye-Ang):
   XX=            -28.8089   YY=            -32.2574   ZZ=            -30.6783
   XY=              0.0029   XZ=             -1.2569   YZ=             -0.0071

 Normal termination of Gaussian 16 at Mon Apr 21 20:35:59 2025.
