 Gaussian 16, Revision A.03,
 Gaussian 16:  ES64L-G16RevA.03 25-Dec-2016

 --------------------------------------------
 #p opt UM062X/6-311+G** nosymm int=superfine
 --------------------------------------------

 -------------------
 Title Card Required
 -------------------
 Symbolic Z-matrix:
 Charge =  0 Multiplicity = 1

 SCF Done:  E(UM062X) =  -437.242486425     A.U. after   14 cycles
 SCF Done:  E(UM062X) =  -437.242868813     A.U. after   13 cycles
 SCF Done:  E(UM062X) =  -437.243078639     A.U. after   14 cycles
 SCF Done:  E(UM062X) =  -437.243048462     A.U. after   14 cycles
 SCF Done:  E(UM062X) =  -437.243079602     A.U. after   15 cycles
 Optimization completed.
    -- Stationary point found.

                          Input orientation:
 ---------------------------------------------------------------------
 Center     Atomic      Atomic             Coordinates (Angstroms)
 Number     Number       Type             X           Y           Z
 ---------------------------------------------------------------------
      1          6           0       -1.277140    0.000000    0.000000
      2         16           0        1.277140    0.000000    0.000000
      3          1           0       -1.798861   -0.953427    0.000147
      4          1           0       -1.799159    0.953265   -0.000043
 ---------------------------------------------------------------------

 Alpha  occ. eigenvalues --  -89.92148 -10.69571  -8.27894  -6.20212  -6.19571
 Alpha  occ. eigenvalues --   -6.19199  -0.81307  -0.72130  -0.56781  -0.37838
 Alpha  occ. eigenvalues --   -0.29388  -0.29306
 Alpha virt. eigenvalues --   -0.14407  -0.09465   0.01339   0.04928   0.05960
 Alpha virt. eigenvalues --    0.06605   0.08546   0.08581   0.09191   0.13850
 Alpha virt. eigenvalues --    0.16169   0.18763   0.35884   0.36058   0.37259

  Beta  occ. eigenvalues --  -89.92148 -10.69571  -8.27894  -6.20212  -6.19571
  Beta  occ. eigenvalues --   -6.19199  -0.81307  -0.72130  -0.56781  -0.37838
  Beta  occ. eigenvalues --   -0.29388  -0.29306
  Beta virt. eigenvalues --   -0.14407  -0.09465   0.01339   0.04928   0.05960
  Beta virt. eigenvalues --    0.06605   0.08546   0.08581   0.09191   0.13850
  Beta virt. eigenvalues --    0.16169   0.18763   0.35884   0.36058   0.37259

 Mulliken charges and spin densities:
               1          2
     1  C   -0.282532  -0.000000
     2  S   -0.130267   0.000000
     3  H    0.206400   0.000000
     4  H    0.206399   0.000000
 Sum of Mulliken charges =  -0.00000   0.00000

 Dipole moment (field-independent basis, Debye):
    X=             -3.7745    Y=             -0.0002    Z=              0.0001  Tot=              3.7745
 Quadrupole moment (field-independent basis, Debye-Ang):
   XX=            -15.0265   YY=            -21.5244   ZZ=            -22.1500
   XY=             -0.0003   XZ=              0.0000   YZ=             -0.0001

 Normal termination of Gaussian 16 at Mon Apr 21 19:43:29 2025.
