 Gaussian 16, Revision A.03,
 Gaussian 16:  ES64L-G16RevA.03 25-Dec-2016

 --------------------------------------------
 #p opt UM062X/6-311+G** nosymm int=superfine
 --------------------------------------------

 -------------------
 Title Card Required
 -------------------
 Symbolic Z-matrix:
 Charge =  0 Multiplicity = 1

 SCF Done:  E(UM062X) =  -111.645936438     A.U. after   16 cycles
 SCF Done:  E(UM062X) =  -111.659695920     A.U. after   16 cycles
 SCF Done:  E(UM062X) =  -111.667796594     A.U. after   15 cycles
 SCF Done:  E(UM062X) =  -111.669304582     A.U. after   14 cycles
 SCF Done:  E(UM062X) =  -111.670464358     A.U. after   13 cycles
 SCF Done:  E(UM062X) =  -111.671030835     A.U. after   12 cycles
 SCF Done:  E(UM062X) =  -111.671468692     A.U. after   13 cycles
 SCF Done:  E(UM062X) =  -111.671550256     A.U. after   12 cycles
 SCF Done:  E(UM062X) =  -111.671596550     A.U. after   12 cycles
 SCF Done:  E(UM062X) =  -111.671633003     A.U. after   12 cycles
 SCF Done:  E(UM062X) =  -111.671636397     A.U. after   10 cycles
 SCF Done:  E(UM062X) =  -111.671636543     A.U. after    9 cycles
 Optimization completed.
    -- Stationary point found.

                          Input orientation:
 ---------------------------------------------------------------------
 Center     Atomic      Atomic             Coordinates (Angstroms)
 Number     Number       Type             X           Y           Z
 ---------------------------------------------------------------------
      1          7           0       -1.486540    0.000000    0.000000
      2          7           0        1.486540    0.000000    0.000000
      3          1           0       -1.403871   -0.817289   -0.616989
      4          1           0        1.403848    0.413034   -0.937040
      5          1           0       -1.403786   -0.413661    0.936757
      6          1           0        1.403663    0.817677    0.616444
 ---------------------------------------------------------------------

 Alpha  occ. eigenvalues --  -14.80501 -14.80499  -0.95299  -0.94209  -0.55198
 Alpha  occ. eigenvalues --   -0.54482  -0.40952  -0.40081  -0.30802
 Alpha virt. eigenvalues --   -0.15551   0.04572   0.06661   0.08710   0.11468
 Alpha virt. eigenvalues --    0.12916   0.13901   0.15836   0.15947   0.19114
 Alpha virt. eigenvalues --    0.20160   0.26746   0.27452   0.51351   0.51552

  Beta  occ. eigenvalues --  -14.80501 -14.80499  -0.95299  -0.94209  -0.55198
  Beta  occ. eigenvalues --   -0.54482  -0.40952  -0.40081  -0.30802
  Beta virt. eigenvalues --   -0.15551   0.04572   0.06661   0.08710   0.11468
  Beta virt. eigenvalues --    0.12916   0.13901   0.15836   0.15947   0.19114
  Beta virt. eigenvalues --    0.20160   0.26746   0.27452   0.51351   0.51552

 Mulliken charges and spin densities:
               1          2
     1  N   -0.501242  -0.000000
     2  N   -0.501203   0.000000
     3  H    0.250601   0.000000
     4  H    0.250600  -0.000000
     5  H    0.250622   0.000000
     6  H    0.250622  -0.000000
 Sum of Mulliken charges =  -0.00000  -0.00000

 Dipole moment (field-independent basis, Debye):
    X=             -0.0001    Y=             -0.0003    Z=             -0.0013  Tot=              0.0013
 Quadrupole moment (field-independent basis, Debye-Ang):
   XX=            -15.8330   YY=            -14.2294   ZZ=            -11.4567
   XY=              6.3000   XZ=             -1.6390   YZ=              0.7736

 Normal termination of Gaussian 16 at Thu May 15 14:46:39 2025.
