 Gaussian 16, Revision A.03,
 Gaussian 16:  ES64L-G16RevA.03 25-Dec-2016

 --------------------------------------------
 #p opt UM062X/6-311+G** nosymm int=superfine
 --------------------------------------------

 -------------------
 Title Card Required
 -------------------
 Symbolic Z-matrix:
 Charge =  1 Multiplicity = 2

 SCF Done:  E(UM062X) =  -78.1238622268     A.U. after    9 cycles
 SCF Done:  E(UM062X) =  -78.1397501532     A.U. after    9 cycles
 SCF Done:  E(UM062X) =  -78.1425015518     A.U. after    8 cycles
 SCF Done:  E(UM062X) =  -78.1426381954     A.U. after    7 cycles
 Optimization completed.
    -- Stationary point found.

                          Input orientation:
 ---------------------------------------------------------------------
 Center     Atomic      Atomic             Coordinates (Angstroms)
 Number     Number       Type             X           Y           Z
 ---------------------------------------------------------------------
      1          6           0       -0.848270    0.000000    0.000000
      2          6           0        0.848270    0.000000    0.000000
      3          1           0       -1.356410   -0.958426    0.000000
      4          1           0       -1.356535    0.958387    0.000000
      5          1           0        1.356410    0.958426   -0.000000
      6          1           0        1.356535   -0.958387   -0.000000
 ---------------------------------------------------------------------

 Alpha  occ. eigenvalues --  -10.91264 -10.91234  -1.11441  -0.98991  -0.82223
 Alpha  occ. eigenvalues --   -0.75619  -0.73707  -0.60843
 Alpha virt. eigenvalues --   -0.33528  -0.15073  -0.14464  -0.11475  -0.08961
 Alpha virt. eigenvalues --   -0.07467  -0.07227  -0.06841  -0.04657  -0.04540
 Alpha virt. eigenvalues --   -0.01658  -0.01458   0.02882   0.09881   0.18838

  Beta  occ. eigenvalues --  -10.91038 -10.91017  -1.07985  -0.96920  -0.81436
  Beta  occ. eigenvalues --   -0.75268  -0.72538
  Beta virt. eigenvalues --   -0.38369  -0.25567  -0.16088  -0.13980  -0.11823
  Beta virt. eigenvalues --   -0.08991  -0.08160  -0.07250  -0.05478  -0.04569
  Beta virt. eigenvalues --   -0.04015  -0.01055  -0.00991   0.02383   0.10410

 Mulliken charges and spin densities:
               1          2
     1  C   -0.061420   0.539537
     2  C   -0.061420   0.539537
     3  H    0.280704  -0.019769
     4  H    0.280716  -0.019768
     5  H    0.280704  -0.019769
     6  H    0.280716  -0.019768
 Sum of Mulliken charges =   1.00000   1.00000

 Dipole moment (field-independent basis, Debye):
    X=              0.0000    Y=             -0.0000    Z=              0.0000  Tot=              0.0000
 Quadrupole moment (field-independent basis, Debye-Ang):
   XX=             -4.1167   YY=             -8.3416   ZZ=            -12.0415
   XY=             -0.0004   XZ=             -0.0000   YZ=              0.0000

 Normal termination of Gaussian 16 at Tue Nov 19 11:08:51 2024.
