 Gaussian 16, Revision A.03,
 Gaussian 16:  ES64L-G16RevA.03 25-Dec-2016

 ---------------------------------------
 #p UM062X/6-311+G** force int=superfine
 ---------------------------------------

 -------------------
 Title Card Required
 -------------------
 Symbolic Z-matrix:
 Charge =  1 Multiplicity = 2

                         Standard orientation:
 ---------------------------------------------------------------------
 Center     Atomic      Atomic             Coordinates (Angstroms)
 Number     Number       Type             X           Y           Z
 ---------------------------------------------------------------------
      1          6           0        0.429157   -0.632322    1.304976
      2          6           0       -0.429151    0.632331   -1.304972
      3          1           0        0.459300    0.289086   -1.822805
      4          1           0        0.450618   -1.626816    0.873893
      5          1           0       -0.451048    1.627074   -0.874484
      6          1           0       -1.338878    0.044284   -1.348592
      7          1           0       -0.459196   -0.288937    1.822885
      8          1           0        1.339165   -0.044743    1.349080
 ---------------------------------------------------------------------

 SCF Done:  E(UM062X) =  -79.3393683445     A.U. after   10 cycles

 The electronic state is 2-A.
 Alpha  occ. eigenvalues --  -10.85073 -10.85070  -1.04164  -1.02595  -0.74796
 Alpha  occ. eigenvalues --   -0.74795  -0.74035  -0.74035  -0.52761
 Alpha virt. eigenvalues --   -0.35288  -0.14123  -0.10301  -0.10301  -0.10148
 Alpha virt. eigenvalues --   -0.06228  -0.06228  -0.05357  -0.03242  -0.02240
 Alpha virt. eigenvalues --   -0.02238   0.01353   0.01355   0.05018   0.07624

  Beta  occ. eigenvalues --  -10.84875 -10.84875  -1.01265  -1.00198  -0.74241
  Beta  occ. eigenvalues --   -0.74241  -0.73529  -0.73529
  Beta virt. eigenvalues --   -0.32675  -0.25455  -0.15431  -0.11129  -0.11129
  Beta virt. eigenvalues --   -0.09929  -0.06442  -0.06441  -0.05504  -0.02474
  Beta virt. eigenvalues --   -0.02471  -0.02381   0.01670   0.01672   0.05948

 Mulliken charges and spin densities:
               1          2
     1  C   -0.273001   0.568310
     2  C   -0.273002   0.568311
     3  H    0.257680  -0.022783
     4  H    0.257636  -0.022777
     5  H    0.257663  -0.022778
     6  H    0.257658  -0.022750
     7  H    0.257681  -0.022783
     8  H    0.257684  -0.022751
 Sum of Mulliken charges =   1.00000   1.00000

 Dipole moment (field-independent basis, Debye):
    X=             -0.0000    Y=             -0.0001    Z=             -0.0000  Tot=              0.0001
 Quadrupole moment (field-independent basis, Debye-Ang):
   XX=            -10.1524   YY=             -9.1266   ZZ=             -2.9281
   XY=             -1.2897   XZ=              2.6622   YZ=             -3.9238

 Normal termination of Gaussian 16 at Wed Nov 13 12:58:18 2024.
