 Gaussian 16, Revision A.03,
 Gaussian 16:  ES64L-G16RevA.03 25-Dec-2016

 --------------------------------------------
 #p opt UM062X/6-311+G** nosymm int=superfine
 --------------------------------------------

 -------------------
 Title Card Required
 -------------------
 Symbolic Z-matrix:
 Charge = -1 Multiplicity = 2

 SCF Done:  E(UM062X) =  -50.5561864333     A.U. after   15 cycles
 SCF Done:  E(UM062X) =  -50.5607030448     A.U. after   16 cycles
 SCF Done:  E(UM062X) =  -50.5610239279     A.U. after   10 cycles
 Optimization completed.
    -- Stationary point found.

                          Input orientation:
 ---------------------------------------------------------------------
 Center     Atomic      Atomic             Coordinates (Angstroms)
 Number     Number       Type             X           Y           Z
 ---------------------------------------------------------------------
      1          5           0       -1.816404    0.000000    0.000000
      2          5           0        1.816404    0.000000    0.000000
      3          1           0       -3.087483   -0.000962   -0.000000
      4          1           0        3.087483    0.000962    0.000000
 ---------------------------------------------------------------------

 Alpha  occ. eigenvalues --   -6.90913  -6.90913  -0.34402  -0.34173  -0.09926
 Alpha  occ. eigenvalues --   -0.05693   0.02577
 Alpha virt. eigenvalues --    0.11039   0.12441   0.14072   0.15582   0.16255
 Alpha virt. eigenvalues --    0.21824   0.21979   0.22186   0.22692   0.23473
 Alpha virt. eigenvalues --    0.25685   0.33634   0.37504   0.51365   0.57889

  Beta  occ. eigenvalues --   -6.90833  -6.90833  -0.33352  -0.33231  -0.08791
  Beta  occ. eigenvalues --   -0.04698
  Beta virt. eigenvalues --    0.10499   0.11452   0.12540   0.13065   0.13475
  Beta virt. eigenvalues --    0.13856   0.19178   0.20229   0.20505   0.21385
  Beta virt. eigenvalues --    0.21572   0.22194   0.33428   0.37559   0.51055

 Mulliken charges and spin densities:
               1          2
     1  B   -0.406893   0.510257
     2  B   -0.406893   0.510257
     3  H   -0.093107  -0.010257
     4  H   -0.093107  -0.010257
 Sum of Mulliken charges =  -1.00000   1.00000

 Dipole moment (field-independent basis, Debye):
    X=              0.0000    Y=              0.0000    Z=             -0.0000  Tot=              0.0000
 Quadrupole moment (field-independent basis, Debye-Ang):
   XX=            -38.0195   YY=            -19.2309   ZZ=            -26.7851
   XY=             -0.0015   XZ=             -0.0000   YZ=              0.0000

 Normal termination of Gaussian 16 at Mon Apr 21 17:33:13 2025.
