 Gaussian 16, Revision A.03,
 Gaussian 16:  ES64L-G16RevA.03 25-Dec-2016

 --------------------------------------------
 #p opt UM062X/6-311+G** nosymm int=superfine
 --------------------------------------------

 -------------------
 Title Card Required
 -------------------
 Symbolic Z-matrix:
 Charge =  1 Multiplicity = 2

 SCF Done:  E(UM062X) =  -77.9763052574     A.U. after    9 cycles
 SCF Done:  E(UM062X) =  -78.0155027399     A.U. after    9 cycles
 SCF Done:  E(UM062X) =  -78.0476689836     A.U. after   10 cycles
 SCF Done:  E(UM062X) =  -78.0556057215     A.U. after    9 cycles
 SCF Done:  E(UM062X) =  -78.0562123386     A.U. after    9 cycles
 SCF Done:  E(UM062X) =  -78.0562176543     A.U. after    6 cycles
 Optimization completed.
    -- Stationary point found.

                          Input orientation:
 ---------------------------------------------------------------------
 Center     Atomic      Atomic             Coordinates (Angstroms)
 Number     Number       Type             X           Y           Z
 ---------------------------------------------------------------------
      1          6           0       -1.024993    0.000000    0.000000
      2          6           0        1.024993    0.000000    0.000000
      3          1           0       -1.483433   -0.983265   -0.000000
      4          1           0       -1.483409    0.983307   -0.000000
      5          1           0        1.483433    0.983265    0.000000
      6          1           0        1.483409   -0.983307    0.000000
 ---------------------------------------------------------------------

 Alpha  occ. eigenvalues --  -10.92226 -10.92212  -1.06625  -1.00114  -0.80667
 Alpha  occ. eigenvalues --   -0.77554  -0.66909  -0.56147
 Alpha virt. eigenvalues --   -0.36598  -0.24707  -0.14108  -0.11019  -0.10124
 Alpha virt. eigenvalues --   -0.08371  -0.07476  -0.07169  -0.04755  -0.04120
 Alpha virt. eigenvalues --   -0.02801  -0.00494   0.02102   0.09351   0.17953

  Beta  occ. eigenvalues --  -10.91990 -10.91981  -1.03552  -0.97877  -0.80137
  Beta  occ. eigenvalues --   -0.77200  -0.65350
  Beta virt. eigenvalues --   -0.35343  -0.27854  -0.22334  -0.15425  -0.11346
  Beta virt. eigenvalues --   -0.10181  -0.07827  -0.07572  -0.07381  -0.04187
  Beta virt. eigenvalues --   -0.03904  -0.02331   0.00078   0.01285   0.10093

 Mulliken charges and spin densities:
               1          2
     1  C   -0.067380   0.541280
     2  C   -0.067381   0.541281
     3  H    0.283689  -0.020640
     4  H    0.283691  -0.020641
     5  H    0.283689  -0.020640
     6  H    0.283691  -0.020641
 Sum of Mulliken charges =   1.00000   1.00000

 Dipole moment (field-independent basis, Debye):
    X=             -0.0000    Y=             -0.0000    Z=              0.0000  Tot=              0.0000
 Quadrupole moment (field-independent basis, Debye-Ang):
   XX=             -1.8799   YY=             -8.1288   ZZ=            -12.5316
   XY=             -0.0000   XZ=              0.0000   YZ=              0.0000

 Normal termination of Gaussian 16 at Tue Nov 19 11:22:31 2024.
