 Gaussian 16, Revision A.03,
 Gaussian 16:  ES64L-G16RevA.03 25-Dec-2016

 --------------------------------------------
 #p opt UM062X/6-311+G** nosymm int=superfine
 --------------------------------------------

 -------------------
 Title Card Required
 -------------------
 Symbolic Z-matrix:
 Charge =  0 Multiplicity = 1

 SCF Done:  E(UM062X) =  -78.0354790385     A.U. after    9 cycles
 SCF Done:  E(UM062X) =  -78.0801424808     A.U. after    8 cycles
 SCF Done:  E(UM062X) =  -78.1123964627     A.U. after    8 cycles
 SCF Done:  E(UM062X) =  -78.1135446035     A.U. after    7 cycles
 SCF Done:  E(UM062X) =  -78.1136190515     A.U. after    7 cycles
 Optimization completed.
    -- Stationary point found.

                          Input orientation:
 ---------------------------------------------------------------------
 Center     Atomic      Atomic             Coordinates (Angstroms)
 Number     Number       Type             X           Y           Z
 ---------------------------------------------------------------------
      1          6           0       -0.457382    0.000000    0.000000
      2          6           0        0.457382    0.000000    0.000000
      3          1           0       -1.125002   -0.875612    0.000000
      4          1           0       -1.125058    0.875470   -0.000000
      5          1           0        1.125002    0.875612   -0.000000
      6          1           0        1.125058   -0.875470    0.000000
 ---------------------------------------------------------------------

 Alpha  occ. eigenvalues --  -10.49428 -10.46648  -0.95217  -0.62010  -0.59614
 Alpha  occ. eigenvalues --   -0.53470  -0.44802  -0.32663
 Alpha virt. eigenvalues --    0.03224   0.04020   0.04263   0.06433   0.07505
 Alpha virt. eigenvalues --    0.08985   0.09849   0.16085   0.17091   0.18432
 Alpha virt. eigenvalues --    0.21112   0.25141   0.35202   0.42432   0.42616

  Beta  occ. eigenvalues --  -10.49428 -10.46648  -0.95217  -0.62010  -0.59614
  Beta  occ. eigenvalues --   -0.53470  -0.44802  -0.32663
  Beta virt. eigenvalues --    0.03224   0.04020   0.04263   0.06433   0.07505
  Beta virt. eigenvalues --    0.08985   0.09849   0.16085   0.17091   0.18432
  Beta virt. eigenvalues --    0.21112   0.25141   0.35202   0.42432   0.42616

 Mulliken charges and spin densities:
               1          2
     1  C   -0.249674   0.000000
     2  C   -0.249674  -0.000000
     3  H    0.124826   0.000000
     4  H    0.124848   0.000000
     5  H    0.124826  -0.000000
     6  H    0.124848  -0.000000
 Sum of Mulliken charges =  -0.00000   0.00000

 Dipole moment (field-independent basis, Debye):
    X=             -0.0000    Y=              0.0000    Z=             -0.0000  Tot=              0.0000
 Quadrupole moment (field-independent basis, Debye-Ang):
   XX=            -12.5723   YY=            -12.4283   ZZ=            -13.9244
   XY=             -0.0003   XZ=             -0.0000   YZ=             -0.0000

 Normal termination of Gaussian 16 at Tue Nov 19 10:22:13 2024.
