 Gaussian 16, Revision A.03,
 Gaussian 16:  ES64L-G16RevA.03 25-Dec-2016

 ---------------------------------------------------------
 #p opt UM062X/6-311+G** nosymm int=superfine SCF=NoVarAcc
 ---------------------------------------------------------

 -------------------
 Title Card Required
 -------------------
 Symbolic Z-matrix:
 Charge =  1 Multiplicity = 2

 SCF Done:  E(UM062X) =  -77.8977929409     A.U. after   10 cycles
 SCF Done:  E(UM062X) =  -77.9017412437     A.U. after    9 cycles
 SCF Done:  E(UM062X) =  -77.9043424784     A.U. after   10 cycles
 SCF Done:  E(UM062X) =  -77.9043459157     A.U. after    8 cycles
 Optimization completed.
    -- Stationary point found.

                          Input orientation:
 ---------------------------------------------------------------------
 Center     Atomic      Atomic             Coordinates (Angstroms)
 Number     Number       Type             X           Y           Z
 ---------------------------------------------------------------------
      1          6           0       -2.131027    0.000000    0.000000
      2          6           0        2.131027    0.000000    0.000000
      3          1           0       -2.690302   -0.942510   -0.000000
      4          1           0       -2.690244    0.942544   -0.000000
      5          1           0        2.690302    0.942510   -0.000000
      6          1           0        2.690244   -0.942544   -0.000000
 ---------------------------------------------------------------------

 Alpha  occ. eigenvalues --  -10.88152 -10.88152  -0.99507  -0.99476  -0.74187
 Alpha  occ. eigenvalues --   -0.74169  -0.57539  -0.56703
 Alpha virt. eigenvalues --   -0.31373  -0.31151  -0.12489  -0.10750  -0.08784
 Alpha virt. eigenvalues --   -0.06888  -0.06233  -0.05904  -0.04081  -0.01276
 Alpha virt. eigenvalues --   -0.00106   0.00563   0.02389   0.05014   0.27594

  Beta  occ. eigenvalues --  -10.87376 -10.87375  -0.97340  -0.97204  -0.73163
  Beta  occ. eigenvalues --   -0.73138  -0.45858
  Beta virt. eigenvalues --   -0.36589  -0.29597  -0.29305  -0.12249  -0.10892
  Beta virt. eigenvalues --   -0.08621  -0.06711  -0.06387  -0.04393  -0.04087
  Beta virt. eigenvalues --   -0.01096   0.00649   0.00899   0.02507   0.05717

 Mulliken charges and spin densities:
               1          2
     1  C    0.025069   0.486168
     2  C    0.025069   0.486168
     3  H    0.237466   0.006916
     4  H    0.237465   0.006916
     5  H    0.237466   0.006916
     6  H    0.237465   0.006916
 Sum of Mulliken charges =   1.00000   1.00000

 Dipole moment (field-independent basis, Debye):
    X=             -0.0000    Y=              0.0000    Z=             -0.0000  Tot=              0.0000
 Quadrupole moment (field-independent basis, Debye-Ang):
   XX=             23.5832   YY=             -9.4486   ZZ=            -10.7312
   XY=             -0.0001   XZ=             -0.0000   YZ=             -0.0000

 Normal termination of Gaussian 16 at Tue Dec  3 13:35:26 2024.
