 Gaussian 16, Revision A.03,
 Gaussian 16:  ES64L-G16RevA.03 25-Dec-2016

 --------------------------------------------
 #p opt UM062X/6-311+G** nosymm int=superfine
 --------------------------------------------

 -------------------
 Title Card Required
 -------------------
 Symbolic Z-matrix:
 Charge =  0 Multiplicity = 1

 SCF Done:  E(UM062X) =  -83.1226503991     A.U. after   10 cycles
 SCF Done:  E(UM062X) =  -83.1381652636     A.U. after    9 cycles
 SCF Done:  E(UM062X) =  -83.1415518963     A.U. after    9 cycles
 SCF Done:  E(UM062X) =  -83.1415758058     A.U. after    7 cycles
 Optimization completed.
    -- Stationary point found.

                          Input orientation:
 ---------------------------------------------------------------------
 Center     Atomic      Atomic             Coordinates (Angstroms)
 Number     Number       Type             X           Y           Z
 ---------------------------------------------------------------------
      1          5           0       -1.852429    0.000000    0.000000
      2          7           0        1.852429    0.000000    0.000000
      3          1           0        2.216422   -0.945308    0.000005
      4          1           0       -1.866767   -0.593969    1.028762
      5          1           0        2.216314    0.472702   -0.818684
      6          1           0        2.216301    0.472706    0.818688
      7          1           0       -1.866752    1.187918    0.000010
      8          1           0       -1.866784   -0.593955   -1.028770
 ---------------------------------------------------------------------

 Alpha  occ. eigenvalues --  -14.73020  -7.04112  -0.96263  -0.57323  -0.54095
 Alpha  occ. eigenvalues --   -0.54095  -0.39751  -0.39751  -0.34390
 Alpha virt. eigenvalues --   -0.01940   0.02485   0.04792   0.04792   0.05228
 Alpha virt. eigenvalues --    0.08494   0.10781   0.10781   0.17578   0.17848
 Alpha virt. eigenvalues --    0.17848   0.19311   0.19311   0.22796   0.27476

  Beta  occ. eigenvalues --  -14.73020  -7.04112  -0.96263  -0.57323  -0.54095
  Beta  occ. eigenvalues --   -0.54095  -0.39751  -0.39751  -0.34390
  Beta virt. eigenvalues --   -0.01940   0.02485   0.04792   0.04792   0.05228
  Beta virt. eigenvalues --    0.08494   0.10781   0.10781   0.17578   0.17848
  Beta virt. eigenvalues --    0.17848   0.19311   0.19311   0.22796   0.27476

 Mulliken charges and spin densities:
               1          2
     1  B    0.017354   0.000000
     2  N   -0.731755   0.000000
     3  H    0.246155  -0.000000
     4  H   -0.008023  -0.000000
     5  H    0.246155  -0.000000
     6  H    0.246155   0.000000
     7  H   -0.008019  -0.000000
     8  H   -0.008023   0.000000
 Sum of Mulliken charges =   0.00000   0.00000

 Dipole moment (field-independent basis, Debye):
    X=              1.9902    Y=              0.0002    Z=              0.0000  Tot=              1.9902
 Quadrupole moment (field-independent basis, Debye-Ang):
   XX=            -10.3425   YY=            -15.6595   ZZ=            -15.6596
   XY=              0.0000   XZ=             -0.0000   YZ=              0.0000

 Normal termination of Gaussian 16 at Mon Apr 21 17:35:07 2025.
