 Gaussian 16, Revision A.03,
 Gaussian 16:  ES64L-G16RevA.03 25-Dec-2016

 ---------------------------------------------------
 #p UM062X/6-311+G** force int=superfine pop=saveNBO
 ---------------------------------------------------

 -------------------
 Title Card Required
 -------------------
 Symbolic Z-matrix:
 Charge =  0 Multiplicity = 1

                         Standard orientation:
 ---------------------------------------------------------------------
 Center     Atomic      Atomic             Coordinates (Angstroms)
 Number     Number       Type             X           Y           Z
 ---------------------------------------------------------------------
      1          5           0       -0.797146    0.196640    0.433655
      2          7           0        0.623557   -0.153817   -0.339221
      3          1           0        0.505229   -0.124629   -1.348440
      4          1           0       -1.568507   -0.653619    0.062021
      5          1           0        1.347819    0.514292   -0.089320
      6          1           0        0.954008   -1.082107   -0.089313
      7          1           0       -0.533113    0.131489    1.609281
      8          1           0       -1.084604    1.308090    0.062045
 ---------------------------------------------------------------------

 SCF Done:  E(UM062X) =  -83.1893505030     A.U. after   10 cycles

 The electronic state is 1-A.
 Alpha  occ. eigenvalues --  -14.82294  -6.96422  -1.05685  -0.62403  -0.62402
 Alpha  occ. eigenvalues --   -0.59309  -0.42104  -0.33426  -0.33426
 Alpha virt. eigenvalues --   -0.01495   0.04115   0.04115   0.05163   0.08343
 Alpha virt. eigenvalues --    0.11015   0.11015   0.14137   0.15037   0.15037
 Alpha virt. eigenvalues --    0.21180   0.21180   0.21510   0.26439   0.31856

  Beta  occ. eigenvalues --  -14.82294  -6.96422  -1.05685  -0.62403  -0.62402
  Beta  occ. eigenvalues --   -0.59309  -0.42104  -0.33426  -0.33426
  Beta virt. eigenvalues --   -0.01495   0.04115   0.04115   0.05163   0.08343
  Beta virt. eigenvalues --    0.11015   0.11015   0.14137   0.15037   0.15037
  Beta virt. eigenvalues --    0.21180   0.21180   0.21510   0.26439   0.31856

 Mulliken charges and spin densities:
               1          2
     1  B   -0.236501   0.000000
     2  N   -0.539921  -0.000000
     3  H    0.308736  -0.000000
     4  H   -0.049930  -0.000000
     5  H    0.308736  -0.000000
     6  H    0.308738   0.000000
     7  H   -0.049930   0.000000
     8  H   -0.049928  -0.000000
 Sum of Mulliken charges =  -0.00000  -0.00000

 Dipole moment (field-independent basis, Debye):
    X=              4.6447    Y=             -1.1457    Z=             -2.5268  Tot=              5.4103
 Quadrupole moment (field-independent basis, Debye-Ang):
   XX=            -16.5513   YY=            -16.2214   ZZ=            -16.3040
   XY=              0.0866   XZ=              0.1911   YZ=             -0.0472

 Summary of Natural Population Analysis:

                                       Natural Population
                Natural  -----------------------------------------------
    Atom  No    Charge         Core      Valence    Rydberg      Total
 -----------------------------------------------------------------------
      B    1   -0.08662      0.99974     1.58323    0.00364     2.58662
      N    2   -0.42569      0.99982     2.92125    0.00461     3.92569
      H    3    0.20070      0.00000     0.29850    0.00081     0.29930
      H    4   -0.02993      0.00000     0.52924    0.00069     0.52993
      H    5    0.20070      0.00000     0.29850    0.00081     0.29930
      H    6    0.20070      0.00000     0.29850    0.00081     0.29930
      H    7   -0.02993      0.00000     0.52924    0.00069     0.52993
      H    8   -0.02993      0.00000     0.52924    0.00069     0.52993
 =======================================================================
   * Total *   -0.00000      1.99956     6.98769    0.01275     9.00000

 Optimization completed.
    -- Stationary point found.

 1\1\GINC-NODE01\Force\UM062X\6-311+G(d,p)\B1H6N1\SZHAO\16-Apr-2025\0\\
 #p UM062X/6-311+G** force int=superfine pop=saveNBO\\Title Card Requir
 ed\\0,1\B,-0.82742901,0.,0.\N,0.82742901,0.,0.\H,1.19100326,-0.9493097
 4,0.\H,-1.13601625,-0.5832767,1.01025442\H,1.19101024,0.4746536,-0.822
 12465\H,1.19099553,0.47465285,0.82213036\H,-1.13601637,1.16654475,0.00
 002019\H,-1.1360354,-0.58325811,-1.01025675\\Version=ES64L-G16RevA.03\
 State=1-A\HF=-83.1893505\S2=0.\S2-1=0.\S2A=0.\RMSD=1.346e-09\RMSF=8.35
 4e-05\Dipole=2.12856,-0.0000053,-0.000004\Quadrupole=-0.2362157,0.1180

 Normal termination of Gaussian 16 at Wed Apr 16 01:09:30 2025.
