 Gaussian 16, Revision A.03,
 Gaussian 16:  ES64L-G16RevA.03 25-Dec-2016

 --------------------------------------------
 #p opt UM062X/6-311+G** nosymm int=superfine
 --------------------------------------------

 -------------------
 Title Card Required
 -------------------
 Symbolic Z-matrix:
 Charge =  0 Multiplicity = 1

 SCF Done:  E(UM062X) =  -151.351430071     A.U. after   20 cycles
 SCF Done:  E(UM062X) =  -151.354016456     A.U. after   20 cycles
 SCF Done:  E(UM062X) =  -151.357467357     A.U. after   20 cycles
 SCF Done:  E(UM062X) =  -151.358023691     A.U. after   21 cycles
 SCF Done:  E(UM062X) =  -151.358108399     A.U. after   21 cycles
 SCF Done:  E(UM062X) =  -151.358113583     A.U. after   16 cycles
 SCF Done:  E(UM062X) =  -151.358113722     A.U. after   15 cycles
 Optimization completed.
    -- Stationary point found.

                          Input orientation:
 ---------------------------------------------------------------------
 Center     Atomic      Atomic             Coordinates (Angstroms)
 Number     Number       Type             X           Y           Z
 ---------------------------------------------------------------------
      1          8           0       -1.386938    0.000000    0.000000
      2          8           0        1.386938    0.000000    0.000000
      3          1           0       -1.215594   -0.770398   -0.570771
      4          1           0        1.215555    0.770344    0.570832
 ---------------------------------------------------------------------

 Alpha  occ. eigenvalues --  -19.72739 -19.72737  -1.13397  -1.12321  -0.57167
 Alpha  occ. eigenvalues --   -0.56298  -0.44581  -0.43669  -0.39209
 Alpha virt. eigenvalues --   -0.23961   0.05424   0.08698   0.14713   0.15298
 Alpha virt. eigenvalues --    0.17669   0.19187   0.20987   0.21865   0.24219
 Alpha virt. eigenvalues --    0.32042   0.48750   0.52894   0.94503   0.98976

  Beta  occ. eigenvalues --  -19.72739 -19.72737  -1.13397  -1.12321  -0.57167
  Beta  occ. eigenvalues --   -0.56298  -0.44581  -0.43669  -0.39209
  Beta virt. eigenvalues --   -0.23961   0.05424   0.08698   0.14713   0.15298
  Beta virt. eigenvalues --    0.17669   0.19187   0.20987   0.21865   0.24219
  Beta virt. eigenvalues --    0.32042   0.48750   0.52894   0.94503   0.98976

 Mulliken charges and spin densities:
               1          2
     1  O   -0.270487   0.000000
     2  O   -0.270482  -0.000000
     3  H    0.270484  -0.000000
     4  H    0.270485   0.000000
 Sum of Mulliken charges =  -0.00000   0.00000

 Dipole moment (field-independent basis, Debye):
    X=             -0.0000    Y=             -0.0001    Z=              0.0001  Tot=              0.0002
 Quadrupole moment (field-independent basis, Debye-Ang):
   XX=            -12.4713   YY=            -10.4260   ZZ=            -11.9121
   XY=              3.8802   XZ=              2.8750   YZ=              2.4415

 Normal termination of Gaussian 16 at Mon Apr 21 21:36:06 2025.
