 Gaussian 16, Revision A.03,
 Gaussian 16:  ES64L-G16RevA.03 25-Dec-2016

 -------------------------------------------------------------------
 #p opt UM062X/6-311+G** nosymm int=superfine SCF=NoVarAcc SCF=tight
 -------------------------------------------------------------------

 -------------------
 Title Card Required
 -------------------
 Symbolic Z-matrix:
 Charge =  1 Multiplicity = 2

 SCF Done:  E(UM062X) =  -79.3156215953     A.U. after   23 cycles
 SCF Done:  E(UM062X) =  -79.3157022450     A.U. after    9 cycles
 SCF Done:  E(UM062X) =  -79.3157262231     A.U. after    9 cycles
 SCF Done:  E(UM062X) =  -79.3157389214     A.U. after    9 cycles
 SCF Done:  E(UM062X) =  -79.3157397025     A.U. after    8 cycles
 Optimization completed.
    -- Stationary point found.

                          Input orientation:
 ---------------------------------------------------------------------
 Center     Atomic      Atomic             Coordinates (Angstroms)
 Number     Number       Type             X           Y           Z
 ---------------------------------------------------------------------
      1          6           0       -7.782675    0.000000    0.000000
      2          6           0        7.782675    0.000000    0.000000
      3          1           0        7.782821   -0.936691    0.542416
      4          1           0       -7.783681   -0.937671   -0.540724
      5          1           0        7.785838    0.938099    0.539968
      6          1           0        7.784592   -0.001409   -1.082405
      7          1           0       -7.785358    0.937142   -0.541617
      8          1           0       -7.784168    0.000383    1.082407
 ---------------------------------------------------------------------

 Alpha  occ. eigenvalues --  -10.78483 -10.78483  -0.97249  -0.97246  -0.68497
 Alpha  occ. eigenvalues --   -0.68496  -0.68495  -0.68494  -0.38680
 Alpha virt. eigenvalues --   -0.36836  -0.08177  -0.08175  -0.04684  -0.04684
 Alpha virt. eigenvalues --   -0.04684  -0.04683  -0.02609  -0.02609   0.04792
 Alpha virt. eigenvalues --    0.04793   0.04793   0.04794   0.04880   0.04882

  Beta  occ. eigenvalues --  -10.78240 -10.78240  -0.94579  -0.94579  -0.67923
  Beta  occ. eigenvalues --   -0.67921  -0.67921  -0.67920
  Beta virt. eigenvalues --   -0.23528  -0.23528  -0.08722  -0.08722  -0.04317
  Beta virt. eigenvalues --   -0.04316  -0.04316  -0.04316  -0.00655  -0.00655
  Beta virt. eigenvalues --    0.05088   0.05089   0.05089   0.05091   0.06335

 Mulliken charges and spin densities:
               1          2
     1  C   -0.190912   0.566901
     2  C   -0.190912   0.566901
     3  H    0.230301  -0.022300
     4  H    0.230300  -0.022301
     5  H    0.230307  -0.022300
     6  H    0.230304  -0.022301
     7  H    0.230310  -0.022300
     8  H    0.230301  -0.022301
 Sum of Mulliken charges =   1.00000   1.00000

 Dipole moment (field-independent basis, Debye):
    X=              0.0000    Y=             -0.0001    Z=              0.0000  Tot=              0.0001
 Quadrupole moment (field-independent basis, Debye-Ang):
   XX=            277.4037   YY=            -11.1277   ZZ=            -11.1280
   XY=              0.0017   XZ=             -0.0003   YZ=             -0.0003

 Normal termination of Gaussian 16 at Tue Dec  3 16:15:50 2024.
 Gaussian 16, Revision A.03,
 Gaussian 16:  ES64L-G16RevA.03 25-Dec-2016

 -------------------------------------------------------------------
 #p opt UM062X/6-311+G** nosymm int=superfine SCF=NoVarAcc SCF=tight
 -------------------------------------------------------------------

 -------------------
 Title Card Required
 -------------------
 Symbolic Z-matrix:
 Charge =  1 Multiplicity = 2

 SCF Done:  E(UM062X) =  -79.3158437876     A.U. after   23 cycles
 SCF Done:  E(UM062X) =  -79.3159262080     A.U. after    9 cycles
 SCF Done:  E(UM062X) =  -79.3159507493     A.U. after    9 cycles
 SCF Done:  E(UM062X) =  -79.3159637288     A.U. after    9 cycles
 SCF Done:  E(UM062X) =  -79.3159645305     A.U. after    8 cycles
 Optimization completed.
    -- Stationary point found.

                          Input orientation:
 ---------------------------------------------------------------------
 Center     Atomic      Atomic             Coordinates (Angstroms)
 Number     Number       Type             X           Y           Z
 ---------------------------------------------------------------------
      1          6           0       -8.282675    0.000000    0.000000
      2          6           0        8.282675    0.000000    0.000000
      3          1           0        8.282592   -0.936691    0.542409
      4          1           0       -8.283483   -0.937672   -0.540716
      5          1           0        8.285651    0.938094    0.539972
      6          1           0        8.284404   -0.001403   -1.082402
      7          1           0       -8.285167    0.937134   -0.541626
      8          1           0       -8.283956    0.000399    1.082404
 ---------------------------------------------------------------------

 Alpha  occ. eigenvalues --  -10.78382 -10.78382  -0.97147  -0.97145  -0.68396
 Alpha  occ. eigenvalues --   -0.68394  -0.68394  -0.68393  -0.38522
 Alpha virt. eigenvalues --   -0.36791  -0.08074  -0.08072  -0.04584  -0.04584
 Alpha virt. eigenvalues --   -0.04584  -0.04584  -0.02504  -0.02504   0.04892
 Alpha virt. eigenvalues --    0.04893   0.04893   0.04894   0.04982   0.04984

  Beta  occ. eigenvalues --  -10.78139 -10.78139  -0.94478  -0.94478  -0.67821
  Beta  occ. eigenvalues --   -0.67820  -0.67820  -0.67819
  Beta virt. eigenvalues --   -0.23425  -0.23425  -0.08620  -0.08620  -0.04217
  Beta virt. eigenvalues --   -0.04217  -0.04217  -0.04217  -0.00550  -0.00550
  Beta virt. eigenvalues --    0.05188   0.05189   0.05190   0.05191   0.06437

 Mulliken charges and spin densities:
               1          2
     1  C   -0.190833   0.566903
     2  C   -0.190833   0.566903
     3  H    0.230275  -0.022301
     4  H    0.230274  -0.022301
     5  H    0.230281  -0.022301
     6  H    0.230277  -0.022302
     7  H    0.230284  -0.022300
     8  H    0.230275  -0.022302
 Sum of Mulliken charges =   1.00000   1.00000

 Dipole moment (field-independent basis, Debye):
    X=              0.0000    Y=             -0.0001    Z=              0.0000  Tot=              0.0001
 Quadrupole moment (field-independent basis, Debye-Ang):
   XX=            315.9558   YY=            -11.1278   ZZ=            -11.1282
   XY=              0.0017   XZ=             -0.0003   YZ=             -0.0003

 Normal termination of Gaussian 16 at Tue Dec  3 16:16:19 2024.
 Gaussian 16, Revision A.03,
 Gaussian 16:  ES64L-G16RevA.03 25-Dec-2016

 -------------------------------------------------------------------
 #p opt UM062X/6-311+G** nosymm int=superfine SCF=NoVarAcc SCF=tight
 -------------------------------------------------------------------

 -------------------
 Title Card Required
 -------------------
 Symbolic Z-matrix:
 Charge =  1 Multiplicity = 2

 SCF Done:  E(UM062X) =  -79.3160419562     A.U. after   32 cycles
 SCF Done:  E(UM062X) =  -79.3161258732     A.U. after    9 cycles
 SCF Done:  E(UM062X) =  -79.3161508919     A.U. after    9 cycles
 SCF Done:  E(UM062X) =  -79.3161641090     A.U. after    9 cycles
 SCF Done:  E(UM062X) =  -79.3161649282     A.U. after    8 cycles
 Optimization completed.
    -- Stationary point found.

                          Input orientation:
 ---------------------------------------------------------------------
 Center     Atomic      Atomic             Coordinates (Angstroms)
 Number     Number       Type             X           Y           Z
 ---------------------------------------------------------------------
      1          6           0       -8.782675    0.000000    0.000000
      2          6           0        8.782675    0.000000    0.000000
      3          1           0        8.782400   -0.936692    0.542402
      4          1           0       -8.783319   -0.937675   -0.540707
      5          1           0        8.785495    0.938089    0.539976
      6          1           0        8.784247   -0.001396   -1.082400
      7          1           0       -8.785008    0.937126   -0.541636
      8          1           0       -8.783778    0.000416    1.082401
 ---------------------------------------------------------------------

 Alpha  occ. eigenvalues --  -10.78292 -10.78292  -0.97057  -0.97055  -0.68306
 Alpha  occ. eigenvalues --   -0.68305  -0.68304  -0.68303  -0.38382
 Alpha virt. eigenvalues --   -0.36750  -0.07982  -0.07981  -0.04496  -0.04495
 Alpha virt. eigenvalues --   -0.04495  -0.04495  -0.02411  -0.02411   0.04981
 Alpha virt. eigenvalues --    0.04982   0.04983   0.04984   0.05073   0.05074

  Beta  occ. eigenvalues --  -10.78049 -10.78049  -0.94388  -0.94388  -0.67731
  Beta  occ. eigenvalues --   -0.67730  -0.67730  -0.67729
  Beta virt. eigenvalues --   -0.23334  -0.23334  -0.08529  -0.08529  -0.04129
  Beta virt. eigenvalues --   -0.04129  -0.04129  -0.04129  -0.00457  -0.00457
  Beta virt. eigenvalues --    0.05277   0.05278   0.05279   0.05280   0.06527

 Mulliken charges and spin densities:
               1          2
     1  C   -0.190770   0.566905
     2  C   -0.190771   0.566905
     3  H    0.230255  -0.022301
     4  H    0.230253  -0.022302
     5  H    0.230260  -0.022301
     6  H    0.230257  -0.022302
     7  H    0.230263  -0.022301
     8  H    0.230255  -0.022302
 Sum of Mulliken charges =   1.00000   1.00000

 Dipole moment (field-independent basis, Debye):
    X=              0.0000    Y=             -0.0001    Z=              0.0000  Tot=              0.0001
 Quadrupole moment (field-independent basis, Debye-Ang):
   XX=            356.9128   YY=            -11.1279   ZZ=            -11.1283
   XY=              0.0018   XZ=             -0.0003   YZ=             -0.0003

 Normal termination of Gaussian 16 at Tue Dec  3 16:16:49 2024.
 Gaussian 16, Revision A.03,
 Gaussian 16:  ES64L-G16RevA.03 25-Dec-2016

 -------------------------------------------------------------------
 #p opt UM062X/6-311+G** nosymm int=superfine SCF=NoVarAcc SCF=tight
 -------------------------------------------------------------------

 -------------------
 Title Card Required
 -------------------
 Symbolic Z-matrix:
 Charge =  1 Multiplicity = 2

 SCF Done:  E(UM062X) =  -79.3162197335     A.U. after   28 cycles
 SCF Done:  E(UM062X) =  -79.3163049257     A.U. after    9 cycles
 SCF Done:  E(UM062X) =  -79.3163303516     A.U. after   10 cycles
 SCF Done:  E(UM062X) =  -79.3163437712     A.U. after    9 cycles
 SCF Done:  E(UM062X) =  -79.3163446054     A.U. after    8 cycles
 Optimization completed.
    -- Stationary point found.

                          Input orientation:
 ---------------------------------------------------------------------
 Center     Atomic      Atomic             Coordinates (Angstroms)
 Number     Number       Type             X           Y           Z
 ---------------------------------------------------------------------
      1          6           0       -9.282675    0.000000    0.000000
      2          6           0        9.282675    0.000000    0.000000
      3          1           0        9.282238   -0.936693    0.542396
      4          1           0       -9.283179   -0.937678   -0.540698
      5          1           0        9.285363    0.938085    0.539980
      6          1           0        9.284114   -0.001390   -1.082398
      7          1           0       -9.284874    0.937118   -0.541647
      8          1           0       -9.283627    0.000433    1.082399
 ---------------------------------------------------------------------

 Alpha  occ. eigenvalues --  -10.78211 -10.78211  -0.96976  -0.96975  -0.68225
 Alpha  occ. eigenvalues --   -0.68224  -0.68224  -0.68223  -0.38257
 Alpha virt. eigenvalues --   -0.36713  -0.07901  -0.07900  -0.04416  -0.04416
 Alpha virt. eigenvalues --   -0.04416  -0.04416  -0.02328  -0.02328   0.05061
 Alpha virt. eigenvalues --    0.05062   0.05062   0.05063   0.05154   0.05155

  Beta  occ. eigenvalues --  -10.77968 -10.77968  -0.94307  -0.94307  -0.67651
  Beta  occ. eigenvalues --   -0.67650  -0.67650  -0.67649
  Beta virt. eigenvalues --   -0.23253  -0.23253  -0.08448  -0.08448  -0.04050
  Beta virt. eigenvalues --   -0.04050  -0.04050  -0.04050  -0.00374  -0.00374
  Beta virt. eigenvalues --    0.05357   0.05358   0.05358   0.05359   0.06608

 Mulliken charges and spin densities:
               1          2
     1  C   -0.190721   0.566906
     2  C   -0.190722   0.566906
     3  H    0.230239  -0.022302
     4  H    0.230237  -0.022302
     5  H    0.230243  -0.022302
     6  H    0.230240  -0.022302
     7  H    0.230246  -0.022301
     8  H    0.230238  -0.022303
 Sum of Mulliken charges =   1.00000   1.00000

 Dipole moment (field-independent basis, Debye):
    X=              0.0000    Y=             -0.0001    Z=              0.0000  Tot=              0.0001
 Quadrupole moment (field-independent basis, Debye-Ang):
   XX=            400.2743   YY=            -11.1280   ZZ=            -11.1283
   XY=              0.0018   XZ=             -0.0003   YZ=             -0.0003

 Normal termination of Gaussian 16 at Tue Dec  3 16:17:18 2024.
 Gaussian 16, Revision A.03,
 Gaussian 16:  ES64L-G16RevA.03 25-Dec-2016

 -------------------------------------------------------------------
 #p opt UM062X/6-311+G** nosymm int=superfine SCF=NoVarAcc SCF=tight
 -------------------------------------------------------------------

 -------------------
 Title Card Required
 -------------------
 Symbolic Z-matrix:
 Charge =  1 Multiplicity = 2

 SCF Done:  E(UM062X) =  -79.3163800691     A.U. after   27 cycles
 SCF Done:  E(UM062X) =  -79.3164663561     A.U. after    9 cycles
 SCF Done:  E(UM062X) =  -79.3164921321     A.U. after   11 cycles
 SCF Done:  E(UM062X) =  -79.3165057254     A.U. after    9 cycles
 SCF Done:  E(UM062X) =  -79.3165065725     A.U. after    8 cycles
 Optimization completed.
    -- Stationary point found.

                          Input orientation:
 ---------------------------------------------------------------------
 Center     Atomic      Atomic             Coordinates (Angstroms)
 Number     Number       Type             X           Y           Z
 ---------------------------------------------------------------------
      1          6           0       -9.782675    0.000000    0.000000
      2          6           0        9.782675    0.000000    0.000000
      3          1           0        9.782100   -0.936695    0.542390
      4          1           0       -9.783061   -0.937681   -0.540688
      5          1           0        9.785250    0.938081    0.539985
      6          1           0        9.784001   -0.001383   -1.082397
      7          1           0       -9.784759    0.937111   -0.541658
      8          1           0       -9.783499    0.000449    1.082398
 ---------------------------------------------------------------------

 Alpha  occ. eigenvalues --  -10.78139 -10.78139  -0.96904  -0.96903  -0.68153
 Alpha  occ. eigenvalues --   -0.68152  -0.68152  -0.68151  -0.38145
 Alpha virt. eigenvalues --   -0.36680  -0.07828  -0.07827  -0.04345  -0.04345
 Alpha virt. eigenvalues --   -0.04345  -0.04345  -0.02254  -0.02254   0.05133
 Alpha virt. eigenvalues --    0.05134   0.05134   0.05135   0.05226   0.05227

  Beta  occ. eigenvalues --  -10.77896 -10.77896  -0.94235  -0.94235  -0.67579
  Beta  occ. eigenvalues --   -0.67578  -0.67578  -0.67577
  Beta virt. eigenvalues --   -0.23180  -0.23180  -0.08376  -0.08376  -0.03979
  Beta virt. eigenvalues --   -0.03979  -0.03979  -0.03979  -0.00300  -0.00300
  Beta virt. eigenvalues --    0.05429   0.05430   0.05430   0.05431   0.06681

 Mulliken charges and spin densities:
               1          2
     1  C   -0.190681   0.566907
     2  C   -0.190682   0.566907
     3  H    0.230226  -0.022302
     4  H    0.230224  -0.022302
     5  H    0.230230  -0.022302
     6  H    0.230227  -0.022303
     7  H    0.230232  -0.022302
     8  H    0.230225  -0.022303
 Sum of Mulliken charges =   1.00000   1.00000

 Dipole moment (field-independent basis, Debye):
    X=              0.0000    Y=             -0.0001    Z=              0.0000  Tot=              0.0001
 Quadrupole moment (field-independent basis, Debye-Ang):
   XX=            446.0398   YY=            -11.1281   ZZ=            -11.1284
   XY=              0.0018   XZ=             -0.0003   YZ=             -0.0003

 Normal termination of Gaussian 16 at Tue Dec  3 16:17:48 2024.
 Gaussian 16, Revision A.03,
 Gaussian 16:  ES64L-G16RevA.03 25-Dec-2016

 -------------------------------------------------------------------
 #p opt UM062X/6-311+G** nosymm int=superfine SCF=NoVarAcc SCF=tight
 -------------------------------------------------------------------

 -------------------
 Title Card Required
 -------------------
 Symbolic Z-matrix:
 Charge =  1 Multiplicity = 2

 SCF Done:  E(UM062X) =  -79.3165253781     A.U. after   29 cycles
 SCF Done:  E(UM062X) =  -79.3166126117     A.U. after   10 cycles
 SCF Done:  E(UM062X) =  -79.3166386906     A.U. after   11 cycles
 SCF Done:  E(UM062X) =  -79.3166524341     A.U. after    9 cycles
 SCF Done:  E(UM062X) =  -79.3166532922     A.U. after    8 cycles
 Optimization completed.
    -- Stationary point found.

                          Input orientation:
 ---------------------------------------------------------------------
 Center     Atomic      Atomic             Coordinates (Angstroms)
 Number     Number       Type             X           Y           Z
 ---------------------------------------------------------------------
      1          6           0      -10.282675    0.000000    0.000000
      2          6           0       10.282675    0.000000    0.000000
      3          1           0       10.281982   -0.936697    0.542383
      4          1           0      -10.282959   -0.937685   -0.540679
      5          1           0       10.285153    0.938077    0.539990
      6          1           0       10.283904   -0.001377   -1.082396
      7          1           0      -10.284661    0.937104   -0.541669
      8          1           0      -10.283388    0.000465    1.082396
 ---------------------------------------------------------------------

 Alpha  occ. eigenvalues --  -10.78074 -10.78074  -0.96839  -0.96837  -0.68088
 Alpha  occ. eigenvalues --   -0.68087  -0.68087  -0.68086  -0.38043
 Alpha virt. eigenvalues --   -0.36650  -0.07762  -0.07761  -0.04280  -0.04280
 Alpha virt. eigenvalues --   -0.04280  -0.04280  -0.02187  -0.02187   0.05198
 Alpha virt. eigenvalues --    0.05198   0.05199   0.05200   0.05292   0.05292

  Beta  occ. eigenvalues --  -10.77831 -10.77831  -0.94170  -0.94170  -0.67514
  Beta  occ. eigenvalues --   -0.67513  -0.67512  -0.67511
  Beta virt. eigenvalues --   -0.23114  -0.23114  -0.08310  -0.08310  -0.03915
  Beta virt. eigenvalues --   -0.03915  -0.03914  -0.03914  -0.00234  -0.00234
  Beta virt. eigenvalues --    0.05494   0.05494   0.05495   0.05496   0.06746

 Mulliken charges and spin densities:
               1          2
     1  C   -0.190649   0.566908
     2  C   -0.190649   0.566908
     3  H    0.230215  -0.022302
     4  H    0.230213  -0.022303
     5  H    0.230219  -0.022302
     6  H    0.230216  -0.022303
     7  H    0.230221  -0.022302
     8  H    0.230214  -0.022303
 Sum of Mulliken charges =   1.00000   1.00000

 Dipole moment (field-independent basis, Debye):
    X=              0.0000    Y=             -0.0001    Z=              0.0000  Tot=              0.0001
 Quadrupole moment (field-independent basis, Debye-Ang):
   XX=            494.2090   YY=            -11.1282   ZZ=            -11.1285
   XY=              0.0018   XZ=             -0.0003   YZ=             -0.0002

 Normal termination of Gaussian 16 at Tue Dec  3 16:18:18 2024.
