 Gaussian 16, Revision A.03,
 Gaussian 16:  ES64L-G16RevA.03 25-Dec-2016

 ---------------------------------------
 #p UM062X/6-311+G** force int=superfine
 ---------------------------------------

 -------------------
 Title Card Required
 -------------------
 Symbolic Z-matrix:
 Charge =  0 Multiplicity = 1

                         Standard orientation:
 ---------------------------------------------------------------------
 Center     Atomic      Atomic             Coordinates (Angstroms)
 Number     Number       Type             X           Y           Z
 ---------------------------------------------------------------------
      1          6           0        0.542146    0.000016   -0.000002
      2          6           0       -0.542146   -0.000017   -0.000000
      3          1           0       -1.048749   -0.986340   -0.000205
      4          1           0        1.048764   -0.493371    0.854065
      5          1           0       -1.048766    0.493377   -0.854061
      6          1           0       -1.048750    0.493006    0.854282
      7          1           0        1.048748    0.986340    0.000214
      8          1           0        1.048753   -0.493008   -0.854280
 ---------------------------------------------------------------------

 SCF Done:  E(UM062X) =  -79.5680162401     A.U. after    9 cycles

 The electronic state is 1-A.
 Alpha  occ. eigenvalues --  -10.49886 -10.49236  -0.96533  -0.67410  -0.56051
 Alpha  occ. eigenvalues --   -0.56049  -0.52676  -0.33968  -0.33966
 Alpha virt. eigenvalues --    0.02005   0.04164   0.04518   0.04518   0.08592
 Alpha virt. eigenvalues --    0.09007   0.09008   0.14274   0.18271   0.18272
 Alpha virt. eigenvalues --    0.20257   0.20258   0.23942   0.27770   0.39997

  Beta  occ. eigenvalues --  -10.49886 -10.49236  -0.96533  -0.67410  -0.56051
  Beta  occ. eigenvalues --   -0.56049  -0.52676  -0.33968  -0.33966
  Beta virt. eigenvalues --    0.02005   0.04164   0.04518   0.04518   0.08592
  Beta virt. eigenvalues --    0.09007   0.09008   0.14274   0.18271   0.18272
  Beta virt. eigenvalues --    0.20257   0.20258   0.23942   0.27770   0.39997

 Mulliken charges and spin densities:
               1          2
     1  C   -0.418546   0.000000
     2  C   -0.418546  -0.000000
     3  H    0.139519   0.000000
     4  H    0.139514  -0.000000
     5  H    0.139514   0.000000
     6  H    0.139513   0.000000
     7  H    0.139518  -0.000000
     8  H    0.139513  -0.000000
 Sum of Mulliken charges =  -0.00000   0.00000

 Dipole moment (field-independent basis, Debye):
    X=             -0.0000    Y=              0.0000    Z=              0.0000  Tot=              0.0000
 Quadrupole moment (field-independent basis, Debye-Ang):
   XX=            -15.6658   YY=            -14.9422   ZZ=            -14.9426
   XY=              0.0000   XZ=              0.0000   YZ=              0.0000

 Normal termination of Gaussian 16 at Tue Nov 19 12:36:45 2024.
