 Gaussian 16, Revision A.03,
 Gaussian 16:  ES64L-G16RevA.03 25-Dec-2016

 --------------------------------------------
 #p opt UM062X/6-311+G** nosymm int=superfine
 --------------------------------------------

 -------------------
 Title Card Required
 -------------------
 Symbolic Z-matrix:
 Charge =  0 Multiplicity = 1

 SCF Done:  E(UM062X) =  -78.2407260482     A.U. after    9 cycles
 SCF Done:  E(UM062X) =  -78.2743972873     A.U. after    8 cycles
 SCF Done:  E(UM062X) =  -78.2913329303     A.U. after    8 cycles
 SCF Done:  E(UM062X) =  -78.2915898937     A.U. after    7 cycles
 SCF Done:  E(UM062X) =  -78.2915949099     A.U. after    6 cycles
 Optimization completed.
    -- Stationary point found.

                          Input orientation:
 ---------------------------------------------------------------------
 Center     Atomic      Atomic             Coordinates (Angstroms)
 Number     Number       Type             X           Y           Z
 ---------------------------------------------------------------------
      1          6           0       -0.490525    0.000000    0.000000
      2          6           0        0.490525    0.000000    0.000000
      3          1           0       -1.136800   -0.885722   -0.000000
      4          1           0       -1.136732    0.885874   -0.000000
      5          1           0        1.136800    0.885722    0.000000
      6          1           0        1.136732   -0.885874    0.000000
 ---------------------------------------------------------------------

 Alpha  occ. eigenvalues --  -10.49165 -10.47601  -0.94422  -0.62731  -0.58340
 Alpha  occ. eigenvalues --   -0.52998  -0.42332  -0.34387
 Alpha virt. eigenvalues --    0.03296   0.04265   0.04305   0.06670   0.07081
 Alpha virt. eigenvalues --    0.08848   0.09833   0.16109   0.17812   0.18259
 Alpha virt. eigenvalues --    0.19371   0.24927   0.34510   0.41764   0.43046

  Beta  occ. eigenvalues --  -10.49165 -10.47601  -0.94422  -0.62731  -0.58340
  Beta  occ. eigenvalues --   -0.52998  -0.42332  -0.34387
  Beta virt. eigenvalues --    0.03296   0.04265   0.04305   0.06670   0.07081
  Beta virt. eigenvalues --    0.08848   0.09833   0.16109   0.17812   0.18259
  Beta virt. eigenvalues --    0.19371   0.24927   0.34510   0.41764   0.43046

 Mulliken charges and spin densities:
               1          2
     1  C   -0.255646  -0.000000
     2  C   -0.255646   0.000000
     3  H    0.127834   0.000000
     4  H    0.127812   0.000000
     5  H    0.127834  -0.000000
     6  H    0.127812  -0.000000
 Sum of Mulliken charges =  -0.00000  -0.00000

 Dipole moment (field-independent basis, Debye):
    X=             -0.0000    Y=             -0.0000    Z=             -0.0000  Tot=              0.0000
 Quadrupole moment (field-independent basis, Debye-Ang):
   XX=            -12.5288   YY=            -12.3906   ZZ=            -14.2566
   XY=              0.0003   XZ=              0.0000   YZ=             -0.0000

 Normal termination of Gaussian 16 at Tue Nov 19 10:25:09 2024.
