 Gaussian 16, Revision A.03,
 Gaussian 16:  ES64L-G16RevA.03 25-Dec-2016

 --------------------------------------------
 #p opt UM062X/6-311+G** nosymm int=superfine
 --------------------------------------------

 -------------------
 Title Card Required
 -------------------
 Symbolic Z-matrix:
 Charge =  1 Multiplicity = 2

 SCF Done:  E(UM062X) =  -77.9511543602     A.U. after   11 cycles
 SCF Done:  E(UM062X) =  -77.9930049904     A.U. after   10 cycles
 SCF Done:  E(UM062X) =  -78.0181792739     A.U. after    9 cycles
 SCF Done:  E(UM062X) =  -78.0257408164     A.U. after    8 cycles
 SCF Done:  E(UM062X) =  -78.0288522261     A.U. after    9 cycles
 SCF Done:  E(UM062X) =  -78.0288727822     A.U. after    8 cycles
 Optimization completed.
    -- Stationary point found.

                          Input orientation:
 ---------------------------------------------------------------------
 Center     Atomic      Atomic             Coordinates (Angstroms)
 Number     Number       Type             X           Y           Z
 ---------------------------------------------------------------------
      1          6           0       -0.537238    0.000000    0.000000
      2          6           0        0.537238    0.000000    0.000000
      3          1           0       -1.298405   -0.839172   -0.000000
      4          1           0       -1.287770    0.851523    0.000000
      5          1           0        1.298405    0.839172   -0.000000
      6          1           0        1.287770   -0.851523    0.000000
 ---------------------------------------------------------------------

 Alpha  occ. eigenvalues --  -10.82328 -10.81616  -1.22695  -0.97371  -0.86532
 Alpha  occ. eigenvalues --   -0.85798  -0.69025  -0.67148
 Alpha virt. eigenvalues --   -0.18235  -0.16139  -0.15123  -0.13788  -0.10326
 Alpha virt. eigenvalues --   -0.08723  -0.07418  -0.06839  -0.02991  -0.02890
 Alpha virt. eigenvalues --   -0.00231   0.02317   0.12477   0.16767   0.20290

  Beta  occ. eigenvalues --  -10.82327 -10.81599  -1.21499  -0.92588  -0.83535
  Beta  occ. eigenvalues --   -0.80352  -0.68669
  Beta virt. eigenvalues --   -0.46370  -0.17916  -0.15145  -0.15030  -0.13572
  Beta virt. eigenvalues --   -0.10165  -0.08620  -0.05283  -0.05190  -0.02633
  Beta virt. eigenvalues --   -0.02319   0.00156   0.03056   0.12779   0.16726

 Mulliken charges and spin densities:
               1          2
     1  C   -0.157906   0.118226
     2  C   -0.157905   0.118226
     3  H    0.328810   0.188342
     4  H    0.329096   0.193432
     5  H    0.328810   0.188342
     6  H    0.329096   0.193432
 Sum of Mulliken charges =   1.00000   1.00000

 Dipole moment (field-independent basis, Debye):
    X=              0.0000    Y=             -0.0000    Z=              0.0000  Tot=              0.0000
 Quadrupole moment (field-independent basis, Debye-Ang):
   XX=             -2.3128   YY=             -7.4370   ZZ=            -12.7785
   XY=             -0.0306   XZ=              0.0000   YZ=              0.0000

 Normal termination of Gaussian 16 at Tue Nov 19 10:49:38 2024.
