 Gaussian 16, Revision A.03,
 Gaussian 16:  ES64L-G16RevA.03 25-Dec-2016

 --------------------------------------------
 #p opt UM062X/6-311+G** nosymm int=superfine
 --------------------------------------------

 -------------------
 Title Card Required
 -------------------
 Symbolic Z-matrix:
 Charge =  0 Multiplicity = 1

 SCF Done:  E(UM062X) =  -79.6536346073     A.U. after   10 cycles
 SCF Done:  E(UM062X) =  -79.6540718321     A.U. after    8 cycles
 SCF Done:  E(UM062X) =  -79.6541593557     A.U. after    9 cycles
 Optimization completed.
    -- Stationary point found.

                          Input orientation:
 ---------------------------------------------------------------------
 Center     Atomic      Atomic             Coordinates (Angstroms)
 Number     Number       Type             X           Y           Z
 ---------------------------------------------------------------------
      1          6           0       -1.346675    0.000000    0.000000
      2          6           0        1.346800    0.000000    0.000000
      3          1           0        1.517171   -0.923969    0.534647
      4          1           0       -1.517040   -0.925012   -0.532843
      5          1           0        1.517167    0.925012    0.532842
      6          1           0        1.517126   -0.001041   -1.067513
      7          1           0       -1.517046    0.923970   -0.534647
      8          1           0       -1.517004    0.001041    1.067513
 ---------------------------------------------------------------------

 Alpha  occ. eigenvalues --  -10.56236 -10.56232  -0.77091  -0.74932  -0.48429
 Alpha  occ. eigenvalues --   -0.48429  -0.47199  -0.47199  -0.26313
 Alpha virt. eigenvalues --   -0.04458   0.02693   0.05443   0.05443   0.06247
 Alpha virt. eigenvalues --    0.08069   0.08069   0.10507   0.12724   0.18228
 Alpha virt. eigenvalues --    0.18228   0.21782   0.21782   0.24316   0.25691

  Beta  occ. eigenvalues --  -10.56236 -10.56232  -0.77091  -0.74932  -0.48429
  Beta  occ. eigenvalues --   -0.48429  -0.47199  -0.47199  -0.26313
  Beta virt. eigenvalues --   -0.04458   0.02693   0.05443   0.05443   0.06247
  Beta virt. eigenvalues --    0.08069   0.08069   0.10507   0.12724   0.18228
  Beta virt. eigenvalues --    0.18228   0.21782   0.21782   0.24316   0.25691

 Mulliken charges and spin densities:
               1          2
     1  C   -0.516770  -0.000000
     2  C   -0.516770  -0.000000
     3  H    0.172256   0.000000
     4  H    0.172257  -0.000000
     5  H    0.172257   0.000000
     6  H    0.172258   0.000000
     7  H    0.172256   0.000000
     8  H    0.172258   0.000000
 Sum of Mulliken charges =  -0.00000   0.00000

 Dipole moment (field-independent basis, Debye):
    X=             -0.0000    Y=             -0.0000    Z=             -0.0000  Tot=              0.0000
 Quadrupole moment (field-independent basis, Debye-Ang):
   XX=            -15.4923   YY=            -14.7911   ZZ=            -14.7912
   XY=             -0.0000   XZ=              0.0001   YZ=             -0.0000

 Normal termination of Gaussian 16 at Tue Dec  3 09:58:36 2024.
