 Gaussian 16, Revision A.03,
 Gaussian 16:  ES64L-G16RevA.03 25-Dec-2016

 --------------------------------------------
 #p opt UM062X/6-311+G** nosymm int=superfine
 --------------------------------------------

 -------------------
 Title Card Required
 -------------------
 Symbolic Z-matrix:
 Charge =  0 Multiplicity = 1

 SCF Done:  E(UM062X) =  -381.170584637     A.U. after   12 cycles
 SCF Done:  E(UM062X) =  -381.171089465     A.U. after   10 cycles
 SCF Done:  E(UM062X) =  -381.170884503     A.U. after   10 cycles
 SCF Done:  E(UM062X) =  -381.170947950     A.U. after   10 cycles
 SCF Done:  E(UM062X) =  -381.171144010     A.U. after    7 cycles
 SCF Done:  E(UM062X) =  -381.170604590     A.U. after   10 cycles
 SCF Done:  E(UM062X) =  -381.171171392     A.U. after    9 cycles
 Optimization completed.
    -- Stationary point found.

                          Input orientation:
 ---------------------------------------------------------------------
 Center     Atomic      Atomic             Coordinates (Angstroms)
 Number     Number       Type             X           Y           Z
 ---------------------------------------------------------------------
      1          6           0       -0.930452    0.000000    0.000000
      2         15           0        0.930452    0.000000    0.000000
      3          1           0       -1.507216   -0.916760   -0.001328
      4          1           0        1.029090   -1.416655   -0.001840
      5          1           0       -1.453266    0.948838    0.001291
 ---------------------------------------------------------------------

 Alpha  occ. eigenvalues --  -78.03868 -10.58564  -6.86133  -4.97663  -4.97618
 Alpha  occ. eigenvalues --   -4.97413  -0.79465  -0.64864  -0.51393  -0.42470
 Alpha  occ. eigenvalues --   -0.34707  -0.30278
 Alpha virt. eigenvalues --   -0.05796   0.01062   0.02821   0.04177   0.05033
 Alpha virt. eigenvalues --    0.06127   0.07795   0.09371   0.10879   0.13650
 Alpha virt. eigenvalues --    0.15450   0.19440   0.21300   0.30740   0.32972

  Beta  occ. eigenvalues --  -78.03868 -10.58564  -6.86133  -4.97663  -4.97618
  Beta  occ. eigenvalues --   -4.97413  -0.79465  -0.64864  -0.51393  -0.42470
  Beta  occ. eigenvalues --   -0.34707  -0.30278
  Beta virt. eigenvalues --   -0.05796   0.01062   0.02821   0.04177   0.05033
  Beta virt. eigenvalues --    0.06127   0.07795   0.09371   0.10879   0.13650
  Beta virt. eigenvalues --    0.15450   0.19440   0.21300   0.30740   0.32972

 Mulliken charges and spin densities:
               1          2
     1  C   -0.445521   0.000000
     2  P    0.108738  -0.000000
     3  H    0.184627   0.000000
     4  H   -0.032729  -0.000000
     5  H    0.184885   0.000000
 Sum of Mulliken charges =  -0.00000  -0.00000

 Dipole moment (field-independent basis, Debye):
    X=             -0.6441    Y=             -0.5740    Z=             -0.0009  Tot=              0.8627
 Quadrupole moment (field-independent basis, Debye-Ang):
   XX=            -19.7971   YY=            -19.9335   ZZ=            -22.8149
   XY=             -1.1738   XZ=             -0.0015   YZ=              0.0039

 Normal termination of Gaussian 16 at Mon Apr 21 19:07:18 2025.
