 Gaussian 16, Revision A.03,
 Gaussian 16:  ES64L-G16RevA.03 25-Dec-2016

 ---------------------------------------
 #p UM062X/6-311+G** force int=superfine
 ---------------------------------------

 -------------------
 Title Card Required
 -------------------
 Symbolic Z-matrix:
 Charge =  1 Multiplicity = 2

                         Standard orientation:
 ---------------------------------------------------------------------
 Center     Atomic      Atomic             Coordinates (Angstroms)
 Number     Number       Type             X           Y           Z
 ---------------------------------------------------------------------
      1          6           0        0.000000    0.000000    0.472220
      2          6           0        0.000000    0.000000   -0.472220
      3          1           0        0.000000    0.000000    1.544002
      4          1           0        0.000000    0.000000   -1.544002
 ---------------------------------------------------------------------

 SCF Done:  E(UM062X) =  -76.6209936155     A.U. after    9 cycles

 Unable to determine electronic state:  an orbital has unidentified symmetry.
 Alpha  occ. eigenvalues --  -10.90701 -10.88475  -1.33034  -0.94809  -0.91565
 Alpha  occ. eigenvalues --   -0.84139  -0.80513
 Alpha virt. eigenvalues --   -0.18311  -0.16652  -0.14771  -0.13679  -0.11983
 Alpha virt. eigenvalues --   -0.11604  -0.11266  -0.03125  -0.02339  -0.01821
 Alpha virt. eigenvalues --    0.02489   0.04137   0.16967   0.21472   0.25069

  Beta  occ. eigenvalues --  -10.90311 -10.88178  -1.26852  -0.93297  -0.90660
  Beta  occ. eigenvalues --   -0.77860
  Beta virt. eigenvalues --   -0.53125  -0.15646  -0.15532  -0.14613  -0.13303
  Beta virt. eigenvalues --   -0.11899  -0.11762  -0.11338  -0.01819  -0.01382
  Beta virt. eigenvalues --   -0.00748   0.02774   0.04598   0.17500   0.21853

 Mulliken charges and spin densities:
               1          2
     1  C    0.243470   0.521567
     2  C    0.243470   0.521567
     3  H    0.256530  -0.021567
     4  H    0.256530  -0.021567
 Sum of Mulliken charges =   1.00000   1.00000

 Dipole moment (field-independent basis, Debye):
    X=              0.0000    Y=              0.0000    Z=              0.0000  Tot=              0.0000
 Quadrupole moment (field-independent basis, Debye-Ang):
   XX=            -10.2039   YY=             -8.7036   ZZ=             -2.3228
   XY=             -0.0000   XZ=             -0.0000   YZ=             -0.0000

 Normal termination of Gaussian 16 at Tue Nov 19 13:26:21 2024.
