 Gaussian 16, Revision A.03,
 Gaussian 16:  ES64L-G16RevA.03 25-Dec-2016

 --------------------------------------------
 #p opt UM062X/6-311+G** nosymm int=superfine
 --------------------------------------------

 -------------------
 Title Card Required
 -------------------
 Symbolic Z-matrix:
 Charge = -1 Multiplicity = 2

 SCF Done:  E(UM062X) =  -50.7076333886     A.U. after   11 cycles
 SCF Done:  E(UM062X) =  -50.7076389390     A.U. after    7 cycles
 Optimization completed.
    -- Stationary point found.

                          Input orientation:
 ---------------------------------------------------------------------
 Center     Atomic      Atomic             Coordinates (Angstroms)
 Number     Number       Type             X           Y           Z
 ---------------------------------------------------------------------
      1          5           0       -0.966404    0.000000    0.000000
      2          5           0        0.966404    0.000000    0.000000
      3          1           0       -2.147718   -0.000903    0.000000
      4          1           0        2.147718    0.000903   -0.000000
 ---------------------------------------------------------------------

 Alpha  occ. eigenvalues --   -6.88261  -6.88238  -0.36339  -0.32710  -0.18753
 Alpha  occ. eigenvalues --   -0.02138  -0.00777
 Alpha virt. eigenvalues --    0.14021   0.15410   0.16872   0.16915   0.20247
 Alpha virt. eigenvalues --    0.21435   0.21534   0.24469   0.24501   0.24580
 Alpha virt. eigenvalues --    0.28070   0.38601   0.44629   0.56222   0.59376

  Beta  occ. eigenvalues --   -6.88220  -6.88203  -0.34306  -0.31803  -0.17814
  Beta  occ. eigenvalues --    0.01090
  Beta virt. eigenvalues --    0.10892   0.14172   0.14495   0.16052   0.17513
  Beta virt. eigenvalues --    0.19156   0.20843   0.21166   0.22572   0.26375
  Beta virt. eigenvalues --    0.27528   0.29267   0.38891   0.45246   0.56357

 Mulliken charges and spin densities:
               1          2
     1  B   -0.497198   0.525414
     2  B   -0.497198   0.525414
     3  H   -0.002802  -0.025414
     4  H   -0.002802  -0.025414
 Sum of Mulliken charges =  -1.00000   1.00000

 Dipole moment (field-independent basis, Debye):
    X=             -0.0000    Y=              0.0000    Z=              0.0000  Tot=              0.0000
 Quadrupole moment (field-independent basis, Debye-Ang):
   XX=            -23.0371   YY=            -29.3876   ZZ=            -22.4588
   XY=              0.0058   XZ=             -0.0000   YZ=              0.0002

 Normal termination of Gaussian 16 at Mon Apr 21 17:30:29 2025.
