 Gaussian 16, Revision A.03,
 Gaussian 16:  ES64L-G16RevA.03 25-Dec-2016

 --------------------------------------------
 #p opt UM062X/6-311+G** nosymm int=superfine
 --------------------------------------------

 -------------------
 Title Card Required
 -------------------
 Symbolic Z-matrix:
 Charge =  0 Multiplicity = 1

 SCF Done:  E(UM062X) =  -114.125274388     A.U. after   16 cycles
 SCF Done:  E(UM062X) =  -114.125855447     A.U. after   10 cycles
 SCF Done:  E(UM062X) =  -114.125983839     A.U. after    9 cycles
 SCF Done:  E(UM062X) =  -114.125993108     A.U. after   13 cycles
 Optimization completed.
    -- Stationary point found.

                          Input orientation:
 ---------------------------------------------------------------------
 Center     Atomic      Atomic             Coordinates (Angstroms)
 Number     Number       Type             X           Y           Z
 ---------------------------------------------------------------------
      1          6           0       -1.273311    0.000000    0.000000
      2          8           0        1.273311    0.000000    0.000000
      3          1           0       -1.896052   -0.903216   -0.000081
      4          1           0       -1.896056    0.903213   -0.000080
 ---------------------------------------------------------------------

 Alpha  occ. eigenvalues --  -19.67331 -10.68372  -0.98107  -0.80865  -0.54687
 Alpha  occ. eigenvalues --   -0.36622  -0.36609  -0.36487
 Alpha virt. eigenvalues --   -0.12832  -0.10843   0.00702   0.05075   0.06856
 Alpha virt. eigenvalues --    0.07319   0.15608   0.15918   0.19781   0.22622
 Alpha virt. eigenvalues --    0.25596   0.31499   0.41633   0.43658   0.54727

  Beta  occ. eigenvalues --  -19.67331 -10.68372  -0.98107  -0.80865  -0.54687
  Beta  occ. eigenvalues --   -0.36622  -0.36609  -0.36487
  Beta virt. eigenvalues --   -0.12832  -0.10843   0.00702   0.05075   0.06856
  Beta virt. eigenvalues --    0.07319   0.15608   0.15918   0.19781   0.22622
  Beta virt. eigenvalues --    0.25596   0.31499   0.41633   0.43658   0.54727

 Mulliken charges and spin densities:
               1          2
     1  C   -0.182043   0.000000
     2  O   -0.176599   0.000000
     3  H    0.179321  -0.000000
     4  H    0.179321  -0.000000
 Sum of Mulliken charges =  -0.00000   0.00000

 Dipole moment (field-independent basis, Debye):
    X=             -4.6696    Y=             -0.0000    Z=             -0.0002  Tot=              4.6696
 Quadrupole moment (field-independent basis, Debye-Ang):
   XX=             -7.6917   YY=            -12.5626   ZZ=            -12.5275
   XY=             -0.0000   XZ=             -0.0000   YZ=             -0.0000

 Normal termination of Gaussian 16 at Mon Apr 21 18:44:37 2025.
