 Gaussian 16, Revision A.03,
 Gaussian 16:  ES64L-G16RevA.03 25-Dec-2016

 --------------------------------------------
 #p opt UM062X/6-311+G** nosymm int=superfine
 --------------------------------------------

 -------------------
 Title Card Required
 -------------------
 Symbolic Z-matrix:
 Charge =  0 Multiplicity = 1

 SCF Done:  E(UM062X) =  -78.2057433455     A.U. after    9 cycles
 SCF Done:  E(UM062X) =  -78.2414962964     A.U. after    8 cycles
 SCF Done:  E(UM062X) =  -78.2610809666     A.U. after    8 cycles
 SCF Done:  E(UM062X) =  -78.2614043774     A.U. after    7 cycles
 SCF Done:  E(UM062X) =  -78.2614109455     A.U. after    7 cycles
 Optimization completed.
    -- Stationary point found.

                          Input orientation:
 ---------------------------------------------------------------------
 Center     Atomic      Atomic             Coordinates (Angstroms)
 Number     Number       Type             X           Y           Z
 ---------------------------------------------------------------------
      1          6           0       -0.483897    0.000000    0.000000
      2          6           0        0.483897    0.000000    0.000000
      3          1           0       -1.134134   -0.883750   -0.000000
      4          1           0       -1.134056    0.883928    0.000000
      5          1           0        1.134134    0.883750   -0.000000
      6          1           0        1.134056   -0.883928   -0.000000
 ---------------------------------------------------------------------

 Alpha  occ. eigenvalues --  -10.49144 -10.47392  -0.94632  -0.62589  -0.58580
 Alpha  occ. eigenvalues --   -0.53109  -0.42799  -0.34051
 Alpha virt. eigenvalues --    0.03283   0.04253   0.04266   0.06624   0.07176
 Alpha virt. eigenvalues --    0.08875   0.09837   0.16105   0.17681   0.18296
 Alpha virt. eigenvalues --    0.19710   0.24977   0.34647   0.41903   0.42961

  Beta  occ. eigenvalues --  -10.49144 -10.47392  -0.94632  -0.62589  -0.58580
  Beta  occ. eigenvalues --   -0.53109  -0.42799  -0.34051
  Beta virt. eigenvalues --    0.03283   0.04253   0.04266   0.06624   0.07176
  Beta virt. eigenvalues --    0.08875   0.09837   0.16105   0.17681   0.18296
  Beta virt. eigenvalues --    0.19710   0.24977   0.34647   0.41903   0.42961

 Mulliken charges and spin densities:
               1          2
     1  C   -0.254336   0.000000
     2  C   -0.254336  -0.000000
     3  H    0.127181   0.000000
     4  H    0.127155   0.000000
     5  H    0.127181   0.000000
     6  H    0.127155  -0.000000
 Sum of Mulliken charges =  -0.00000  -0.00000

 Dipole moment (field-independent basis, Debye):
    X=              0.0000    Y=             -0.0000    Z=              0.0000  Tot=              0.0000
 Quadrupole moment (field-independent basis, Debye-Ang):
   XX=            -12.5374   YY=            -12.3966   ZZ=            -14.1899
   XY=              0.0004   XZ=             -0.0000   YZ=              0.0000

 Normal termination of Gaussian 16 at Tue Nov 19 10:24:34 2024.
