 Gaussian 16, Revision A.03,
 Gaussian 16:  ES64L-G16RevA.03 25-Dec-2016

 --------------------------------------------
 #p opt UM062X/6-311+G** nosymm int=superfine
 --------------------------------------------

 -------------------
 Title Card Required
 -------------------
 Symbolic Z-matrix:
 Charge =  0 Multiplicity = 1

 SCF Done:  E(UM062X) =  -437.158591527     A.U. after   16 cycles
 SCF Done:  E(UM062X) =  -437.161169290     A.U. after   16 cycles
 SCF Done:  E(UM062X) =  -437.162041442     A.U. after   17 cycles
 SCF Done:  E(UM062X) =  -437.162042496     A.U. after   16 cycles
 Optimization completed.
    -- Stationary point found.

                          Input orientation:
 ---------------------------------------------------------------------
 Center     Atomic      Atomic             Coordinates (Angstroms)
 Number     Number       Type             X           Y           Z
 ---------------------------------------------------------------------
      1          6           0       -2.052140    0.000000    0.000000
      2         16           0        2.052140    0.000000    0.000000
      3          1           0       -2.738091   -0.868242   -0.000062
      4          1           0       -2.739063    0.867473   -0.000187
 ---------------------------------------------------------------------

 Alpha  occ. eigenvalues --  -89.94287 -10.62652  -8.30331  -6.23117  -6.21537
 Alpha  occ. eigenvalues --   -6.21536  -0.77183  -0.74435  -0.49383  -0.33065
 Alpha  occ. eigenvalues --   -0.31769  -0.31761
 Alpha virt. eigenvalues --   -0.16746  -0.09678   0.01453   0.04650   0.05424
 Alpha virt. eigenvalues --    0.06459   0.08006   0.08813   0.08875   0.13936
 Alpha virt. eigenvalues --    0.17330   0.18578   0.35075   0.36648   0.36706

  Beta  occ. eigenvalues --  -89.94287 -10.62652  -8.30331  -6.23117  -6.21537
  Beta  occ. eigenvalues --   -6.21536  -0.77183  -0.74435  -0.49383  -0.33065
  Beta  occ. eigenvalues --   -0.31769  -0.31761
  Beta virt. eigenvalues --   -0.16746  -0.09678   0.01453   0.04650   0.05424
  Beta virt. eigenvalues --    0.06459   0.08006   0.08813   0.08875   0.13936
  Beta virt. eigenvalues --    0.17330   0.18578   0.35075   0.36648   0.36706

 Mulliken charges and spin densities:
               1          2
     1  C   -0.278668   0.000000
     2  S   -0.004492  -0.000000
     3  H    0.141576  -0.000000
     4  H    0.141585   0.000000
 Sum of Mulliken charges =  -0.00000   0.00000

 Dipole moment (field-independent basis, Debye):
    X=             -2.6256    Y=             -0.0011    Z=             -0.0004  Tot=              2.6256
 Quadrupole moment (field-independent basis, Debye-Ang):
   XX=            -10.1836   YY=            -22.3706   ZZ=            -21.7321
   XY=              0.0003   XZ=             -0.0001   YZ=              0.0000

 Normal termination of Gaussian 16 at Mon Apr 21 19:40:37 2025.
