 Gaussian 16, Revision A.03,
 Gaussian 16:  ES64L-G16RevA.03 25-Dec-2016

 --------------------------------------------
 #p opt UM062X/6-311+G** nosymm int=superfine
 --------------------------------------------

 -------------------
 Title Card Required
 -------------------
 Symbolic Z-matrix:
 Charge =  0 Multiplicity = 1

 SCF Done:  E(UM062X) =  -79.6762139719     A.U. after    9 cycles
 SCF Done:  E(UM062X) =  -79.6762378230     A.U. after    7 cycles
 SCF Done:  E(UM062X) =  -79.6762411224     A.U. after    8 cycles
 Optimization completed.
    -- Stationary point found.

                          Input orientation:
 ---------------------------------------------------------------------
 Center     Atomic      Atomic             Coordinates (Angstroms)
 Number     Number       Type             X           Y           Z
 ---------------------------------------------------------------------
      1          6           0       -1.246675    0.000000    0.000000
      2          6           0        1.246800    0.000000    0.000000
      3          1           0        1.448384   -0.919910    0.532300
      4          1           0       -1.448255   -0.920948   -0.530504
      5          1           0        1.448382    0.920948    0.530503
      6          1           0        1.448338   -0.001037   -1.062825
      7          1           0       -1.448259    0.919911   -0.532300
      8          1           0       -1.448216    0.001036    1.062825
 ---------------------------------------------------------------------

 Alpha  occ. eigenvalues --  -10.55852 -10.55848  -0.77346  -0.74351  -0.48311
 Alpha  occ. eigenvalues --   -0.48311  -0.46549  -0.46549  -0.27816
 Alpha virt. eigenvalues --   -0.02343   0.02576   0.05503   0.05503   0.06760
 Alpha virt. eigenvalues --    0.08198   0.08198   0.10209   0.12917   0.18177
 Alpha virt. eigenvalues --    0.18178   0.21983   0.21983   0.24359   0.26034

  Beta  occ. eigenvalues --  -10.55852 -10.55848  -0.77346  -0.74351  -0.48311
  Beta  occ. eigenvalues --   -0.48311  -0.46549  -0.46549  -0.27816
  Beta virt. eigenvalues --   -0.02343   0.02576   0.05503   0.05503   0.06760
  Beta virt. eigenvalues --    0.08198   0.08198   0.10209   0.12917   0.18177
  Beta virt. eigenvalues --    0.18178   0.21983   0.21983   0.24359   0.26034

 Mulliken charges and spin densities:
               1          2
     1  C   -0.512002   0.000000
     2  C   -0.512002  -0.000000
     3  H    0.170667   0.000000
     4  H    0.170667  -0.000000
     5  H    0.170667   0.000000
     6  H    0.170668   0.000000
     7  H    0.170667  -0.000000
     8  H    0.170668  -0.000000
 Sum of Mulliken charges =  -0.00000  -0.00000

 Dipole moment (field-independent basis, Debye):
    X=              0.0000    Y=             -0.0000    Z=             -0.0000  Tot=              0.0000
 Quadrupole moment (field-independent basis, Debye-Ang):
   XX=            -15.5230   YY=            -14.7995   ZZ=            -14.7996
   XY=             -0.0000   XZ=              0.0001   YZ=             -0.0000

 Normal termination of Gaussian 16 at Tue Dec  3 09:57:23 2024.
