 Gaussian 16, Revision A.03,
 Gaussian 16:  ES64L-G16RevA.03 25-Dec-2016

 --------------------------------------------
 #p opt UM062X/6-311+G** nosymm int=superfine
 --------------------------------------------

 -------------------
 Title Card Required
 -------------------
 Symbolic Z-matrix:
 Charge =  1 Multiplicity = 2

 SCF Done:  E(UM062X) =  -76.8880699325     A.U. after   10 cycles
 SCF Done:  E(UM062X) =  -76.8927209776     A.U. after    9 cycles
 SCF Done:  E(UM062X) =  -76.8927333253     A.U. after   34 cycles
 Optimization completed.
    -- Stationary point found.

                          Input orientation:
 ---------------------------------------------------------------------
 Center     Atomic      Atomic             Coordinates (Angstroms)
 Number     Number       Type             X           Y           Z
 ---------------------------------------------------------------------
      1          6           0       -0.658623    0.000000    0.000000
      2          6           0        0.658623    0.000000    0.000000
      3          1           0       -1.741971   -0.000000    0.000000
      4          1           0        1.741971    0.000000   -0.000000
 ---------------------------------------------------------------------

 Alpha  occ. eigenvalues --  -10.95431 -10.95292  -1.20213  -0.97576  -0.88952
 Alpha  occ. eigenvalues --   -0.70942  -0.68378
 Alpha virt. eigenvalues --   -0.29261  -0.27242  -0.16477  -0.14452  -0.11409
 Alpha virt. eigenvalues --   -0.10084  -0.09833  -0.07513  -0.04934  -0.04526
 Alpha virt. eigenvalues --    0.02221   0.04508   0.14187   0.19319   0.29962

  Beta  occ. eigenvalues --  -10.95190 -10.95072  -1.15574  -0.95965  -0.88413
  Beta  occ. eigenvalues --   -0.65951
  Beta virt. eigenvalues --   -0.45129  -0.25594  -0.22500  -0.15593  -0.15320
  Beta virt. eigenvalues --   -0.11578  -0.10362  -0.10086  -0.07126  -0.04454
  Beta virt. eigenvalues --   -0.03905   0.01876   0.04717   0.14768   0.20200

 Mulliken charges and spin densities:
               1          2
     1  C    0.179679   0.519528
     2  C    0.179678   0.519528
     3  H    0.320322  -0.019528
     4  H    0.320321  -0.019528
 Sum of Mulliken charges =   1.00000   1.00000

 Dipole moment (field-independent basis, Debye):
    X=             -0.0000    Y=              0.0000    Z=             -0.0000  Tot=              0.0000
 Quadrupole moment (field-independent basis, Debye-Ang):
   XX=              0.0215   YY=             -9.8253   ZZ=            -11.6714
   XY=              0.0000   XZ=             -0.0000   YZ=              0.1270

 Normal termination of Gaussian 16 at Tue Nov 19 13:02:48 2024.
