 Gaussian 16, Revision A.03,
 Gaussian 16:  ES64L-G16RevA.03 25-Dec-2016

 ---------------------------------------------------
 #p UM062X/6-311+G** force int=superfine pop=saveNBO
 ---------------------------------------------------

 -------------------
 Title Card Required
 -------------------
 Symbolic Z-matrix:
 Charge =  0 Multiplicity = 1

                         Standard orientation:
 ---------------------------------------------------------------------
 Center     Atomic      Atomic             Coordinates (Angstroms)
 Number     Number       Type             X           Y           Z
 ---------------------------------------------------------------------
      1         15           0        0.000000    0.000000    1.288495
      2         15           0        0.000000    0.000000   -1.288495
 ---------------------------------------------------------------------

 SCF Done:  E(UM062X) =  -682.516055145     A.U. after    9 cycles

 The electronic state is 1-SGG.
 Alpha  occ. eigenvalues --  -78.10610 -78.10610  -6.92200  -6.92196  -5.03561
 Alpha  occ. eigenvalues --   -5.03561  -5.03561  -5.03561  -5.03438  -5.03432
 Alpha  occ. eigenvalues --   -0.68323  -0.59187  -0.32861  -0.28643  -0.28643
 Alpha virt. eigenvalues --   -0.12963  -0.12963  -0.04401   0.02494   0.04009
 Alpha virt. eigenvalues --    0.04525   0.04525   0.05973   0.06756   0.06756
 Alpha virt. eigenvalues --    0.12173   0.29798   0.30800   0.30898   0.30898

  Beta  occ. eigenvalues --  -78.10610 -78.10610  -6.92200  -6.92196  -5.03561
  Beta  occ. eigenvalues --   -5.03561  -5.03561  -5.03561  -5.03438  -5.03432
  Beta  occ. eigenvalues --   -0.68323  -0.59187  -0.32861  -0.28643  -0.28643
  Beta virt. eigenvalues --   -0.12963  -0.12963  -0.04401   0.02494   0.04009
  Beta virt. eigenvalues --    0.04525   0.04525   0.05973   0.06756   0.06756
  Beta virt. eigenvalues --    0.12173   0.29798   0.30800   0.30898   0.30898

 Mulliken charges and spin densities:
               1          2
     1  P    0.000000  -0.000000
     2  P    0.000000  -0.000000
 Sum of Mulliken charges =   0.00000  -0.00000

 Dipole moment (field-independent basis, Debye):
    X=             -0.0000    Y=             -0.0000    Z=              0.0000  Tot=              0.0000
 Quadrupole moment (field-independent basis, Debye-Ang):
   XX=            -28.5126   YY=            -28.5126   ZZ=            -25.4322
   XY=              0.0000   XZ=             -0.0000   YZ=              0.0000

 Summary of Natural Population Analysis:

                                       Natural Population
                Natural  -----------------------------------------------
    Atom  No    Charge         Core      Valence    Rydberg      Total
 -----------------------------------------------------------------------
      P    1    0.00000      4.99995     2.49535    0.00470     7.50000
      P    2    0.00000      4.99995     2.49535    0.00470     7.50000
 =======================================================================
   * Total *    0.00000      9.99989     4.99071    0.00940    15.00000

 Normal termination of Gaussian 16 at Mon Apr 21 21:21:23 2025.
