 Gaussian 16, Revision A.03,
 Gaussian 16:  ES64L-G16RevA.03 25-Dec-2016

 --------------------------------------------
 #p opt UM062X/6-311+G** nosymm int=superfine
 --------------------------------------------

 -------------------
 Title Card Required
 -------------------
 Symbolic Z-matrix:
 Charge =  0 Multiplicity = 1

 SCF Done:  E(UM062X) =  -797.457481421     A.U. after   13 cycles
 SCF Done:  E(UM062X) =  -797.458785178     A.U. after   12 cycles
 SCF Done:  E(UM062X) =  -797.459577387     A.U. after   13 cycles
 SCF Done:  E(UM062X) =  -797.459602101     A.U. after   11 cycles
 SCF Done:  E(UM062X) =  -797.459602118     A.U. after   10 cycles
 Optimization completed.
    -- Stationary point found.

                          Input orientation:
 ---------------------------------------------------------------------
 Center     Atomic      Atomic             Coordinates (Angstroms)
 Number     Number       Type             X           Y           Z
 ---------------------------------------------------------------------
      1         16           0       -1.568191    0.000000    0.000000
      2         16           0        1.568191    0.000000    0.000000
      3          1           0       -1.509617   -1.336052   -0.148969
      4          1           0        1.510462    0.179031    1.332532
 ---------------------------------------------------------------------

 Alpha  occ. eigenvalues --  -89.94736 -89.94736  -8.30878  -8.30878  -6.23039
 Alpha  occ. eigenvalues --   -6.23039  -6.22770  -6.22769  -6.22216  -6.22215
 Alpha  occ. eigenvalues --   -0.82382  -0.80328  -0.47337  -0.47325  -0.35042
 Alpha  occ. eigenvalues --   -0.33518  -0.33067
 Alpha virt. eigenvalues --   -0.17221   0.01954   0.03168   0.04618   0.05045
 Alpha virt. eigenvalues --    0.06240   0.07222   0.07404   0.07532   0.11177
 Alpha virt. eigenvalues --    0.13190   0.30369   0.31132   0.32363   0.35817

  Beta  occ. eigenvalues --  -89.94736 -89.94736  -8.30878  -8.30878  -6.23039
  Beta  occ. eigenvalues --   -6.23039  -6.22770  -6.22769  -6.22216  -6.22215
  Beta  occ. eigenvalues --   -0.82382  -0.80328  -0.47337  -0.47325  -0.35042
  Beta  occ. eigenvalues --   -0.33518  -0.33067
  Beta virt. eigenvalues --   -0.17221   0.01954   0.03168   0.04618   0.05045
  Beta virt. eigenvalues --    0.06240   0.07222   0.07404   0.07532   0.11177
  Beta virt. eigenvalues --    0.13190   0.30369   0.31132   0.32363   0.35817

 Mulliken charges and spin densities:
               1          2
     1  S   -0.088247   0.000000
     2  S   -0.088300  -0.000000
     3  H    0.088266  -0.000000
     4  H    0.088281   0.000000
 Sum of Mulliken charges =  -0.00000  -0.00000

 Dipole moment (field-independent basis, Debye):
    X=              0.0006    Y=             -0.9298    Z=              0.9509  Tot=              1.3299
 Quadrupole moment (field-independent basis, Debye-Ang):
   XX=            -25.2904   YY=            -27.9548   ZZ=            -27.9996
   XY=              2.1284   XZ=              2.0822   YZ=              0.9938

 Normal termination of Gaussian 16 at Mon Apr 21 21:15:38 2025.
