 Gaussian 16, Revision A.03,
 Gaussian 16:  ES64L-G16RevA.03 25-Dec-2016

 --------------------------------------------
 #p opt UM062X/6-311+G** nosymm int=superfine
 --------------------------------------------

 -------------------
 Title Card Required
 -------------------
 Symbolic Z-matrix:
 Charge =  0 Multiplicity = 1

 SCF Done:  E(UM062X) =  -79.7175674051     A.U. after    8 cycles
 SCF Done:  E(UM062X) =  -79.7387630367     A.U. after    8 cycles
 SCF Done:  E(UM062X) =  -79.7487639327     A.U. after    9 cycles
 SCF Done:  E(UM062X) =  -79.7488302236     A.U. after    7 cycles
 Optimization completed.
    -- Stationary point found.

                          Input orientation:
 ---------------------------------------------------------------------
 Center     Atomic      Atomic             Coordinates (Angstroms)
 Number     Number       Type             X           Y           Z
 ---------------------------------------------------------------------
      1          6           0       -0.984976    0.000000    0.000000
      2          6           0        0.985076    0.000000    0.000000
      3          1           0        1.284699   -0.903108    0.522606
      4          1           0       -1.284600   -0.904128   -0.520845
      5          1           0        1.284702    0.904127    0.520843
      6          1           0        1.284751   -0.001019   -1.043402
      7          1           0       -1.284598    0.903108   -0.522606
      8          1           0       -1.284652    0.001018    1.043400
 ---------------------------------------------------------------------

 Alpha  occ. eigenvalues --  -10.54367 -10.54356  -0.79420  -0.72321  -0.48488
 Alpha  occ. eigenvalues --   -0.48488  -0.43998  -0.43998  -0.34091
 Alpha virt. eigenvalues --    0.02312   0.02948   0.05639   0.05639   0.08521
 Alpha virt. eigenvalues --    0.08521   0.09430   0.12142   0.14135   0.18233
 Alpha virt. eigenvalues --    0.18234   0.21983   0.21984   0.24283   0.27114

  Beta  occ. eigenvalues --  -10.54367 -10.54356  -0.79420  -0.72321  -0.48488
  Beta  occ. eigenvalues --   -0.48488  -0.43998  -0.43998  -0.34091
  Beta virt. eigenvalues --    0.02312   0.02948   0.05639   0.05639   0.08521
  Beta virt. eigenvalues --    0.08521   0.09430   0.12142   0.14135   0.18233
  Beta virt. eigenvalues --    0.18234   0.21983   0.21984   0.24283   0.27114

 Mulliken charges and spin densities:
               1          2
     1  C   -0.495806  -0.000000
     2  C   -0.495806   0.000000
     3  H    0.165269  -0.000000
     4  H    0.165269   0.000000
     5  H    0.165269  -0.000000
     6  H    0.165268  -0.000000
     7  H    0.165269   0.000000
     8  H    0.165268   0.000000
 Sum of Mulliken charges =  -0.00000  -0.00000

 Dipole moment (field-independent basis, Debye):
    X=             -0.0000    Y=              0.0000    Z=              0.0000  Tot=              0.0000
 Quadrupole moment (field-independent basis, Debye-Ang):
   XX=            -15.5965   YY=            -14.8916   ZZ=            -14.8915
   XY=              0.0000   XZ=             -0.0001   YZ=              0.0000

 Normal termination of Gaussian 16 at Tue Nov 19 12:04:49 2024.
