 Gaussian 16, Revision A.03,
 Gaussian 16:  ES64L-G16RevA.03 25-Dec-2016

 --------------------------------------------
 #p opt UM062X/6-311+G** nosymm int=superfine
 --------------------------------------------

 -------------------
 Title Card Required
 -------------------
 Symbolic Z-matrix:
 Charge =  0 Multiplicity = 1

 SCF Done:  E(UM062X) =  -79.6914627428     A.U. after    8 cycles
 SCF Done:  E(UM062X) =  -79.7173203621     A.U. after    8 cycles
 SCF Done:  E(UM062X) =  -79.7347345806     A.U. after   10 cycles
 SCF Done:  E(UM062X) =  -79.7350050626     A.U. after    7 cycles
 Optimization completed.
    -- Stationary point found.

                          Input orientation:
 ---------------------------------------------------------------------
 Center     Atomic      Atomic             Coordinates (Angstroms)
 Number     Number       Type             X           Y           Z
 ---------------------------------------------------------------------
      1          6           0       -1.030788    0.000000    0.000000
      2          6           0        1.030894    0.000000    0.000000
      3          1           0        1.311560   -0.907099    0.524924
      4          1           0       -1.311457   -0.908126   -0.523156
      5          1           0        1.311564    0.908124    0.523154
      6          1           0        1.311632   -0.001024   -1.048014
      7          1           0       -1.311455    0.907100   -0.524924
      8          1           0       -1.311529    0.001023    1.048012
 ---------------------------------------------------------------------

 Alpha  occ. eigenvalues --  -10.54703 -10.54694  -0.78825  -0.72720  -0.48365
 Alpha  occ. eigenvalues --   -0.48364  -0.44552  -0.44551  -0.32690
 Alpha virt. eigenvalues --    0.02345   0.02350   0.05628   0.05628   0.08467
 Alpha virt. eigenvalues --    0.08467   0.09554   0.10535   0.13624   0.18185
 Alpha virt. eigenvalues --    0.18186   0.22052   0.22052   0.24305   0.26903

  Beta  occ. eigenvalues --  -10.54703 -10.54694  -0.78825  -0.72720  -0.48365
  Beta  occ. eigenvalues --   -0.48364  -0.44552  -0.44551  -0.32690
  Beta virt. eigenvalues --    0.02345   0.02350   0.05628   0.05628   0.08467
  Beta virt. eigenvalues --    0.08467   0.09554   0.10535   0.13624   0.18185
  Beta virt. eigenvalues --    0.18186   0.22052   0.22052   0.24305   0.26903

 Mulliken charges and spin densities:
               1          2
     1  C   -0.499284   0.000000
     2  C   -0.499285  -0.000000
     3  H    0.166429   0.000000
     4  H    0.166428  -0.000000
     5  H    0.166428   0.000000
     6  H    0.166427   0.000000
     7  H    0.166429  -0.000000
     8  H    0.166427  -0.000000
 Sum of Mulliken charges =  -0.00000  -0.00000

 Dipole moment (field-independent basis, Debye):
    X=             -0.0000    Y=              0.0000    Z=              0.0000  Tot=              0.0000
 Quadrupole moment (field-independent basis, Debye-Ang):
   XX=            -15.5916   YY=            -14.8698   ZZ=            -14.8696
   XY=             -0.0000   XZ=             -0.0001   YZ=              0.0000

 Normal termination of Gaussian 16 at Tue Nov 19 12:07:40 2024.
