 Gaussian 16, Revision A.03,
 Gaussian 16:  ES64L-G16RevA.03 25-Dec-2016

 --------------------------------------------
 #p opt UM062X/6-311+G** nosymm int=superfine
 --------------------------------------------

 -------------------
 Title Card Required
 -------------------
 Symbolic Z-matrix:
 Charge =  1 Multiplicity = 2

 SCF Done:  E(UM062X) =  -582.159752575     A.U. after   11 cycles
 SCF Done:  E(UM062X) =  -582.160077452     A.U. after    9 cycles
 SCF Done:  E(UM062X) =  -582.160108098     A.U. after    8 cycles
 Optimization completed.
    -- Stationary point found.

                          Input orientation:
 ---------------------------------------------------------------------
 Center     Atomic      Atomic             Coordinates (Angstroms)
 Number     Number       Type             X           Y           Z
 ---------------------------------------------------------------------
      1         14           0       -1.776292    0.000000    0.000000
      2         14           0        1.776292    0.000000    0.000000
      3          1           0        1.930751   -1.456780    0.000003
      4          1           0       -1.930525   -0.728274    1.261692
      5          1           0        1.931017    0.728415   -1.261549
      6          1           0        1.930363    0.728365    1.261660
      7          1           0       -1.930775    1.456777   -0.000105
      8          1           0       -1.930831   -0.728512   -1.261517
 ---------------------------------------------------------------------

 Alpha  occ. eigenvalues --  -67.23513 -67.23512  -5.78344  -5.78343  -4.10026
 Alpha  occ. eigenvalues --   -4.10025  -4.09218  -4.09218  -4.09218  -4.09218
 Alpha  occ. eigenvalues --   -0.82831  -0.81282  -0.62681  -0.62681  -0.62113
 Alpha  occ. eigenvalues --   -0.62112  -0.46069
 Alpha virt. eigenvalues --   -0.26992  -0.14080  -0.11995  -0.11013  -0.11013
 Alpha virt. eigenvalues --   -0.09867  -0.09788  -0.09788  -0.08253  -0.08253
 Alpha virt. eigenvalues --   -0.07805  -0.06417  -0.06416  -0.04015   0.00835

  Beta  occ. eigenvalues --  -67.23254 -67.23254  -5.78271  -5.78270  -4.09404
  Beta  occ. eigenvalues --   -4.09404  -4.09131  -4.09131  -4.09131  -4.09131
  Beta  occ. eigenvalues --   -0.80679  -0.79803  -0.62421  -0.62421  -0.61917
  Beta  occ. eigenvalues --   -0.61917
  Beta virt. eigenvalues --   -0.29682  -0.21457  -0.14461  -0.12014  -0.12013
  Beta virt. eigenvalues --   -0.10996  -0.10100  -0.10100  -0.09821  -0.07695
  Beta virt. eigenvalues --   -0.07695  -0.06565  -0.06168  -0.06168  -0.03957

 Mulliken charges and spin densities:
               1          2
     1  Si   0.499240   0.551911
     2  Si   0.499240   0.551911
     3  H    0.000258  -0.017302
     4  H    0.000247  -0.017304
     5  H    0.000260  -0.017308
     6  H    0.000242  -0.017301
     7  H    0.000259  -0.017302
     8  H    0.000254  -0.017305
 Sum of Mulliken charges =   1.00000   1.00000

 Dipole moment (field-independent basis, Debye):
    X=              0.0000    Y=             -0.0000    Z=              0.0000  Tot=              0.0000
 Quadrupole moment (field-independent basis, Debye-Ang):
   XX=             -5.7012   YY=            -25.9953   ZZ=            -25.9954
   XY=             -0.0001   XZ=              0.0000   YZ=              0.0000

 Normal termination of Gaussian 16 at Mon Apr 21 20:13:46 2025.
