 Gaussian 16, Revision A.03,
 Gaussian 16:  ES64L-G16RevA.03 25-Dec-2016

 ---------------------------------------
 #p UM062X/6-311+G** force int=superfine
 ---------------------------------------

 -------------------
 Title Card Required
 -------------------
 Symbolic Z-matrix:
 Charge =  1 Multiplicity = 2

                         Standard orientation:
 ---------------------------------------------------------------------
 Center     Atomic      Atomic             Coordinates (Angstroms)
 Number     Number       Type             X           Y           Z
 ---------------------------------------------------------------------
      1          6           0       -0.770459    0.000067   -0.005035
      2          6           0        0.770313   -0.000005    0.005227
      3          1           0        1.256238    0.917846   -0.314042
      4          1           0       -1.256756    0.919984    0.307425
      5          1           0        1.256581   -0.919386   -0.309124
      6          1           0        0.660323    0.003326    1.151001
      7          1           0       -1.257502   -0.917110    0.314472
      8          1           0       -0.658005   -0.005032   -1.150889
 ---------------------------------------------------------------------

 SCF Done:  E(UM062X) =  -79.3718044524     A.U. after   12 cycles

 The electronic state is 2-A.
 Alpha  occ. eigenvalues --  -10.85024 -10.84987  -1.17980  -0.98984  -0.82924
 Alpha  occ. eigenvalues --   -0.80695  -0.75495  -0.70774  -0.64743
 Alpha virt. eigenvalues --   -0.17432  -0.12685  -0.12249  -0.11787  -0.10824
 Alpha virt. eigenvalues --   -0.07719  -0.06468  -0.05703  -0.05465  -0.02089
 Alpha virt. eigenvalues --   -0.00362   0.00693   0.03443   0.03558   0.04208

  Beta  occ. eigenvalues --  -10.84803 -10.84767  -1.15063  -0.96086  -0.79895
  Beta  occ. eigenvalues --   -0.77614  -0.73983  -0.70205
  Beta virt. eigenvalues --   -0.42757  -0.17168  -0.12895  -0.11667  -0.11625
  Beta virt. eigenvalues --   -0.10415  -0.07784  -0.06510  -0.05435  -0.03505
  Beta virt. eigenvalues --   -0.01776   0.00166   0.01076   0.04262   0.04287

 Mulliken charges and spin densities:
               1          2
     1  C   -0.368630   0.344034
     2  C   -0.369876   0.342596
     3  H    0.277954  -0.013384
     4  H    0.277940  -0.013518
     5  H    0.277896  -0.013368
     6  H    0.313332   0.183488
     7  H    0.278001  -0.013427
     8  H    0.313384   0.183579
 Sum of Mulliken charges =   1.00000   1.00000

 Dipole moment (field-independent basis, Debye):
    X=             -0.0011    Y=             -0.0010    Z=             -0.0013  Tot=              0.0020
 Quadrupole moment (field-independent basis, Debye-Ang):
   XX=             -8.1898   YY=            -10.8908   ZZ=             -9.8801
   XY=              0.0020   XZ=              0.4065   YZ=              0.0052

 Normal termination of Gaussian 16 at Tue Nov 19 08:42:57 2024.
