 Gaussian 16, Revision A.03,
 Gaussian 16:  ES64L-G16RevA.03 25-Dec-2016

 --------------------------------------------
 #p opt UM062X/6-311+G** nosymm int=superfine
 --------------------------------------------

 -------------------
 Title Card Required
 -------------------
 Symbolic Z-matrix:
 Charge =  0 Multiplicity = 1

 SCF Done:  E(UM062X) =  -93.0470563499     A.U. after   11 cycles
 SCF Done:  E(UM062X) =  -93.0477065655     A.U. after   10 cycles
 Optimization completed.
    -- Stationary point found.

                          Input orientation:
 ---------------------------------------------------------------------
 Center     Atomic      Atomic             Coordinates (Angstroms)
 Number     Number       Type             X           Y           Z
 ---------------------------------------------------------------------
      1          6           0       -0.947395    0.000000    0.000000
      2          7           0        0.947395    0.000000    0.000000
      3          1           0       -2.046434   -0.000000    0.000000
 ---------------------------------------------------------------------

 Alpha  occ. eigenvalues --  -14.89618 -10.72769  -0.85466  -0.75340  -0.45519
 Alpha  occ. eigenvalues --   -0.33190  -0.33190
 Alpha virt. eigenvalues --   -0.11606  -0.11606  -0.04948   0.01810   0.06631
 Alpha virt. eigenvalues --    0.07285   0.07285   0.13574   0.16951   0.16951
 Alpha virt. eigenvalues --    0.21236   0.27034   0.47975   0.54935   0.54935

  Beta  occ. eigenvalues --  -14.89618 -10.72769  -0.85466  -0.75340  -0.45519
  Beta  occ. eigenvalues --   -0.33190  -0.33190
  Beta virt. eigenvalues --   -0.11606  -0.11606  -0.04948   0.01810   0.06631
  Beta virt. eigenvalues --    0.07285   0.07285   0.13574   0.16951   0.16951
  Beta virt. eigenvalues --    0.21236   0.27034   0.47975   0.54935   0.54935

 Mulliken charges and spin densities:
               1          2
     1  C   -0.178013  -0.000000
     2  N   -0.059941   0.000000
     3  H    0.237954   0.000000
 Sum of Mulliken charges =  -0.00000   0.00000

 Dipole moment (field-independent basis, Debye):
    X=             -3.2129    Y=              0.0000    Z=              0.0000  Tot=              3.2129
 Quadrupole moment (field-independent basis, Debye-Ang):
   XX=             -7.3233   YY=            -13.9120   ZZ=            -13.9120
   XY=             -0.0000   XZ=              0.0000   YZ=              0.0000

 Normal termination of Gaussian 16 at Mon Apr 21 18:38:31 2025.
