 Gaussian 16, Revision A.03,
 Gaussian 16:  ES64L-G16RevA.03 25-Dec-2016

 --------------------------------------------
 #p opt UM062X/6-311+G** nosymm int=superfine
 --------------------------------------------

 -------------------
 Title Card Required
 -------------------
 Symbolic Z-matrix:
 Charge = -1 Multiplicity = 2

 SCF Done:  E(UM062X) =  -50.7806814584     A.U. after   11 cycles

 Alpha  occ. eigenvalues --   -6.82144  -6.82061  -0.36202  -0.29653  -0.19985
 Alpha  occ. eigenvalues --   -0.02998  -0.01368
 Alpha virt. eigenvalues --    0.14294   0.15597   0.18293   0.18861   0.20183
 Alpha virt. eigenvalues --    0.21316   0.21784   0.26204   0.27782   0.28772
 Alpha virt. eigenvalues --    0.33338   0.39640   0.51052   0.55762   0.59293

  Beta  occ. eigenvalues --   -6.82098  -6.82021  -0.33499  -0.28753  -0.19459
  Beta  occ. eigenvalues --    0.00691
  Beta virt. eigenvalues --    0.11548   0.14511   0.15085   0.17372   0.19117
  Beta virt. eigenvalues --    0.19444   0.21048   0.21651   0.24072   0.30548
  Beta virt. eigenvalues --    0.31385   0.34542   0.40062   0.51884   0.56296

 Mulliken charges and spin densities:
               1          2
     1  B   -0.453834   0.525503
     2  B   -0.453834   0.525503
     3  H   -0.046166  -0.025503
     4  H   -0.046166  -0.025503
 Sum of Mulliken charges =  -1.00000   1.00000

 Dipole moment (field-independent basis, Debye):
    X=             -0.0000    Y=              0.0000    Z=             -0.0000  Tot=              0.0000
 Quadrupole moment (field-independent basis, Debye-Ang):
   XX=            -22.3204   YY=            -26.8651   ZZ=            -20.6401
   XY=              0.0040   XZ=              0.0000   YZ=             -0.0000

 Optimization completed.
    -- Stationary point found.

                          Input orientation:
 ---------------------------------------------------------------------
 Center     Atomic      Atomic             Coordinates (Angstroms)
 Number     Number       Type             X           Y           Z
 ---------------------------------------------------------------------
      1          5           0       -0.791404    0.000000    0.000000
      2          5           0        0.791404    0.000000    0.000000
      3          1           0       -1.975183   -0.000904    0.000000
      4          1           0        1.975183    0.000904    0.000000
 ---------------------------------------------------------------------

 Normal termination of Gaussian 16 at Mon Apr 21 17:30:09 2025.
