 Gaussian 16, Revision A.03,
 Gaussian 16:  ES64L-G16RevA.03 25-Dec-2016

 --------------------------------------------
 #p opt UM062X/6-311+G** nosymm int=superfine
 --------------------------------------------

 -------------------
 Title Card Required
 -------------------
 Symbolic Z-matrix:
 Charge =  0 Multiplicity = 1

 SCF Done:  E(UM062X) =  -79.5540352762     A.U. after   10 cycles
 SCF Done:  E(UM062X) =  -79.5585172621     A.U. after   10 cycles
 SCF Done:  E(UM062X) =  -79.5606626833     A.U. after   11 cycles
 SCF Done:  E(UM062X) =  -79.5606850218     A.U. after    9 cycles
 Optimization completed.
    -- Stationary point found.

                          Input orientation:
 ---------------------------------------------------------------------
 Center     Atomic      Atomic             Coordinates (Angstroms)
 Number     Number       Type             X           Y           Z
 ---------------------------------------------------------------------
      1          6           0       -2.221675    0.000000    0.000000
      2          6           0        2.221800    0.000000    0.000000
      3          1           0        2.257640   -0.934095    0.540511
      4          1           0       -2.257495   -0.935149   -0.538687
      5          1           0        2.257624    0.935149    0.538687
      6          1           0        2.257669   -0.001053   -1.079205
      7          1           0       -2.257514    0.934095   -0.540511
      8          1           0       -2.257548    0.001052    1.079205
 ---------------------------------------------------------------------

 Alpha  occ. eigenvalues --  -10.57250 -10.57249  -0.77206  -0.77031  -0.49437
 Alpha  occ. eigenvalues --   -0.49437  -0.49384  -0.49383  -0.20789
 Alpha virt. eigenvalues --   -0.12536   0.03033   0.04773   0.05250   0.05250
 Alpha virt. eigenvalues --    0.07194   0.07194   0.10805   0.12913   0.18803
 Alpha virt. eigenvalues --    0.18803   0.19768   0.19768   0.20612   0.25355

  Beta  occ. eigenvalues --  -10.57250 -10.57249  -0.77206  -0.77031  -0.49437
  Beta  occ. eigenvalues --   -0.49437  -0.49384  -0.49383  -0.20789
  Beta virt. eigenvalues --   -0.12536   0.03033   0.04773   0.05250   0.05250
  Beta virt. eigenvalues --    0.07194   0.07194   0.10805   0.12913   0.18803
  Beta virt. eigenvalues --    0.18803   0.19768   0.19768   0.20612   0.25355

 Mulliken charges and spin densities:
               1          2
     1  C   -0.519589  -0.000002
     2  C   -0.519589   0.000002
     3  H    0.173197  -0.000000
     4  H    0.173197   0.000000
     5  H    0.173197  -0.000000
     6  H    0.173195  -0.000000
     7  H    0.173197   0.000000
     8  H    0.173195   0.000000
 Sum of Mulliken charges =  -0.00000   0.00000

 Dipole moment (field-independent basis, Debye):
    X=             -0.0000    Y=             -0.0000    Z=             -0.0000  Tot=              0.0000
 Quadrupole moment (field-independent basis, Debye-Ang):
   XX=            -16.3154   YY=            -14.8871   ZZ=            -14.8872
   XY=             -0.0000   XZ=             -0.0001   YZ=             -0.0000

 Normal termination of Gaussian 16 at Tue Dec  3 10:11:57 2024.
