 Gaussian 16, Revision A.03,
 Gaussian 16:  ES64L-G16RevA.03 25-Dec-2016

 --------------------------------------------
 #p opt UM062X/6-311+G** nosymm int=superfine
 --------------------------------------------

 -------------------
 Title Card Required
 -------------------
 Symbolic Z-matrix:
 Charge =  1 Multiplicity = 2

 SCF Done:  E(UM062X) =  -379.374877541     A.U. after   29 cycles
 SCF Done:  E(UM062X) =  -379.375245148     A.U. after   19 cycles
 Optimization completed.
    -- Stationary point found.

                          Input orientation:
 ---------------------------------------------------------------------
 Center     Atomic      Atomic             Coordinates (Angstroms)
 Number     Number       Type             X           Y           Z
 ---------------------------------------------------------------------
      1          6           0       -1.244427    0.000000    0.000000
      2         15           0        1.244427    0.000000    0.000000
      3          1           0       -2.353246    0.000000    0.000000
 ---------------------------------------------------------------------

 Alpha  occ. eigenvalues --  -78.39935 -10.96998  -7.21047  -5.32923  -5.32510
 Alpha  occ. eigenvalues --   -5.31885  -1.00820  -0.90755  -0.68337  -0.54549
 Alpha  occ. eigenvalues --   -0.52759
 Alpha virt. eigenvalues --   -0.39341  -0.36703  -0.33890  -0.13372  -0.10540
 Alpha virt. eigenvalues --   -0.09061  -0.08814  -0.08404  -0.05419  -0.05350
 Alpha virt. eigenvalues --   -0.00679   0.03327   0.11865   0.14462   0.14476

  Beta  occ. eigenvalues --  -78.39520 -10.96770  -7.20958  -5.32410  -5.31911
  Beta  occ. eigenvalues --   -5.31601  -0.98392  -0.87881  -0.67135  -0.51288
  Beta virt. eigenvalues --   -0.37030  -0.35654  -0.32385  -0.31515  -0.14486
  Beta virt. eigenvalues --   -0.11056  -0.09054  -0.08930  -0.08682  -0.05520
  Beta virt. eigenvalues --   -0.05504  -0.01788   0.03770   0.11367   0.11801

 Mulliken charges and spin densities:
               1          2
     1  C   -0.006612   0.454392
     2  P    0.695365   0.564181
     3  H    0.311247  -0.018573
 Sum of Mulliken charges =   1.00000   1.00000

 Dipole moment (field-independent basis, Debye):
    X=              0.0057    Y=              0.0000    Z=             -0.0000  Tot=              0.0057
 Quadrupole moment (field-independent basis, Debye-Ang):
   XX=             -0.0892   YY=            -19.4558   ZZ=            -16.1212
   XY=              0.0000   XZ=              0.0000   YZ=              0.0164

 Normal termination of Gaussian 16 at Mon Apr 21 19:22:44 2025.
