 Gaussian 16, Revision A.03,
 Gaussian 16:  ES64L-G16RevA.03 25-Dec-2016

 --------------------------------------------
 #p opt UM062X/6-311+G** nosymm int=superfine
 --------------------------------------------

 -------------------
 Title Card Required
 -------------------
 Symbolic Z-matrix:
 Charge =  0 Multiplicity = 1

 SCF Done:  E(UM062X) =  -797.409064267     A.U. after   13 cycles
 SCF Done:  E(UM062X) =  -797.409531853     A.U. after   12 cycles
 SCF Done:  E(UM062X) =  -797.410480246     A.U. after   15 cycles
 SCF Done:  E(UM062X) =  -797.410514804     A.U. after   14 cycles
 SCF Done:  E(UM062X) =  -797.410590401     A.U. after   15 cycles
 SCF Done:  E(UM062X) =  -797.410598373     A.U. after   17 cycles
 SCF Done:  E(UM062X) =  -797.410601626     A.U. after   15 cycles
 SCF Done:  E(UM062X) =  -797.410597697     A.U. after   14 cycles
 SCF Done:  E(UM062X) =  -797.410609381     A.U. after   16 cycles
 SCF Done:  E(UM062X) =  -797.410610718     A.U. after   13 cycles
 SCF Done:  E(UM062X) =  -797.410610826     A.U. after   19 cycles
 SCF Done:  E(UM062X) =  -797.410610397     A.U. after   11 cycles
 SCF Done:  E(UM062X) =  -797.410611597     A.U. after   17 cycles
 SCF Done:  E(UM062X) =  -797.410611617     A.U. after   11 cycles
 SCF Done:  E(UM062X) =  -797.410611628     A.U. after   15 cycles
 Optimization completed.
    -- Stationary point found.

                          Input orientation:
 ---------------------------------------------------------------------
 Center     Atomic      Atomic             Coordinates (Angstroms)
 Number     Number       Type             X           Y           Z
 ---------------------------------------------------------------------
      1         16           0       -1.918191    0.000000    0.000000
      2         16           0        1.918191    0.000000    0.000000
      3          1           0       -1.793281   -1.315341   -0.258334
      4          1           0        1.792701    0.279353    1.310963
 ---------------------------------------------------------------------

 Alpha  occ. eigenvalues --  -89.94664 -89.94663  -8.30871  -8.30870  -6.23023
 Alpha  occ. eigenvalues --   -6.23023  -6.22763  -6.22763  -6.22198  -6.22198
 Alpha  occ. eigenvalues --   -0.81651  -0.81036  -0.47410  -0.47338  -0.33528
 Alpha  occ. eigenvalues --   -0.33278  -0.31904
 Alpha virt. eigenvalues --   -0.20763   0.01934   0.03084   0.04453   0.04931
 Alpha virt. eigenvalues --    0.06513   0.06937   0.07325   0.07455   0.09814
 Alpha virt. eigenvalues --    0.13049   0.30707   0.31095   0.32747   0.34874

  Beta  occ. eigenvalues --  -89.94664 -89.94663  -8.30871  -8.30870  -6.23023
  Beta  occ. eigenvalues --   -6.23023  -6.22763  -6.22763  -6.22198  -6.22198
  Beta  occ. eigenvalues --   -0.81651  -0.81036  -0.47410  -0.47338  -0.33528
  Beta  occ. eigenvalues --   -0.33278  -0.31904
  Beta virt. eigenvalues --   -0.20763   0.01934   0.03084   0.04453   0.04931
  Beta virt. eigenvalues --    0.06513   0.06937   0.07325   0.07455   0.09814
  Beta virt. eigenvalues --    0.13049   0.30707   0.31095   0.32747   0.34874

 Mulliken charges and spin densities:
               1          2
     1  S   -0.084637  -0.000000
     2  S   -0.084590   0.000000
     3  H    0.084613   0.000000
     4  H    0.084615   0.000000
 Sum of Mulliken charges =  -0.00000   0.00000

 Dipole moment (field-independent basis, Debye):
    X=             -0.0002    Y=             -0.8553    Z=              0.8692  Tot=              1.2194
 Quadrupole moment (field-independent basis, Debye-Ang):
   XX=            -25.2333   YY=            -28.0640   ZZ=            -28.1151
   XY=              2.5174   XZ=              2.4764   YZ=              1.5920

 Normal termination of Gaussian 16 at Mon Apr 21 21:19:21 2025.
