 Gaussian 16, Revision A.03,
 Gaussian 16:  ES64L-G16RevA.03 25-Dec-2016

 --------------------------------------------
 #p opt UM062X/6-311+G** nosymm int=superfine
 --------------------------------------------

 -------------------
 Title Card Required
 -------------------
 Symbolic Z-matrix:
 Charge =  0 Multiplicity = 1

 SCF Done:  E(UM062X) =  -474.414568169     A.U. after   19 cycles
 SCF Done:  E(UM062X) =  -474.416896428     A.U. after   17 cycles
 SCF Done:  E(UM062X) =  -474.419128750     A.U. after   19 cycles
 SCF Done:  E(UM062X) =  -474.419174212     A.U. after   17 cycles
 SCF Done:  E(UM062X) =  -474.419177081     A.U. after   15 cycles
 SCF Done:  E(UM062X) =  -474.419176963     A.U. after   16 cycles
 SCF Done:  E(UM062X) =  -474.419178568     A.U. after   12 cycles
 SCF Done:  E(UM062X) =  -474.419178783     A.U. after   18 cycles
 SCF Done:  E(UM062X) =  -474.419178794     A.U. after   11 cycles
 Optimization completed.
    -- Stationary point found.

                          Input orientation:
 ---------------------------------------------------------------------
 Center     Atomic      Atomic             Coordinates (Angstroms)
 Number     Number       Type             X           Y           Z
 ---------------------------------------------------------------------
      1          8           0       -1.439392    0.000000    0.000000
      2         16           0        1.439392    0.000000    0.000000
      3          1           0       -1.439864   -0.924123   -0.294710
      4          1           0        1.284738    0.442651    1.261819
 ---------------------------------------------------------------------

 Alpha  occ. eigenvalues --  -89.97784 -19.67528  -8.33859  -6.26079  -6.25705
 Alpha  occ. eigenvalues --   -6.25145  -1.08638  -0.83526  -0.52666  -0.49387
 Alpha  occ. eigenvalues --   -0.39882  -0.36854  -0.35341
 Alpha virt. eigenvalues --   -0.19409   0.01619   0.04013   0.04667   0.05572
 Alpha virt. eigenvalues --    0.07222   0.14389   0.19429   0.19955   0.21358
 Alpha virt. eigenvalues --    0.26092   0.31083   0.33988   0.35444   0.39740

  Beta  occ. eigenvalues --  -89.97784 -19.67528  -8.33859  -6.26079  -6.25705
  Beta  occ. eigenvalues --   -6.25145  -1.08638  -0.83526  -0.52666  -0.49387
  Beta  occ. eigenvalues --   -0.39882  -0.36854  -0.35341
  Beta virt. eigenvalues --   -0.19409   0.01619   0.04013   0.04667   0.05572
  Beta virt. eigenvalues --    0.07222   0.14389   0.19429   0.19955   0.21358
  Beta virt. eigenvalues --    0.26092   0.31083   0.33988   0.35444   0.39740

 Mulliken charges and spin densities:
               1          2
     1  O   -0.419185  -0.000000
     2  S    0.058582   0.000000
     3  H    0.248972   0.000000
     4  H    0.111631  -0.000000
 Sum of Mulliken charges =   0.00000  -0.00000

 Dipole moment (field-independent basis, Debye):
    X=              2.0489    Y=             -1.2446    Z=              0.5849  Tot=              2.4676
 Quadrupole moment (field-independent basis, Debye-Ang):
   XX=            -18.1791   YY=            -19.9185   ZZ=            -18.7430
   XY=              3.1725   XZ=              2.4551   YZ=              2.0207

 Normal termination of Gaussian 16 at Thu May 15 13:03:25 2025.
