 Gaussian 16, Revision A.03,
 Gaussian 16:  ES64L-G16RevA.03 25-Dec-2016

 --------------------------------------------
 #p opt UM062X/6-311+G** nosymm int=superfine
 --------------------------------------------

 -------------------
 Title Card Required
 -------------------
 Symbolic Z-matrix:
 Charge =  0 Multiplicity = 1

 SCF Done:  E(UM062X) =  -380.936330640     A.U. after   23 cycles
 SCF Done:  E(UM062X) =  -380.938713511     A.U. after   15 cycles
 SCF Done:  E(UM062X) =  -380.939707748     A.U. after   17 cycles
 SCF Done:  E(UM062X) =  -380.939816269     A.U. after   14 cycles
 SCF Done:  E(UM062X) =  -380.939891243     A.U. after   18 cycles
 SCF Done:  E(UM062X) =  -380.940065709     A.U. after   16 cycles
 SCF Done:  E(UM062X) =  -380.940101071     A.U. after   16 cycles
 SCF Done:  E(UM062X) =  -380.940103715     A.U. after   18 cycles
 SCF Done:  E(UM062X) =  -380.940105285     A.U. after   13 cycles
 SCF Done:  E(UM062X) =  -380.940108612     A.U. after   21 cycles
 SCF Done:  E(UM062X) =  -380.940111910     A.U. after   16 cycles
 SCF Done:  E(UM062X) =  -380.940113296     A.U. after   24 cycles
 SCF Done:  E(UM062X) =  -380.940113838     A.U. after   14 cycles
 SCF Done:  E(UM062X) =  -380.940114005     A.U. after   15 cycles
 SCF Done:  E(UM062X) =  -380.940114022     A.U. after   13 cycles
 Optimization completed.
    -- Stationary point found.

                          Input orientation:
 ---------------------------------------------------------------------
 Center     Atomic      Atomic             Coordinates (Angstroms)
 Number     Number       Type             X           Y           Z
 ---------------------------------------------------------------------
      1          6           0       -1.805452    0.000000    0.000000
      2         15           0        1.805452    0.000000    0.000000
      3          1           0       -2.507599   -0.852755   -0.000529
      4          1           0        1.553845   -1.398890   -0.004299
      5          1           0       -2.456657    0.892084    0.000794
 ---------------------------------------------------------------------

 Alpha  occ. eigenvalues --  -78.04042 -10.63458  -6.86264  -4.98259  -4.97507
 Alpha  occ. eigenvalues --   -4.97062  -0.77718  -0.65017  -0.50175  -0.37747
 Alpha  occ. eigenvalues --   -0.33776  -0.23887
 Alpha virt. eigenvalues --   -0.10417  -0.10195   0.01229   0.04038   0.04732
 Alpha virt. eigenvalues --    0.06230   0.06927   0.07483   0.08768   0.11150
 Alpha virt. eigenvalues --    0.13547   0.17075   0.18469   0.31240   0.34333

  Beta  occ. eigenvalues --  -78.04042 -10.63458  -6.86264  -4.98259  -4.97507
  Beta  occ. eigenvalues --   -4.97062  -0.77718  -0.65017  -0.50175  -0.37747
  Beta  occ. eigenvalues --   -0.33776  -0.23887
  Beta virt. eigenvalues --   -0.10417  -0.10195   0.01229   0.04038   0.04732
  Beta virt. eigenvalues --    0.06230   0.06927   0.07483   0.08768   0.11150
  Beta virt. eigenvalues --    0.13547   0.17075   0.18469   0.31240   0.34333

 Mulliken charges and spin densities:
               1          2
     1  C   -0.301468   0.000000
     2  P    0.034234  -0.000000
     3  H    0.149941  -0.000000
     4  H   -0.032709   0.000000
     5  H    0.150002   0.000000
 Sum of Mulliken charges =  -0.00000  -0.00000

 Dipole moment (field-independent basis, Debye):
    X=             -2.8578    Y=             -0.5943    Z=             -0.0016  Tot=              2.9189
 Quadrupole moment (field-independent basis, Debye-Ang):
   XX=            -13.4156   YY=            -21.3427   ZZ=            -25.4607
   XY=             -1.8138   XZ=             -0.0047   YZ=              0.0136

 Normal termination of Gaussian 16 at Mon Apr 21 19:19:12 2025.
