 Gaussian 16, Revision A.03,
 Gaussian 16:  ES64L-G16RevA.03 25-Dec-2016

 --------------------------------------------
 #p opt UM062X/6-311+G** nosymm int=superfine
 --------------------------------------------

 -------------------
 Title Card Required
 -------------------
 Symbolic Z-matrix:
 Charge =  1 Multiplicity = 2

 SCF Done:  E(UM062X) =  -79.3642088843     A.U. after    9 cycles
 SCF Done:  E(UM062X) =  -79.3688918687     A.U. after    9 cycles
 SCF Done:  E(UM062X) =  -79.3690112135     A.U. after    8 cycles
 Optimization completed.
    -- Stationary point found.

                          Input orientation:
 ---------------------------------------------------------------------
 Center     Atomic      Atomic             Coordinates (Angstroms)
 Number     Number       Type             X           Y           Z
 ---------------------------------------------------------------------
      1          6           0       -1.012937    0.000000    0.000000
      2          6           0        1.012937    0.000000    0.000000
      3          1           0        1.147840   -0.932310    0.539533
      4          1           0       -1.147228   -0.933447   -0.537736
      5          1           0        1.147434    0.933488    0.537611
      6          1           0        1.147216   -0.001088   -1.077258
      7          1           0       -1.147850    0.932348   -0.539466
      8          1           0       -1.147409    0.000964    1.077234
 ---------------------------------------------------------------------

 Alpha  occ. eigenvalues --  -10.86081 -10.86071  -1.10715  -1.01451  -0.78801
 Alpha  occ. eigenvalues --   -0.78800  -0.73663  -0.73663  -0.63251
 Alpha virt. eigenvalues --   -0.23760  -0.16503  -0.11192  -0.11192  -0.09841
 Alpha virt. eigenvalues --   -0.07272  -0.06420  -0.06419  -0.05486  -0.05484
 Alpha virt. eigenvalues --   -0.01906   0.01589   0.01592   0.04295   0.07392

  Beta  occ. eigenvalues --  -10.85863 -10.85863  -1.07187  -0.98479  -0.77811
  Beta  occ. eigenvalues --   -0.77810  -0.72863  -0.72862
  Beta virt. eigenvalues --   -0.39685  -0.17408  -0.16117  -0.11143  -0.11143
  Beta virt. eigenvalues --   -0.08091  -0.07448  -0.06642  -0.06641  -0.05061
  Beta virt. eigenvalues --   -0.05058  -0.00989   0.02248   0.02251   0.04806

 Mulliken charges and spin densities:
               1          2
     1  C   -0.318444   0.548115
     2  C   -0.318444   0.548115
     3  H    0.272823  -0.016063
     4  H    0.272805  -0.016027
     5  H    0.272814  -0.016031
     6  H    0.272807  -0.016022
     7  H    0.272824  -0.016063
     8  H    0.272816  -0.016026
 Sum of Mulliken charges =   1.00000   1.00000

 Dipole moment (field-independent basis, Debye):
    X=              0.0000    Y=             -0.0000    Z=             -0.0000  Tot=              0.0000
 Quadrupole moment (field-independent basis, Debye-Ang):
   XX=             -6.3920   YY=            -10.7647   ZZ=            -10.7646
   XY=             -0.0005   XZ=              0.0003   YZ=              0.0001

 Normal termination of Gaussian 16 at Wed Nov 13 13:27:31 2024.
