 Gaussian 16, Revision A.03,
 Gaussian 16:  ES64L-G16RevA.03 25-Dec-2016

 --------------------------------------------
 #p opt UM062X/6-311+G** nosymm int=superfine
 --------------------------------------------

 -------------------
 Title Card Required
 -------------------
 Symbolic Z-matrix:
 Charge =  0 Multiplicity = 1

 SCF Done:  E(UM062X) =  -79.5639032533     A.U. after   10 cycles
 SCF Done:  E(UM062X) =  -79.5680234720     A.U. after    9 cycles
 SCF Done:  E(UM062X) =  -79.5698378565     A.U. after   10 cycles
 SCF Done:  E(UM062X) =  -79.5698534184     A.U. after   10 cycles
 Optimization completed.
    -- Stationary point found.

                          Input orientation:
 ---------------------------------------------------------------------
 Center     Atomic      Atomic             Coordinates (Angstroms)
 Number     Number       Type             X           Y           Z
 ---------------------------------------------------------------------
      1          6           0       -2.046675    0.000000    0.000000
      2          6           0        2.046800    0.000000    0.000000
      3          1           0        2.095402   -0.933717    0.540293
      4          1           0       -2.095260   -0.934770   -0.538470
      5          1           0        2.095388    0.934770    0.538469
      6          1           0        2.095413   -0.001052   -1.078769
      7          1           0       -2.095277    0.933717   -0.540293
      8          1           0       -2.095292    0.001052    1.078769
 ---------------------------------------------------------------------

 Alpha  occ. eigenvalues --  -10.57264 -10.57263  -0.77156  -0.76896  -0.49342
 Alpha  occ. eigenvalues --   -0.49342  -0.49244  -0.49244  -0.21352
 Alpha virt. eigenvalues --   -0.11801   0.03096   0.04902   0.05278   0.05278
 Alpha virt. eigenvalues --    0.07329   0.07329   0.11235   0.12699   0.18702
 Alpha virt. eigenvalues --    0.18702   0.20034   0.20034   0.21543   0.25136

  Beta  occ. eigenvalues --  -10.57264 -10.57263  -0.77156  -0.76896  -0.49342
  Beta  occ. eigenvalues --   -0.49342  -0.49244  -0.49244  -0.21352
  Beta virt. eigenvalues --   -0.11801   0.03096   0.04902   0.05278   0.05278
  Beta virt. eigenvalues --    0.07329   0.07329   0.11235   0.12699   0.18702
  Beta virt. eigenvalues --    0.18702   0.20034   0.20034   0.21543   0.25136

 Mulliken charges and spin densities:
               1          2
     1  C   -0.523227  -0.000000
     2  C   -0.523227   0.000000
     3  H    0.174409  -0.000000
     4  H    0.174409   0.000000
     5  H    0.174409  -0.000000
     6  H    0.174408  -0.000000
     7  H    0.174409   0.000000
     8  H    0.174408   0.000000
 Sum of Mulliken charges =  -0.00000  -0.00000

 Dipole moment (field-independent basis, Debye):
    X=             -0.0000    Y=             -0.0000    Z=             -0.0000  Tot=              0.0000
 Quadrupole moment (field-independent basis, Debye-Ang):
   XX=            -15.9388   YY=            -14.8779   ZZ=            -14.8780
   XY=             -0.0000   XZ=             -0.0000   YZ=             -0.0000

 Normal termination of Gaussian 16 at Tue Dec  3 10:09:07 2024.
