 Gaussian 16, Revision A.03,
 Gaussian 16:  ES64L-G16RevA.03 25-Dec-2016

 ---------------------------------------------------
 #p UM062X/6-311+G** force int=superfine pop=saveNBO
 ---------------------------------------------------

 -------------------
 Title Card Required
 -------------------
 Symbolic Z-matrix:
 Charge =  0 Multiplicity = 1

                         Standard orientation:
 ---------------------------------------------------------------------
 Center     Atomic      Atomic             Coordinates (Angstroms)
 Number     Number       Type             X           Y           Z
 ---------------------------------------------------------------------
      1          6           0        0.000000    0.000000   -1.911703
      2         16           0        0.000000    0.000000    0.716889
 ---------------------------------------------------------------------

 SCF Done:  E(UM062X) =  -435.916600608     A.U. after   16 cycles

 The electronic state is 1-SG.
 Alpha  occ. eigenvalues --  -89.94740 -10.81150  -8.30430  -6.22585  -6.22009
 Alpha  occ. eigenvalues --   -6.22009  -0.75863  -0.68845  -0.35492  -0.31418
 Alpha  occ. eigenvalues --   -0.31418
 Alpha virt. eigenvalues --   -0.16599  -0.16599  -0.11791   0.03429   0.05315
 Alpha virt. eigenvalues --    0.06066   0.06066   0.08717   0.08954   0.08954
 Alpha virt. eigenvalues --    0.15158   0.35777   0.35914   0.35914   0.52899

  Beta  occ. eigenvalues --  -89.94740 -10.81150  -8.30430  -6.22585  -6.22009
  Beta  occ. eigenvalues --   -6.22009  -0.75863  -0.68845  -0.35492  -0.31418
  Beta  occ. eigenvalues --   -0.31418
  Beta virt. eigenvalues --   -0.16599  -0.16599  -0.11791   0.03429   0.05315
  Beta virt. eigenvalues --    0.06066   0.06066   0.08717   0.08954   0.08954
  Beta virt. eigenvalues --    0.15158   0.35777   0.35914   0.35914   0.52899

 Mulliken charges and spin densities:
               1          2
     1  C    0.170927  -0.000000
     2  S   -0.170927   0.000000
 Sum of Mulliken charges =  -0.00000  -0.00000

 Dipole moment (field-independent basis, Debye):
    X=              0.0000    Y=              0.0000    Z=             -2.0364  Tot=              2.0364
 Quadrupole moment (field-independent basis, Debye-Ang):
   XX=            -20.7054   YY=            -20.7054   ZZ=            -15.7820
   XY=              0.0000   XZ=              0.0000   YZ=              0.0000

 Summary of Natural Population Analysis:

                                       Natural Population
                Natural  -----------------------------------------------
    Atom  No    Charge         Core      Valence    Rydberg      Total
 -----------------------------------------------------------------------
      C    1    0.14217      1.00000     1.85662    0.00121     2.85783
      S    2   -0.14217      4.99999     3.14114    0.00105     8.14217
 =======================================================================
   * Total *   -0.00000      5.99999     4.99775    0.00226    11.00000

 Normal termination of Gaussian 16 at Mon Apr 21 19:40:55 2025.
