 Gaussian 16, Revision A.03,
 Gaussian 16:  ES64L-G16RevA.03 25-Dec-2016

 ---------------------------------------------------
 #p UM062X/6-311+G** force int=superfine pop=saveNBO
 ---------------------------------------------------

 -------------------
 Title Card Required
 -------------------
 Symbolic Z-matrix:
 Charge =  0 Multiplicity = 1

                         Standard orientation:
 ---------------------------------------------------------------------
 Center     Atomic      Atomic             Coordinates (Angstroms)
 Number     Number       Type             X           Y           Z
 ---------------------------------------------------------------------
      1          8           0        0.000000    0.000000   -1.393424
      2         16           0        0.000000    0.000000    0.696712
 ---------------------------------------------------------------------

 SCF Done:  E(UM062X) =  -473.154407572     A.U. after   15 cycles

 Unable to determine electronic state:  an orbital has unidentified symmetry.
 Alpha  occ. eigenvalues --  -90.03062 -19.74794  -8.38555  -6.30656  -6.30555
 Alpha  occ. eigenvalues --   -6.29693  -1.06279  -0.80306  -0.45437  -0.44139
 Alpha  occ. eigenvalues --   -0.39883  -0.35680
 Alpha virt. eigenvalues --   -0.20926  -0.11080   0.02531   0.04659   0.05254
 Alpha virt. eigenvalues --    0.05831   0.18537   0.20448   0.20771   0.27279
 Alpha virt. eigenvalues --    0.33042   0.33356   0.33975   0.59258   0.73975

  Beta  occ. eigenvalues --  -90.03062 -19.74794  -8.38555  -6.30656  -6.30555
  Beta  occ. eigenvalues --   -6.29693  -1.06279  -0.80306  -0.45437  -0.44139
  Beta  occ. eigenvalues --   -0.39883  -0.35680
  Beta virt. eigenvalues --   -0.20926  -0.11080   0.02531   0.04659   0.05254
  Beta virt. eigenvalues --    0.05831   0.18537   0.20448   0.20771   0.27279
  Beta virt. eigenvalues --    0.33042   0.33356   0.33975   0.59258   0.73975

 Mulliken charges and spin densities:
               1          2
     1  O   -0.242978   0.000000
     2  S    0.242978  -0.000000
 Sum of Mulliken charges =  -0.00000   0.00000

 Dipole moment (field-independent basis, Debye):
    X=              0.0000    Y=              0.0000    Z=              2.5243  Tot=              2.5243
 Quadrupole moment (field-independent basis, Debye-Ang):
   XX=            -20.4485   YY=            -16.8889   ZZ=            -18.5282
   XY=              0.0000   XZ=              0.0000   YZ=              0.0000

 Summary of Natural Population Analysis:

                                       Natural Population
                Natural  -----------------------------------------------
    Atom  No    Charge         Core      Valence    Rydberg      Total
 -----------------------------------------------------------------------
      O    1   -0.19427      1.00000     3.19198    0.00229     4.19427
      S    2    0.19427      4.99997     2.80055    0.00521     7.80573
 =======================================================================
   * Total *    0.00000      5.99997     5.99253    0.00750    12.00000

 Normal termination of Gaussian 16 at Mon Apr 21 20:00:39 2025.
