 Gaussian 16, Revision A.03,
 Gaussian 16:  ES64L-G16RevA.03 25-Dec-2016

 ----------------------------------------------------------------------
 #p opt UM062X/6-311+G** nosymm int=superfine SCF=(MaxCycle=200,NoVarAc
 c,noincfock) guess=read
 ----------------------------------------------------------------------

 -------------------
 Title Card Required
 -------------------
 Symbolic Z-matrix:
 Charge =  1 Multiplicity = 2

 SCF Done:  E(UM062X) =  -92.6559254464     A.U. after  139 cycles
 SCF Done:  E(UM062X) =  -92.6562672377     A.U. after   11 cycles
 SCF Done:  E(UM062X) =  -92.6562699741     A.U. after   49 cycles
 Optimization completed.
    -- Stationary point found.

                          Input orientation:
 ---------------------------------------------------------------------
 Center     Atomic      Atomic             Coordinates (Angstroms)
 Number     Number       Type             X           Y           Z
 ---------------------------------------------------------------------
      1          6           0       -1.326540    0.000000    0.000000
      2          7           0        1.326540    0.000000    0.000000
      3          1           0       -2.445953   -0.000000    0.000001
 ---------------------------------------------------------------------

 Alpha  occ. eigenvalues --  -15.15045 -11.01770  -1.17637  -0.99425  -0.69501
 Alpha  occ. eigenvalues --   -0.69468  -0.66876
 Alpha virt. eigenvalues --   -0.45515  -0.37024  -0.33301  -0.15525  -0.10245
 Alpha virt. eigenvalues --   -0.09240  -0.08249  -0.04338  -0.01816  -0.01615
 Alpha virt. eigenvalues --    0.00986   0.08469   0.24092   0.30494   0.30534

  Beta  occ. eigenvalues --  -15.11300 -11.04211  -1.08488  -0.96399  -0.77941
  Beta  occ. eigenvalues --   -0.66969
  Beta virt. eigenvalues --   -0.42737  -0.30668  -0.30071  -0.30052  -0.15426
  Beta virt. eigenvalues --   -0.11503  -0.09319  -0.09193  -0.06237  -0.00276
  Beta virt. eigenvalues --   -0.00174   0.00158   0.05301   0.23496   0.29749

 Mulliken charges and spin densities:
               1          2
     1  C    0.332893  -1.589995
     2  N    0.308194   2.686494
     3  H    0.358913  -0.096499
 Sum of Mulliken charges =   1.00000   1.00000

 Dipole moment (field-independent basis, Debye):
    X=             -4.4381    Y=             -0.0000    Z=              0.0000  Tot=              4.4381
 Quadrupole moment (field-independent basis, Debye-Ang):
   XX=              5.8326   YY=             -9.5984   ZZ=            -10.4403
   XY=              0.0000   XZ=             -0.0000   YZ=             -0.7010

 Normal termination of Gaussian 16 at Mon Apr 21 23:06:28 2025.
