 Gaussian 16, Revision A.03,
 Gaussian 16:  ES64L-G16RevA.03 25-Dec-2016

 --------------------------------------------
 #p opt UM062X/6-311+G** nosymm int=superfine
 --------------------------------------------

 -------------------
 Title Card Required
 -------------------
 Symbolic Z-matrix:
 Charge =  0 Multiplicity = 1

 SCF Done:  E(UM062X) =  -94.2593117567     A.U. after   14 cycles
 SCF Done:  E(UM062X) =  -94.2630417013     A.U. after   16 cycles
 SCF Done:  E(UM062X) =  -94.2658447618     A.U. after   11 cycles
 SCF Done:  E(UM062X) =  -94.2665869821     A.U. after   15 cycles
 SCF Done:  E(UM062X) =  -94.2676118630     A.U. after   17 cycles
 SCF Done:  E(UM062X) =  -94.2676905320     A.U. after   15 cycles
 SCF Done:  E(UM062X) =  -94.2676010491     A.U. after   18 cycles
 SCF Done:  E(UM062X) =  -94.2677066951     A.U. after   18 cycles
 SCF Done:  E(UM062X) =  -94.2677079343     A.U. after   19 cycles
 SCF Done:  E(UM062X) =  -94.2677093733     A.U. after   19 cycles
 SCF Done:  E(UM062X) =  -94.2677133634     A.U. after   14 cycles
 SCF Done:  E(UM062X) =  -94.2677164381     A.U. after   16 cycles
 SCF Done:  E(UM062X) =  -94.2677168827     A.U. after   13 cycles
 Optimization completed.
    -- Stationary point found.

                          Input orientation:
 ---------------------------------------------------------------------
 Center     Atomic      Atomic             Coordinates (Angstroms)
 Number     Number       Type             X           Y           Z
 ---------------------------------------------------------------------
      1          6           0       -1.531637    0.000000    0.000000
      2          7           0        1.531637    0.000000    0.000000
      3          1           0       -2.372535   -0.716008   -0.000771
      4          1           0        1.254453   -0.997753   -0.000150
      5          1           0       -2.005447    0.996178    0.001252
 ---------------------------------------------------------------------

 Alpha  occ. eigenvalues --  -14.80165 -10.63916  -0.86513  -0.77987  -0.50585
 Alpha  occ. eigenvalues --   -0.43394  -0.34025  -0.30829
 Alpha virt. eigenvalues --   -0.10380  -0.09316   0.01442   0.05419   0.06950
 Alpha virt. eigenvalues --    0.07735   0.12580   0.14284   0.16455   0.17759
 Alpha virt. eigenvalues --    0.18554   0.19739   0.25766   0.43061   0.46296

  Beta  occ. eigenvalues --  -14.80165 -10.63916  -0.86513  -0.77987  -0.50585
  Beta  occ. eigenvalues --   -0.43394  -0.34025  -0.30829
  Beta virt. eigenvalues --   -0.10380  -0.09316   0.01442   0.05419   0.06950
  Beta virt. eigenvalues --    0.07735   0.12580   0.14284   0.16455   0.17759
  Beta virt. eigenvalues --    0.18554   0.19739   0.25766   0.43061   0.46296

 Mulliken charges and spin densities:
               1          2
     1  C   -0.298428   0.000000
     2  N   -0.213698   0.000000
     3  H    0.156111  -0.000000
     4  H    0.200262   0.000000
     5  H    0.155753  -0.000000
 Sum of Mulliken charges =   0.00000   0.00000

 Dipole moment (field-independent basis, Debye):
    X=             -3.3556    Y=             -1.1889    Z=              0.0004  Tot=              3.5600
 Quadrupole moment (field-independent basis, Debye-Ang):
   XX=             -9.2568   YY=            -12.7273   ZZ=            -14.9804
   XY=             -2.9848   XZ=             -0.0006   YZ=             -0.0003

 Normal termination of Gaussian 16 at Mon Apr 21 18:26:45 2025.
