 Gaussian 16, Revision A.03,
 Gaussian 16:  ES64L-G16RevA.03 25-Dec-2016

 ---------------------------------------
 #p UM062X/6-311+G** force int=superfine
 ---------------------------------------

 -------------------
 Title Card Required
 -------------------
 Symbolic Z-matrix:
 Charge =  0 Multiplicity = 1

                         Standard orientation:
 ---------------------------------------------------------------------
 Center     Atomic      Atomic             Coordinates (Angstroms)
 Number     Number       Type             X           Y           Z
 ---------------------------------------------------------------------
      1          6           0        1.038477   -0.000001   -0.000001
      2          6           0       -1.038477    0.000001    0.000001
      3          1           0       -1.316039   -0.444859    0.949742
      4          1           0        1.316042    0.600113    0.860106
      5          1           0       -1.316044   -0.600113   -0.860104
      6          1           0       -1.316110    1.044912   -0.089633
      7          1           0        1.316038    0.444858   -0.949743
      8          1           0        1.316112   -1.044910    0.089633
 ---------------------------------------------------------------------

 SCF Done:  E(UM062X) =  -79.7327167696     A.U. after    8 cycles

 The electronic state is 1-A.
 Alpha  occ. eigenvalues --  -10.54756 -10.54747  -0.78738  -0.72784  -0.48349
 Alpha  occ. eigenvalues --   -0.48349  -0.44639  -0.44638  -0.32470
 Alpha virt. eigenvalues --    0.02225   0.02357   0.05625   0.05625   0.08458
 Alpha virt. eigenvalues --    0.08458   0.09575   0.10280   0.13577   0.18178
 Alpha virt. eigenvalues --    0.18179   0.22060   0.22060   0.24308   0.26868

  Beta  occ. eigenvalues --  -10.54756 -10.54747  -0.78738  -0.72784  -0.48349
  Beta  occ. eigenvalues --   -0.48349  -0.44639  -0.44638  -0.32470
  Beta virt. eigenvalues --    0.02225   0.02357   0.05625   0.05625   0.08458
  Beta virt. eigenvalues --    0.08458   0.09575   0.10280   0.13577   0.18178
  Beta virt. eigenvalues --    0.18179   0.22060   0.22060   0.24308   0.26868

 Mulliken charges and spin densities:
               1          2
     1  C   -0.499842   0.000000
     2  C   -0.499843  -0.000000
     3  H    0.166615   0.000000
     4  H    0.166615  -0.000000
     5  H    0.166615  -0.000000
     6  H    0.166613  -0.000000
     7  H    0.166615  -0.000000
     8  H    0.166613  -0.000000
 Sum of Mulliken charges =  -0.00000  -0.00000

 Dipole moment (field-independent basis, Debye):
    X=              0.0000    Y=             -0.0000    Z=             -0.0000  Tot=              0.0000
 Quadrupole moment (field-independent basis, Debye-Ang):
   XX=            -15.5908   YY=            -14.8661   ZZ=            -14.8663
   XY=             -0.0001   XZ=              0.0000   YZ=             -0.0000

 Normal termination of Gaussian 16 at Tue Nov 19 12:51:51 2024.
