 Gaussian 16, Revision A.03,
 Gaussian 16:  ES64L-G16RevA.03 25-Dec-2016

 --------------------------------------------
 #p opt UM062X/6-311+G** nosymm int=superfine
 --------------------------------------------

 -------------------
 Title Card Required
 -------------------
 Symbolic Z-matrix:
 Charge =  0 Multiplicity = 1

 SCF Done:  E(UM062X) =  -76.8565269233     A.U. after   15 cycles
 SCF Done:  E(UM062X) =  -76.8568760343     A.U. after   23 cycles
 SCF Done:  E(UM062X) =  -76.8577829472     A.U. after   21 cycles
 SCF Done:  E(UM062X) =  -76.8583621179     A.U. after   26 cycles
 SCF Done:  E(UM062X) =  -76.8584262088     A.U. after   25 cycles
 SCF Done:  E(UM062X) =  -76.8584461883     A.U. after   15 cycles
 SCF Done:  E(UM062X) =  -76.8584465085     A.U. after   20 cycles
 SCF Done:  E(UM062X) =  -76.8584465895     A.U. after   14 cycles
 Optimization completed.
    -- Stationary point found.

                          Input orientation:
 ---------------------------------------------------------------------
 Center     Atomic      Atomic             Coordinates (Angstroms)
 Number     Number       Type             X           Y           Z
 ---------------------------------------------------------------------
      1          6           0       -2.082625    0.000000    0.000000
      2          6           0        2.082625    0.000000    0.000000
      3          1           0       -1.887832   -0.650815    0.888908
      4          1           0        1.888003    0.650751   -0.888993
 ---------------------------------------------------------------------

 Alpha  occ. eigenvalues --  -10.67631 -10.67630  -0.73007  -0.72732  -0.39179
 Alpha  occ. eigenvalues --   -0.39069  -0.22891
 Alpha virt. eigenvalues --   -0.13878  -0.10314  -0.09818   0.03104   0.04411
 Alpha virt. eigenvalues --    0.07211   0.07231   0.09133   0.09537   0.10570
 Alpha virt. eigenvalues --    0.13717   0.18012   0.19030   0.45364   0.45843

  Beta  occ. eigenvalues --  -10.67631 -10.67630  -0.73007  -0.72732  -0.39179
  Beta  occ. eigenvalues --   -0.39069  -0.22891
  Beta virt. eigenvalues --   -0.13878  -0.10314  -0.09818   0.03104   0.04411
  Beta virt. eigenvalues --    0.07211   0.07231   0.09133   0.09537   0.10570
  Beta virt. eigenvalues --    0.13717   0.18012   0.19030   0.45364   0.45843

 Mulliken charges and spin densities:
               1          2
     1  C   -0.140249   0.000000
     2  C   -0.140268  -0.000000
     3  H    0.140259   0.000000
     4  H    0.140258   0.000000
 Sum of Mulliken charges =  -0.00000   0.00000

 Dipole moment (field-independent basis, Debye):
    X=              0.0001    Y=             -0.0001    Z=             -0.0001  Tot=              0.0002
 Quadrupole moment (field-independent basis, Debye-Ang):
   XX=            -17.4580   YY=            -13.0279   ZZ=            -13.8554
   XY=              3.9792   XZ=             -5.4361   YZ=              1.3055

 Normal termination of Gaussian 16 at Wed Dec  4 00:21:38 2024.
