 Gaussian 16, Revision A.03,
 Gaussian 16:  ES64L-G16RevA.03 25-Dec-2016

 --------------------------------------------
 #p opt UM062X/6-311+G** nosymm int=superfine
 --------------------------------------------

 -------------------
 Title Card Required
 -------------------
 Symbolic Z-matrix:
 Charge =  0 Multiplicity = 1

 SCF Done:  E(UM062X) =  -79.6219409498     A.U. after    8 cycles
 SCF Done:  E(UM062X) =  -79.6583237267     A.U. after    9 cycles
 SCF Done:  E(UM062X) =  -79.6920292881     A.U. after    9 cycles
 SCF Done:  E(UM062X) =  -79.7018433160     A.U. after   10 cycles
 SCF Done:  E(UM062X) =  -79.7020499150     A.U. after    8 cycles
 SCF Done:  E(UM062X) =  -79.7020534330     A.U. after    7 cycles
 Optimization completed.
    -- Stationary point found.

                          Input orientation:
 ---------------------------------------------------------------------
 Center     Atomic      Atomic             Coordinates (Angstroms)
 Number     Number       Type             X           Y           Z
 ---------------------------------------------------------------------
      1          6           0       -1.145320    0.000000    0.000000
      2          6           0        1.145438    0.000000    0.000000
      3          1           0        1.382670   -0.914434    0.529135
      4          1           0       -1.382545   -0.915468   -0.527350
      5          1           0        1.382665    0.915468    0.527348
      6          1           0        1.382658   -0.001030   -1.056494
      7          1           0       -1.382552    0.914434   -0.529136
      8          1           0       -1.382544    0.001029    1.056493
 ---------------------------------------------------------------------

 Alpha  occ. eigenvalues --  -10.55375 -10.55369  -0.77838  -0.73660  -0.48260
 Alpha  occ. eigenvalues --   -0.48260  -0.45730  -0.45730  -0.29793
 Alpha virt. eigenvalues --    0.00042   0.02463   0.05572   0.05572   0.07784
 Alpha virt. eigenvalues --    0.08327   0.08327   0.09897   0.13173   0.18161
 Alpha virt. eigenvalues --    0.18161   0.22093   0.22093   0.24363   0.26434

  Beta  occ. eigenvalues --  -10.55375 -10.55369  -0.77838  -0.73660  -0.48260
  Beta  occ. eigenvalues --   -0.48260  -0.45730  -0.45730  -0.29793
  Beta virt. eigenvalues --    0.00042   0.02463   0.05572   0.05572   0.07784
  Beta virt. eigenvalues --    0.08327   0.08327   0.09897   0.13173   0.18161
  Beta virt. eigenvalues --    0.18161   0.22093   0.22093   0.24363   0.26434

 Mulliken charges and spin densities:
               1          2
     1  C   -0.506524  -0.000000
     2  C   -0.506524   0.000000
     3  H    0.168841   0.000000
     4  H    0.168841  -0.000000
     5  H    0.168841  -0.000000
     6  H    0.168841   0.000000
     7  H    0.168841   0.000000
     8  H    0.168841  -0.000000
 Sum of Mulliken charges =  -0.00000  -0.00000

 Dipole moment (field-independent basis, Debye):
    X=              0.0000    Y=             -0.0000    Z=             -0.0000  Tot=              0.0000
 Quadrupole moment (field-independent basis, Debye-Ang):
   XX=            -15.5457   YY=            -14.8248   ZZ=            -14.8248
   XY=             -0.0000   XZ=              0.0000   YZ=             -0.0000

 Normal termination of Gaussian 16 at Tue Nov 19 12:17:05 2024.
