 Gaussian 16, Revision A.03,
 Gaussian 16:  ES64L-G16RevA.03 25-Dec-2016

 --------------------------------------------
 #p opt UM062X/6-311+G** nosymm int=superfine
 --------------------------------------------

 -------------------
 Title Card Required
 -------------------
 Symbolic Z-matrix:
 Charge =  0 Multiplicity = 1

 SCF Done:  E(UM062X) =  -581.142607442     A.U. after    9 cycles
 SCF Done:  E(UM062X) =  -581.162276395     A.U. after    8 cycles
 SCF Done:  E(UM062X) =  -581.174281320     A.U. after    8 cycles
 SCF Done:  E(UM062X) =  -581.174301282     A.U. after    7 cycles
 Optimization completed.
    -- Stationary point found.

                          Input orientation:
 ---------------------------------------------------------------------
 Center     Atomic      Atomic             Coordinates (Angstroms)
 Number     Number       Type             X           Y           Z
 ---------------------------------------------------------------------
      1         14           0       -2.362518    0.000000    0.000000
      2         14           0        2.362518    0.000000    0.000000
      3          1           0       -3.425720   -1.084134    0.000053
      4          1           0        3.425720    1.084134   -0.000533
      5          1           0       -3.425725    1.084129    0.000273
      6          1           0        3.425725   -1.084129    0.000858
 ---------------------------------------------------------------------

 Alpha  occ. eigenvalues --  -67.01280 -67.01280  -5.56002  -5.56002  -3.87249
 Alpha  occ. eigenvalues --   -3.87249  -3.86707  -3.86707  -3.86566  -3.86565
 Alpha  occ. eigenvalues --   -0.57259  -0.57191  -0.37837  -0.37811  -0.29026
 Alpha  occ. eigenvalues --   -0.27260
 Alpha virt. eigenvalues --   -0.08155  -0.07558   0.02082   0.02447   0.03008
 Alpha virt. eigenvalues --    0.04558   0.05631   0.06067   0.06267   0.07246
 Alpha virt. eigenvalues --    0.08079   0.09067   0.11350   0.14020   0.28869

  Beta  occ. eigenvalues --  -67.01280 -67.01280  -5.56002  -5.56002  -3.87249
  Beta  occ. eigenvalues --   -3.87249  -3.86707  -3.86707  -3.86566  -3.86565
  Beta  occ. eigenvalues --   -0.57259  -0.57191  -0.37837  -0.37811  -0.29026
  Beta  occ. eigenvalues --   -0.27260
  Beta virt. eigenvalues --   -0.08155  -0.07558   0.02082   0.02447   0.03008
  Beta virt. eigenvalues --    0.04558   0.05631   0.06067   0.06267   0.07246
  Beta virt. eigenvalues --    0.08079   0.09067   0.11350   0.14020   0.28869

 Mulliken charges and spin densities:
               1          2
     1  Si   0.322669   0.000000
     2  Si   0.322669  -0.000000
     3  H   -0.161334  -0.000000
     4  H   -0.161334   0.000000
     5  H   -0.161334  -0.000000
     6  H   -0.161334   0.000000
 Sum of Mulliken charges =  -0.00000   0.00000

 Dipole moment (field-independent basis, Debye):
    X=              0.0000    Y=              0.0000    Z=              0.0001  Tot=              0.0001
 Quadrupole moment (field-independent basis, Debye-Ang):
   XX=            -35.3769   YY=            -32.7309   ZZ=            -24.3806
   XY=             -0.0000   XZ=              0.0000   YZ=              0.0023

 Normal termination of Gaussian 16 at Mon Apr 21 20:35:03 2025.
