 Gaussian 16, Revision A.03,
 Gaussian 16:  ES64L-G16RevA.03 25-Dec-2016

 --------------------------------
 #p UM062X/6-311+G** Pop=NBO Read
 --------------------------------

 ------------
 NBO Analysis
 ------------
 Symbolic Z-matrix:
 Charge =  0 Multiplicity = 1

                         Standard orientation:
 ---------------------------------------------------------------------
 Center     Atomic      Atomic             Coordinates (Angstroms)
 Number     Number       Type             X           Y           Z
 ---------------------------------------------------------------------
      1          6           0       -1.154983    0.019218    0.000014
      2         16           0        0.662384   -0.086490    0.000014
      3          1           0        0.894029    1.234518    0.000014
      4          1           0       -1.519340   -1.006715   -0.002902
      5          1           0       -1.521652    0.517966    0.894921
      6          1           0       -1.521288    0.522759   -0.892352
 ---------------------------------------------------------------------

 SCF Done:  E(UM062X) =  -438.635460099     A.U. after   10 cycles

 The electronic state is 1-A.
 Alpha  occ. eigenvalues --  -89.92019 -10.57657  -8.26611  -6.18685  -6.18457
 Alpha  occ. eigenvalues --   -6.18009  -0.87569  -0.73187  -0.51820  -0.50001
 Alpha  occ. eigenvalues --   -0.45157  -0.39093  -0.29428
 Alpha virt. eigenvalues --    0.01539   0.03499   0.05866   0.06526   0.07259
 Alpha virt. eigenvalues --    0.09085   0.09971   0.11609   0.15030   0.16218
 Alpha virt. eigenvalues --    0.21060   0.21919   0.33861   0.49411   0.49983

  Beta  occ. eigenvalues --  -89.92019 -10.57657  -8.26611  -6.18685  -6.18457
  Beta  occ. eigenvalues --   -6.18009  -0.87569  -0.73187  -0.51820  -0.50001
  Beta  occ. eigenvalues --   -0.45157  -0.39093  -0.29428
  Beta virt. eigenvalues --    0.01539   0.03499   0.05866   0.06526   0.07259
  Beta virt. eigenvalues --    0.09085   0.09971   0.11609   0.15030   0.16218
  Beta virt. eigenvalues --    0.21060   0.21919   0.33861   0.49411   0.49983

 Mulliken charges and spin densities:
               1          2
     1  C   -0.493956   0.000000
     2  S   -0.046955  -0.000000
     3  H    0.040592   0.000000
     4  H    0.167578  -0.000000
     5  H    0.166384   0.000000
     6  H    0.166356  -0.000000
 Sum of Mulliken charges =  -0.00000  -0.00000

 Dipole moment (field-independent basis, Debye):
    X=             -1.4296    Y=              0.9854    Z=             -0.0003  Tot=              1.7363
 Quadrupole moment (field-independent basis, Debye-Ang):
   XX=            -20.4519   YY=            -19.4768   ZZ=            -22.8165
   XY=              1.4749   XZ=              0.0006   YZ=              0.0001

 Summary of Natural Population Analysis:

                                       Natural Population
                Natural  -----------------------------------------------
    Atom  No    Charge         Core      Valence    Rydberg      Total
 -----------------------------------------------------------------------
      C    1   -0.42910      0.99982     2.42543    0.00385     3.42910
      S    2   -0.03366      4.99972     3.01372    0.02021     8.03366
      H    3    0.07195      0.00000     0.42594    0.00211     0.42805
      H    4    0.13349      0.00000     0.36595    0.00056     0.36651
      H    5    0.12865      0.00000     0.37075    0.00059     0.37135
      H    6    0.12866      0.00000     0.37074    0.00059     0.37134
 =======================================================================
   * Total *   -0.00000      5.99954     6.97255    0.02791    13.00000

 Normal termination of Gaussian 16 at Wed Apr 16 04:13:21 2025.
