 Gaussian 16, Revision A.03,
 Gaussian 16:  ES64L-G16RevA.03 25-Dec-2016

 --------------------------------------------
 #p opt UM062X/6-311+G** nosymm int=superfine
 --------------------------------------------

 -------------------
 Title Card Required
 -------------------
 Symbolic Z-matrix:
 Charge =  0 Multiplicity = 1

 SCF Done:  E(UM062X) =  -78.3990076291     A.U. after    8 cycles
 SCF Done:  E(UM062X) =  -78.4308527519     A.U. after    8 cycles
 SCF Done:  E(UM062X) =  -78.4495502479     A.U. after    9 cycles
 SCF Done:  E(UM062X) =  -78.4513105207     A.U. after    8 cycles
 SCF Done:  E(UM062X) =  -78.4513713949     A.U. after    7 cycles
 Optimization completed.
    -- Stationary point found.

                          Input orientation:
 ---------------------------------------------------------------------
 Center     Atomic      Atomic             Coordinates (Angstroms)
 Number     Number       Type             X           Y           Z
 ---------------------------------------------------------------------
      1          6           0       -0.888248    0.000000    0.000000
      2          6           0        0.888248    0.000000    0.000000
      3          1           0       -1.384448   -0.957944   -0.000000
      4          1           0       -1.384478    0.957837    0.000000
      5          1           0        1.384448    0.957944   -0.000000
      6          1           0        1.384478   -0.957837    0.000000
 ---------------------------------------------------------------------

 Alpha  occ. eigenvalues --  -10.59411 -10.59388  -0.79143  -0.70024  -0.52981
 Alpha  occ. eigenvalues --   -0.47841  -0.41422  -0.27865
 Alpha virt. eigenvalues --   -0.03999   0.03266   0.03368   0.05384   0.07564
 Alpha virt. eigenvalues --    0.08741   0.09773   0.11667   0.15523   0.16436
 Alpha virt. eigenvalues --    0.16661   0.21023   0.22328   0.28905   0.40666

  Beta  occ. eigenvalues --  -10.59411 -10.59388  -0.79143  -0.70024  -0.52981
  Beta  occ. eigenvalues --   -0.47841  -0.41422  -0.27865
  Beta virt. eigenvalues --   -0.03999   0.03266   0.03368   0.05384   0.07564
  Beta virt. eigenvalues --    0.08741   0.09773   0.11667   0.15523   0.16436
  Beta virt. eigenvalues --    0.16661   0.21023   0.22328   0.28905   0.40666

 Mulliken charges and spin densities:
               1          2
     1  C   -0.343079   0.000000
     2  C   -0.343079  -0.000000
     3  H    0.171539   0.000000
     4  H    0.171541  -0.000000
     5  H    0.171539   0.000000
     6  H    0.171541  -0.000000
 Sum of Mulliken charges =  -0.00000   0.00000

 Dipole moment (field-independent basis, Debye):
    X=             -0.0000    Y=             -0.0000    Z=             -0.0000  Tot=              0.0000
 Quadrupole moment (field-independent basis, Debye-Ang):
   XX=            -11.6571   YY=            -12.1824   ZZ=            -17.5585
   XY=             -0.0001   XZ=              0.0000   YZ=              0.0000

 Normal termination of Gaussian 16 at Tue Nov 19 10:52:22 2024.
