 Gaussian 16, Revision A.03,
 Gaussian 16:  ES64L-G16RevA.03 25-Dec-2016

 ---------------------------------------------------
 #p UM062X/6-311+G** force int=superfine pop=saveNBO
 ---------------------------------------------------

 -------------------
 Title Card Required
 -------------------
 Symbolic Z-matrix:
 Charge =  0 Multiplicity = 1

                         Standard orientation:
 ---------------------------------------------------------------------
 Center     Atomic      Atomic             Coordinates (Angstroms)
 Number     Number       Type             X           Y           Z
 ---------------------------------------------------------------------
      1         15           0        0.000000    0.000000    2.438495
      2         15           0        0.000000    0.000000   -2.438495
 ---------------------------------------------------------------------

 SCF Done:  E(UM062X) =  -682.236530404     A.U. after    9 cycles

 The electronic state is 1-SGG.
 Alpha  occ. eigenvalues --  -78.11416 -78.11416  -6.93150  -6.93150  -5.04446
 Alpha  occ. eigenvalues --   -5.04446  -5.04434  -5.04434  -5.04434  -5.04434
 Alpha  occ. eigenvalues --   -0.63835  -0.63363  -0.24961  -0.24237  -0.24237
 Alpha virt. eigenvalues --   -0.18315  -0.18315  -0.17416   0.02169   0.03426
 Alpha virt. eigenvalues --    0.04301   0.04301   0.06166   0.06246   0.06246
 Alpha virt. eigenvalues --    0.09760   0.28392   0.30440   0.30440   0.32070

  Beta  occ. eigenvalues --  -78.11416 -78.11416  -6.93150  -6.93150  -5.04446
  Beta  occ. eigenvalues --   -5.04446  -5.04434  -5.04434  -5.04434  -5.04434
  Beta  occ. eigenvalues --   -0.63835  -0.63363  -0.24961  -0.24237  -0.24237
  Beta virt. eigenvalues --   -0.18315  -0.18315  -0.17416   0.02169   0.03426
  Beta virt. eigenvalues --    0.04301   0.04301   0.06166   0.06246   0.06246
  Beta virt. eigenvalues --    0.09760   0.28392   0.30440   0.30440   0.32070

 Mulliken charges and spin densities:
               1          2
     1  P   -0.000000  -0.000000
     2  P   -0.000000  -0.000000
 Sum of Mulliken charges =  -0.00000  -0.00000

 Dipole moment (field-independent basis, Debye):
    X=              0.0000    Y=              0.0000    Z=             -0.0000  Tot=              0.0000
 Quadrupole moment (field-independent basis, Debye-Ang):
   XX=            -29.3384   YY=            -29.3384   ZZ=            -25.4342
   XY=              0.0000   XZ=             -0.0000   YZ=              0.0000

 Summary of Natural Population Analysis:

                                       Natural Population
                Natural  -----------------------------------------------
    Atom  No    Charge         Core      Valence    Rydberg      Total
 -----------------------------------------------------------------------
      P    1   -0.00000      5.00000     2.49963    0.00037     7.50000
      P    2   -0.00000      5.00000     2.49963    0.00037     7.50000
 =======================================================================
   * Total *   -0.00000     10.00000     4.99927    0.00074    15.00000

 Normal termination of Gaussian 16 at Mon Apr 21 21:22:13 2025.
