 Gaussian 16, Revision A.03,
 Gaussian 16:  ES64L-G16RevA.03 25-Dec-2016

 --------------------------------------------
 #p opt UM062X/6-311+G** nosymm int=superfine
 --------------------------------------------

 -------------------
 Title Card Required
 -------------------
 Symbolic Z-matrix:
 Charge =  1 Multiplicity = 2

 SCF Done:  E(UM062X) =  -76.2278878103     A.U. after   12 cycles
 SCF Done:  E(UM062X) =  -76.3227033875     A.U. after   11 cycles
 SCF Done:  E(UM062X) =  -76.4428046199     A.U. after   10 cycles
 SCF Done:  E(UM062X) =  -76.5072606733     A.U. after   11 cycles
 SCF Done:  E(UM062X) =  -76.5224205912     A.U. after   10 cycles
 SCF Done:  E(UM062X) =  -76.5291347358     A.U. after   10 cycles
 SCF Done:  E(UM062X) =  -76.5291723056     A.U. after    8 cycles
 Optimization completed.
    -- Stationary point found.

                          Input orientation:
 ---------------------------------------------------------------------
 Center     Atomic      Atomic             Coordinates (Angstroms)
 Number     Number       Type             X           Y           Z
 ---------------------------------------------------------------------
      1          6           0       -0.353446    0.000000    0.000000
      2          6           0        0.353446    0.000000    0.000000
      3          1           0       -1.250421   -0.712702    0.000000
      4          1           0       -1.248846    0.715564    0.000000
      5          1           0        1.250421    0.712702   -0.000000
      6          1           0        1.248846   -0.715564   -0.000000
 ---------------------------------------------------------------------

 Alpha  occ. eigenvalues --  -10.95862 -10.78470  -1.20966  -0.96023  -0.94400
 Alpha  occ. eigenvalues --   -0.86715  -0.85841  -0.56061
 Alpha virt. eigenvalues --   -0.21698  -0.15995  -0.14134  -0.12101  -0.11324
 Alpha virt. eigenvalues --   -0.09327  -0.07918  -0.06007  -0.01363   0.00056
 Alpha virt. eigenvalues --    0.02155   0.02676   0.17646   0.18134   0.21448

  Beta  occ. eigenvalues --  -10.95992 -10.78552  -1.20105  -0.91884  -0.91545
  Beta  occ. eigenvalues --   -0.85787  -0.84360
  Beta virt. eigenvalues --   -0.36110  -0.18938  -0.15818  -0.13730  -0.11717
  Beta virt. eigenvalues --   -0.11208  -0.09161  -0.04318  -0.02127  -0.00600
  Beta virt. eigenvalues --    0.01090   0.03533   0.03943   0.16826   0.17129

 Mulliken charges and spin densities:
               1          2
     1  C   -0.124087   0.071135
     2  C   -0.124087   0.071135
     3  H    0.311974   0.213821
     4  H    0.312113   0.215044
     5  H    0.311974   0.213821
     6  H    0.312113   0.215044
 Sum of Mulliken charges =   1.00000   1.00000

 Dipole moment (field-independent basis, Debye):
    X=             -0.0000    Y=              0.0000    Z=             -0.0000  Tot=              0.0000
 Quadrupole moment (field-independent basis, Debye-Ang):
   XX=             -2.3867   YY=             -8.0064   ZZ=            -11.0083
   XY=             -0.0078   XZ=             -0.0000   YZ=             -0.0000

 Normal termination of Gaussian 16 at Tue Nov 19 10:26:22 2024.
