 Gaussian 16, Revision A.03,
 Gaussian 16:  ES64L-G16RevA.03 25-Dec-2016

 --------------------------------------------
 #p opt UM062X/6-311+G** nosymm int=superfine
 --------------------------------------------

 -------------------
 Title Card Required
 -------------------
 Symbolic Z-matrix:
 Charge =  0 Multiplicity = 1

 SCF Done:  E(UM062X) =  -79.5367999000     A.U. after    9 cycles
 SCF Done:  E(UM062X) =  -79.5728559297     A.U. after    8 cycles
 SCF Done:  E(UM062X) =  -79.5903974099     A.U. after    9 cycles
 SCF Done:  E(UM062X) =  -79.5905733445     A.U. after    7 cycles
 Optimization completed.
    -- Stationary point found.

                          Input orientation:
 ---------------------------------------------------------------------
 Center     Atomic      Atomic             Coordinates (Angstroms)
 Number     Number       Type             X           Y           Z
 ---------------------------------------------------------------------
      1          6           0       -0.549754    0.000000    0.000000
      2          6           0        0.549810    0.000000    0.000000
      3          1           0        1.051727   -0.855034    0.494751
      4          1           0       -1.051665   -0.856025   -0.493069
      5          1           0        1.051721    0.856026    0.493066
      6          1           0        1.051738   -0.000939   -0.987871
      7          1           0       -1.051671    0.855033   -0.494754
      8          1           0       -1.051682    0.000937    0.987870
 ---------------------------------------------------------------------

 Alpha  occ. eigenvalues --  -10.49890 -10.49317  -0.96079  -0.67488  -0.55734
 Alpha  occ. eigenvalues --   -0.55733  -0.52350  -0.34238  -0.34236
 Alpha virt. eigenvalues --    0.02018   0.04172   0.04576   0.04576   0.08600
 Alpha virt. eigenvalues --    0.09000   0.09000   0.14271   0.18422   0.18423
 Alpha virt. eigenvalues --    0.20173   0.20174   0.23957   0.27796   0.39771

  Beta  occ. eigenvalues --  -10.49890 -10.49317  -0.96079  -0.67488  -0.55734
  Beta  occ. eigenvalues --   -0.55733  -0.52350  -0.34238  -0.34236
  Beta virt. eigenvalues --    0.02018   0.04172   0.04576   0.04576   0.08600
  Beta virt. eigenvalues --    0.09000   0.09000   0.14271   0.18422   0.18423
  Beta virt. eigenvalues --    0.20173   0.20174   0.23957   0.27796   0.39771

 Mulliken charges and spin densities:
               1          2
     1  C   -0.420488   0.000000
     2  C   -0.420488  -0.000000
     3  H    0.140164   0.000000
     4  H    0.140162   0.000000
     5  H    0.140162   0.000000
     6  H    0.140163   0.000000
     7  H    0.140164   0.000000
     8  H    0.140163   0.000000
 Sum of Mulliken charges =  -0.00000   0.00000

 Dipole moment (field-independent basis, Debye):
    X=              0.0000    Y=             -0.0000    Z=             -0.0000  Tot=              0.0000
 Quadrupole moment (field-independent basis, Debye-Ang):
   XX=            -15.6646   YY=            -14.9429   ZZ=            -14.9432
   XY=             -0.0000   XZ=             -0.0000   YZ=             -0.0001

 Normal termination of Gaussian 16 at Tue Nov 19 11:40:49 2024.
