 Gaussian 16, Revision A.03,
 Gaussian 16:  ES64L-G16RevA.03 25-Dec-2016

 --------------------------------------------
 #p opt UM062X/6-311+G** nosymm int=superfine
 --------------------------------------------

 -------------------
 Title Card Required
 -------------------
 Symbolic Z-matrix:
 Charge =  0 Multiplicity = 1

 SCF Done:  E(UM062X) =  -151.392175513     A.U. after   14 cycles
 SCF Done:  E(UM062X) =  -151.396871391     A.U. after   18 cycles
 SCF Done:  E(UM062X) =  -151.399947152     A.U. after   16 cycles
 SCF Done:  E(UM062X) =  -151.400041153     A.U. after   18 cycles
 SCF Done:  E(UM062X) =  -151.400066010     A.U. after   18 cycles
 SCF Done:  E(UM062X) =  -151.400068313     A.U. after   12 cycles
 SCF Done:  E(UM062X) =  -151.400068388     A.U. after   11 cycles
 Optimization completed.
    -- Stationary point found.

                          Input orientation:
 ---------------------------------------------------------------------
 Center     Atomic      Atomic             Coordinates (Angstroms)
 Number     Number       Type             X           Y           Z
 ---------------------------------------------------------------------
      1          8           0       -1.186938    0.000000    0.000000
      2          8           0        1.186938    0.000000    0.000000
      3          1           0       -1.074970   -0.777243   -0.574625
      4          1           0        1.074914    0.778044    0.573530
 ---------------------------------------------------------------------

 Alpha  occ. eigenvalues --  -19.72639 -19.72636  -1.14012  -1.11321  -0.57474
 Alpha  occ. eigenvalues --   -0.55613  -0.44863  -0.42821  -0.41844
 Alpha virt. eigenvalues --   -0.20575   0.05580   0.09364   0.14709   0.15836
 Alpha virt. eigenvalues --    0.17560   0.19513   0.21435   0.22791   0.25360
 Alpha virt. eigenvalues --    0.33348   0.49130   0.53430   0.93925   0.97380

  Beta  occ. eigenvalues --  -19.72639 -19.72636  -1.14012  -1.11321  -0.57474
  Beta  occ. eigenvalues --   -0.55613  -0.44863  -0.42821  -0.41844
  Beta virt. eigenvalues --   -0.20575   0.05580   0.09364   0.14709   0.15836
  Beta virt. eigenvalues --    0.17560   0.19513   0.21435   0.22791   0.25360
  Beta virt. eigenvalues --    0.33348   0.49130   0.53430   0.93925   0.97380

 Mulliken charges and spin densities:
               1          2
     1  O   -0.272337  -0.000000
     2  O   -0.272328   0.000000
     3  H    0.272332   0.000000
     4  H    0.272333  -0.000000
 Sum of Mulliken charges =   0.00000   0.00000

 Dipole moment (field-independent basis, Debye):
    X=             -0.0001    Y=              0.0016    Z=             -0.0021  Tot=              0.0026
 Quadrupole moment (field-independent basis, Debye-Ang):
   XX=            -11.9575   YY=            -10.3039   ZZ=            -11.8289
   XY=              3.4749   XZ=              2.5653   YZ=              2.4742

 Normal termination of Gaussian 16 at Mon Apr 21 21:30:32 2025.
