 Gaussian 16, Revision A.03,
 Gaussian 16:  ES64L-G16RevA.03 25-Dec-2016

 --------------------------------------------
 #p opt UM062X/6-311+G** nosymm int=superfine
 --------------------------------------------

 -------------------
 Title Card Required
 -------------------
 Symbolic Z-matrix:
 Charge =  0 Multiplicity = 1

 SCF Done:  E(UM062X) =  -79.7954966299     A.U. after    8 cycles
 SCF Done:  E(UM062X) =  -79.7959333372     A.U. after    7 cycles
 SCF Done:  E(UM062X) =  -79.7959405389     A.U. after    6 cycles
 Optimization completed.
    -- Stationary point found.

                          Input orientation:
 ---------------------------------------------------------------------
 Center     Atomic      Atomic             Coordinates (Angstroms)
 Number     Number       Type             X           Y           Z
 ---------------------------------------------------------------------
      1          6           0       -0.740641    0.000000    0.000000
      2          6           0        0.740716    0.000000    0.000000
      3          1           0        1.146212   -0.878302    0.508236
      4          1           0       -1.146126   -0.879301   -0.506517
      5          1           0        1.146202    0.879301    0.506516
      6          1           0        1.146212   -0.000983   -1.014755
      7          1           0       -1.146137    0.878302   -0.508237
      8          1           0       -1.146137    0.000982    1.014755
 ---------------------------------------------------------------------

 Alpha  occ. eigenvalues --  -10.51877 -10.51831  -0.85755  -0.69762  -0.50598
 Alpha  occ. eigenvalues --   -0.50598  -0.43740  -0.39773  -0.39773
 Alpha virt. eigenvalues --    0.02173   0.04130   0.05431   0.05431   0.08801
 Alpha virt. eigenvalues --    0.08801   0.08881   0.13988   0.18843   0.18844
 Alpha virt. eigenvalues --    0.20912   0.20912   0.24124   0.27623   0.30498

  Beta  occ. eigenvalues --  -10.51877 -10.51831  -0.85755  -0.69762  -0.50598
  Beta  occ. eigenvalues --   -0.50598  -0.43740  -0.39773  -0.39773
  Beta virt. eigenvalues --    0.02173   0.04130   0.05431   0.05431   0.08801
  Beta virt. eigenvalues --    0.08801   0.08881   0.13988   0.18843   0.18844
  Beta virt. eigenvalues --    0.20912   0.20912   0.24124   0.27623   0.30498

 Mulliken charges and spin densities:
               1          2
     1  C   -0.465581  -0.000000
     2  C   -0.465581   0.000000
     3  H    0.155193   0.000000
     4  H    0.155193   0.000000
     5  H    0.155193  -0.000000
     6  H    0.155194   0.000000
     7  H    0.155193   0.000000
     8  H    0.155194   0.000000
 Sum of Mulliken charges =  -0.00000  -0.00000

 Dipole moment (field-independent basis, Debye):
    X=             -0.0000    Y=             -0.0000    Z=             -0.0000  Tot=              0.0000
 Quadrupole moment (field-independent basis, Debye-Ang):
   XX=            -15.6315   YY=            -14.9683   ZZ=            -14.9683
   XY=             -0.0000   XZ=             -0.0000   YZ=             -0.0000

 Normal termination of Gaussian 16 at Tue Nov 19 11:52:38 2024.
