 Gaussian 16, Revision A.03,
 Gaussian 16:  ES64L-G16RevA.03 25-Dec-2016

 --------------------------------------------
 #p opt UM062X/6-311+G** nosymm int=superfine
 --------------------------------------------

 -------------------
 Title Card Required
 -------------------
 Symbolic Z-matrix:
 Charge =  0 Multiplicity = 1

 SCF Done:  E(UM062X) =  -51.8613066838     A.U. after    8 cycles
 SCF Done:  E(UM062X) =  -51.8649769688     A.U. after    8 cycles
 SCF Done:  E(UM062X) =  -51.8666533310     A.U. after    9 cycles
 SCF Done:  E(UM062X) =  -51.8666529757     A.U. after    8 cycles
 SCF Done:  E(UM062X) =  -51.8666377954     A.U. after    9 cycles
 SCF Done:  E(UM062X) =  -51.8666536243     A.U. after    9 cycles
 SCF Done:  E(UM062X) =  -51.8666542819     A.U. after    7 cycles
 Optimization completed.
    -- Stationary point found.

                          Input orientation:
 ---------------------------------------------------------------------
 Center     Atomic      Atomic             Coordinates (Angstroms)
 Number     Number       Type             X           Y           Z
 ---------------------------------------------------------------------
      1          5           0       -1.520607    0.000000    0.000000
      2          5           0        1.520607    0.000000    0.000000
      3          1           0       -2.025697   -1.067749   -0.001228
      4          1           0        2.025697    1.067727   -0.006932
      5          1           0       -2.025697    1.067748    0.001236
      6          1           0        2.025697   -1.067727    0.006874
 ---------------------------------------------------------------------

 Alpha  occ. eigenvalues --   -7.10331  -7.10329  -0.57532  -0.56422  -0.43952
 Alpha  occ. eigenvalues --   -0.43435  -0.23791
 Alpha virt. eigenvalues --   -0.05461  -0.02445  -0.01670   0.02311   0.03895
 Alpha virt. eigenvalues --    0.04025   0.05812   0.06254   0.07566   0.07739
 Alpha virt. eigenvalues --    0.10499   0.15865   0.17291   0.17483   0.25740

  Beta  occ. eigenvalues --   -7.10331  -7.10329  -0.57532  -0.56422  -0.43952
  Beta  occ. eigenvalues --   -0.43435  -0.23791
  Beta virt. eigenvalues --   -0.05461  -0.02445  -0.01670   0.02311   0.03895
  Beta virt. eigenvalues --    0.04025   0.05812   0.06254   0.07566   0.07739
  Beta virt. eigenvalues --    0.10499   0.15865   0.17291   0.17483   0.25740

 Mulliken charges and spin densities:
               1          2
     1  B   -0.047894   0.000000
     2  B   -0.047894  -0.000000
     3  H    0.023947  -0.000000
     4  H    0.023947  -0.000000
     5  H    0.023947   0.000000
     6  H    0.023947  -0.000000
 Sum of Mulliken charges =  -0.00000   0.00000

 Dipole moment (field-independent basis, Debye):
    X=             -0.0000    Y=              0.0000    Z=             -0.0000  Tot=              0.0000
 Quadrupole moment (field-independent basis, Debye-Ang):
   XX=            -14.1941   YY=            -16.8839   ZZ=            -13.9959
   XY=              0.0000   XZ=              0.0001   YZ=              0.0077

 Normal termination of Gaussian 16 at Mon Apr 21 17:11:02 2025.
