 Gaussian 16, Revision A.03,
 Gaussian 16:  ES64L-G16RevA.03 25-Dec-2016

 --------------------------------------------
 #p opt UM062X/6-311+G** nosymm int=superfine
 --------------------------------------------

 -------------------
 Title Card Required
 -------------------
 Symbolic Z-matrix:
 Charge =  0 Multiplicity = 1

 SCF Done:  E(UM062X) =  -382.220502011     A.U. after   18 cycles
 SCF Done:  E(UM062X) =  -382.231196123     A.U. after   12 cycles
 SCF Done:  E(UM062X) =  -382.238010609     A.U. after   13 cycles
 SCF Done:  E(UM062X) =  -382.238134279     A.U. after   12 cycles
 SCF Done:  E(UM062X) =  -382.238191011     A.U. after   12 cycles
 SCF Done:  E(UM062X) =  -382.238271215     A.U. after   12 cycles
 SCF Done:  E(UM062X) =  -382.238310889     A.U. after    9 cycles
 SCF Done:  E(UM062X) =  -382.238317375     A.U. after   11 cycles
 SCF Done:  E(UM062X) =  -382.238318035     A.U. after    9 cycles
 SCF Done:  E(UM062X) =  -382.238318676     A.U. after   10 cycles
 SCF Done:  E(UM062X) =  -382.238319636     A.U. after    8 cycles
 SCF Done:  E(UM062X) =  -382.238320223     A.U. after   10 cycles
 SCF Done:  E(UM062X) =  -382.238320430     A.U. after    8 cycles
 Optimization completed.
    -- Stationary point found.

                          Input orientation:
 ---------------------------------------------------------------------
 Center     Atomic      Atomic             Coordinates (Angstroms)
 Number     Number       Type             X           Y           Z
 ---------------------------------------------------------------------
      1          6           0       -2.256264    0.000000    0.000000
      2         15           0        2.256264    0.000000    0.000000
      3          1           0        2.170472   -1.416895    0.021120
      4          1           0       -2.268860    1.054561    0.233580
      5          1           0        2.169483    0.071319    1.415166
      6          1           0       -2.269083   -0.323912   -1.030407
      7          1           0       -2.311476   -0.729156    0.795194
 ---------------------------------------------------------------------

 Alpha  occ. eigenvalues --  -78.02941 -10.59819  -6.85374  -4.96895  -4.96823
 Alpha  occ. eigenvalues --   -4.96641  -0.79256  -0.69359  -0.51465  -0.51433
 Alpha  occ. eigenvalues --   -0.43525  -0.34624  -0.22549
 Alpha virt. eigenvalues --   -0.14121   0.02088   0.03741   0.03977   0.04486
 Alpha virt. eigenvalues --    0.06092   0.06547   0.07212   0.07345   0.10896
 Alpha virt. eigenvalues --    0.16239   0.17944   0.17991   0.22487   0.30588

  Beta  occ. eigenvalues --  -78.02941 -10.59819  -6.85374  -4.96895  -4.96823
  Beta  occ. eigenvalues --   -4.96641  -0.79256  -0.69359  -0.51465  -0.51433
  Beta  occ. eigenvalues --   -0.43525  -0.34624  -0.22549
  Beta virt. eigenvalues --   -0.14121   0.02088   0.03741   0.03977   0.04486
  Beta virt. eigenvalues --    0.06092   0.06547   0.07212   0.07345   0.10896
  Beta virt. eigenvalues --    0.16239   0.17944   0.17991   0.22487   0.30588

 Mulliken charges and spin densities:
               1          2
     1  C   -0.481234  -0.000000
     2  P   -0.046816   0.000000
     3  H   -0.010466  -0.000000
     4  H    0.183774   0.000000
     5  H   -0.010466  -0.000000
     6  H    0.183737   0.000000
     7  H    0.181472   0.000000
 Sum of Mulliken charges =  -0.00000   0.00000

 Dipole moment (field-independent basis, Debye):
    X=             -1.8596    Y=             -0.5825    Z=              0.6220  Tot=              2.0456
 Quadrupole moment (field-independent basis, Debye-Ang):
   XX=            -22.7196   YY=            -22.4389   ZZ=            -22.5312
   XY=             -1.3854   XZ=              1.4773   YZ=              0.7054

 Normal termination of Gaussian 16 at Mon Apr 21 19:10:53 2025.
