 Gaussian 16, Revision A.03,
 Gaussian 16:  ES64L-G16RevA.03 25-Dec-2016

 --------------------------------------------
 #p opt UM062X/6-311+G** nosymm int=superfine
 --------------------------------------------

 -------------------
 Title Card Required
 -------------------
 Symbolic Z-matrix:
 Charge =  0 Multiplicity = 1

 SCF Done:  E(UM062X) =  -379.890562801     A.U. after   10 cycles
 SCF Done:  E(UM062X) =  -379.890630406     A.U. after    9 cycles
 Optimization completed.
    -- Stationary point found.

                          Input orientation:
 ---------------------------------------------------------------------
 Center     Atomic      Atomic             Coordinates (Angstroms)
 Number     Number       Type             X           Y           Z
 ---------------------------------------------------------------------
      1          6           0       -0.940377    0.000000    0.000000
      2         15           0        0.940377    0.000000    0.000000
      3          1           0       -2.024249   -0.000000    0.000000
 ---------------------------------------------------------------------

 Alpha  occ. eigenvalues --  -78.07997 -10.63932  -6.89693  -5.01084  -5.01084
 Alpha  occ. eigenvalues --   -5.01052  -0.76323  -0.63076  -0.42735  -0.30568
 Alpha  occ. eigenvalues --   -0.30568
 Alpha virt. eigenvalues --   -0.06674  -0.06674   0.01064   0.02112   0.05062
 Alpha virt. eigenvalues --    0.05062   0.07040   0.07752   0.10685   0.10685
 Alpha virt. eigenvalues --    0.16280   0.22436   0.32780   0.32780   0.33149

  Beta  occ. eigenvalues --  -78.07997 -10.63932  -6.89693  -5.01084  -5.01084
  Beta  occ. eigenvalues --   -5.01052  -0.76323  -0.63076  -0.42735  -0.30568
  Beta  occ. eigenvalues --   -0.30568
  Beta virt. eigenvalues --   -0.06674  -0.06674   0.01064   0.02112   0.05062
  Beta virt. eigenvalues --    0.05062   0.07040   0.07752   0.10685   0.10685
  Beta virt. eigenvalues --    0.16280   0.22436   0.32780   0.32780   0.33149

 Mulliken charges and spin densities:
               1          2
     1  C   -0.316217  -0.000000
     2  P    0.104051  -0.000000
     3  H    0.212166   0.000000
 Sum of Mulliken charges =  -0.00000  -0.00000

 Dipole moment (field-independent basis, Debye):
    X=             -0.3125    Y=             -0.0000    Z=              0.0000  Tot=              0.3125
 Quadrupole moment (field-independent basis, Debye-Ang):
   XX=            -14.6713   YY=            -21.4642   ZZ=            -21.4642
   XY=              0.0000   XZ=             -0.0000   YZ=             -0.0000

 Normal termination of Gaussian 16 at Mon Apr 21 19:29:21 2025.
