 Gaussian 16, Revision A.03,
 Gaussian 16:  ES64L-G16RevA.03 25-Dec-2016

 --------------------------------------------
 #p opt UM062X/6-311+G** nosymm int=superfine
 --------------------------------------------

 -------------------
 Title Card Required
 -------------------
 Symbolic Z-matrix:
 Charge =  0 Multiplicity = 1

 SCF Done:  E(UM062X) =  -95.5670873591     A.U. after   19 cycles
 SCF Done:  E(UM062X) =  -95.5815897594     A.U. after   13 cycles
 SCF Done:  E(UM062X) =  -95.5914069309     A.U. after   14 cycles
 SCF Done:  E(UM062X) =  -95.5917271080     A.U. after   12 cycles
 SCF Done:  E(UM062X) =  -95.5920954574     A.U. after   13 cycles
 SCF Done:  E(UM062X) =  -95.5925006541     A.U. after   14 cycles
 SCF Done:  E(UM062X) =  -95.5926710811     A.U. after   12 cycles
 SCF Done:  E(UM062X) =  -95.5927530940     A.U. after   12 cycles
 SCF Done:  E(UM062X) =  -95.5927637653     A.U. after   11 cycles
 SCF Done:  E(UM062X) =  -95.5927640241     A.U. after   10 cycles
 SCF Done:  E(UM062X) =  -95.5927643792     A.U. after   10 cycles
 SCF Done:  E(UM062X) =  -95.5927648379     A.U. after   10 cycles
 SCF Done:  E(UM062X) =  -95.5927653856     A.U. after   11 cycles
 SCF Done:  E(UM062X) =  -95.5927656520     A.U. after   11 cycles
 SCF Done:  E(UM062X) =  -95.5927657647     A.U. after   10 cycles
 Optimization completed.
    -- Stationary point found.

                          Input orientation:
 ---------------------------------------------------------------------
 Center     Atomic      Atomic             Coordinates (Angstroms)
 Number     Number       Type             X           Y           Z
 ---------------------------------------------------------------------
      1          6           0       -2.180542    0.000000    0.000000
      2          7           0        2.180542    0.000000    0.000000
      3          1           0        2.128977   -1.014706    0.142452
      4          1           0       -2.144561    1.079825    0.015641
      5          1           0        2.129886    0.372452    0.954619
      6          1           0       -2.143562   -0.525754   -0.943279
      7          1           0       -2.302128   -0.550655    0.921867
 ---------------------------------------------------------------------

 Alpha  occ. eigenvalues --  -14.74625 -10.62161  -0.90123  -0.81250  -0.53424
 Alpha  occ. eigenvalues --   -0.53310  -0.50649  -0.35859  -0.23779
 Alpha virt. eigenvalues --   -0.15730   0.01741   0.04502   0.04749   0.06886
 Alpha virt. eigenvalues --    0.09952   0.12922   0.15732   0.16554   0.16696
 Alpha virt. eigenvalues --    0.17141   0.20337   0.21517   0.27080   0.40966

  Beta  occ. eigenvalues --  -14.74625 -10.62161  -0.90123  -0.81250  -0.53424
  Beta  occ. eigenvalues --   -0.53310  -0.50649  -0.35859  -0.23779
  Beta virt. eigenvalues --   -0.15730   0.01741   0.04502   0.04749   0.06886
  Beta virt. eigenvalues --    0.09952   0.12922   0.15732   0.16554   0.16696
  Beta virt. eigenvalues --    0.17141   0.20337   0.21517   0.27080   0.40966

 Mulliken charges and spin densities:
               1          2
     1  C   -0.417035  -0.000000
     2  N   -0.581212   0.000000
     3  H    0.209927  -0.000000
     4  H    0.195368   0.000000
     5  H    0.209932  -0.000000
     6  H    0.195460   0.000000
     7  H    0.187560   0.000000
 Sum of Mulliken charges =  -0.00000   0.00000

 Dipole moment (field-independent basis, Debye):
    X=             -3.7665    Y=             -1.0074    Z=              1.7207  Tot=              4.2617
 Quadrupole moment (field-independent basis, Debye-Ang):
   XX=            -16.0586   YY=            -13.4592   ZZ=            -14.2766
   XY=             -2.1956   XZ=              3.7540   YZ=              0.7286

 Normal termination of Gaussian 16 at Mon Apr 21 18:20:28 2025.
