 Gaussian 16, Revision A.03,
 Gaussian 16:  ES64L-G16RevA.03 25-Dec-2016

 -------------------------------------------
 #p opt b3lyp/6-311+G** nosymm int=superfine
 -------------------------------------------

 -------------------
 Title Card Required
 -------------------
 Symbolic Z-matrix:
 Charge =  0 Multiplicity = 2

 SCF Done:  E(UB3LYP) =  -398.772854222     A.U. after   13 cycles
 SCF Done:  E(UB3LYP) =  -398.772871502     A.U. after    8 cycles
 Optimization completed.
    -- Stationary point found.

                          Input orientation:
 ---------------------------------------------------------------------
 Center     Atomic      Atomic             Coordinates (Angstroms)
 Number     Number       Type             X           Y           Z
 ---------------------------------------------------------------------
      1         16           0        0.838986   -0.000191   -0.003066
      2          1           0        1.016166    0.083130    1.335688
 ---------------------------------------------------------------------

 Alpha  occ. eigenvalues --  -88.88449  -7.96863  -5.93957  -5.92894  -5.92013
 Alpha  occ. eigenvalues --   -0.74293  -0.41734  -0.32576  -0.27907
 Alpha virt. eigenvalues --   -0.00671   0.04345   0.05090   0.05226   0.05632
 Alpha virt. eigenvalues --    0.29246   0.30993   0.32704   0.35416   0.55200
 Alpha virt. eigenvalues --    0.64630   0.68160   0.72945   0.72993   0.92560

  Beta  occ. eigenvalues --  -88.87852  -7.96315  -5.92552  -5.92089  -5.91672
  Beta  occ. eigenvalues --   -0.70298  -0.40379  -0.26458
  Beta virt. eigenvalues --   -0.18453  -0.00129   0.04653   0.05430   0.05621
  Beta virt. eigenvalues --    0.05815   0.29573   0.33013   0.33311   0.35956
  Beta virt. eigenvalues --    0.56803   0.68831   0.69592   0.78451   0.78941

 Mulliken charges and spin densities:
               1          2
     1  S   -0.067214   1.026064
     2  H    0.067214  -0.026064
 Sum of Mulliken charges =  -0.00000   1.00000

 Dipole moment (field-independent basis, Debye):
    X=              0.1351    Y=              0.0636    Z=              1.0211  Tot=              1.0320
 Quadrupole moment (field-independent basis, Debye-Ang):
   XX=            -13.8714   YY=            -15.0077   ZZ=            -12.0905
   XY=              1.5321   XZ=              1.0338   YZ=             -0.0127

 1\1\GINC-NODE04\FOpt\UB3LYP\6-311+G(d,p)\H1S1(2)\SZHAO\12-May-2025\0\\
 #p opt b3lyp/6-311+G** nosymm int=superfine\\Title Card Required\\0,2\
 S,0.8389862641,-0.0001908018,-0.0030657067\H,1.0161657359,0.0831298018
 ,1.3356877067\\Version=ES64L-G16RevA.03\HF=-398.7728715\S2=0.752535\S2
 -1=0.\S2A=0.750002\RMSD=3.480e-09\RMSF=3.672e-05\Dipole=0.0531698,0.02
 50039,0.4017452\Quadrupole=-0.1597278,-1.0045444,1.1642722,1.1390588,0
 .7686063,-0.0094748\PG=C*V [C*(H1S1)]\\@

 Normal termination of Gaussian 16 at Mon May 12 15:02:41 2025.
