 Gaussian 16, Revision A.03,
 Gaussian 16:  ES64L-G16RevA.03 25-Dec-2016

 --------------------------------------------
 #p opt UM062X/6-311+G** nosymm int=superfine
 --------------------------------------------

 -------------------
 Title Card Required
 -------------------
 Symbolic Z-matrix:
 Charge =  0 Multiplicity = 1

 SCF Done:  E(UM062X) =  -582.488102921     A.U. after    9 cycles
 SCF Done:  E(UM062X) =  -582.488633633     A.U. after    8 cycles
 SCF Done:  E(UM062X) =  -582.488698233     A.U. after    7 cycles
 Optimization completed.
    -- Stationary point found.

                          Input orientation:
 ---------------------------------------------------------------------
 Center     Atomic      Atomic             Coordinates (Angstroms)
 Number     Number       Type             X           Y           Z
 ---------------------------------------------------------------------
      1         14           0       -1.469819    0.000000    0.000000
      2         14           0        1.469819    0.000000    0.000000
      3          1           0        1.938905   -1.401495   -0.000050
      4          1           0       -1.938964   -0.700589    1.213810
      5          1           0        1.939046    0.700750   -1.213685
      6          1           0        1.938968    0.700640    1.213779
      7          1           0       -1.938907    1.401494   -0.000111
      8          1           0       -1.939049   -0.700803   -1.213654
 ---------------------------------------------------------------------

 Alpha  occ. eigenvalues --  -67.00498 -67.00498  -5.55370  -5.55369  -3.86547
 Alpha  occ. eigenvalues --   -3.86542  -3.86447  -3.86447  -3.86446  -3.86446
 Alpha  occ. eigenvalues --   -0.61756  -0.59127  -0.41582  -0.41582  -0.40593
 Alpha  occ. eigenvalues --   -0.40592  -0.29268
 Alpha virt. eigenvalues --   -0.01847   0.02050   0.03010   0.03010   0.04619
 Alpha virt. eigenvalues --    0.04704   0.05591   0.05591   0.06390   0.06390
 Alpha virt. eigenvalues --    0.08382   0.09141   0.09142   0.15299   0.17556

  Beta  occ. eigenvalues --  -67.00498 -67.00498  -5.55370  -5.55369  -3.86547
  Beta  occ. eigenvalues --   -3.86542  -3.86447  -3.86447  -3.86446  -3.86446
  Beta  occ. eigenvalues --   -0.61756  -0.59127  -0.41582  -0.41582  -0.40593
  Beta  occ. eigenvalues --   -0.40592  -0.29268
  Beta virt. eigenvalues --   -0.01847   0.02050   0.03010   0.03010   0.04619
  Beta virt. eigenvalues --    0.04704   0.05591   0.05591   0.06390   0.06390
  Beta virt. eigenvalues --    0.08382   0.09141   0.09142   0.15299   0.17556

 Mulliken charges and spin densities:
               1          2
     1  Si   0.295789  -0.000000
     2  Si   0.295789   0.000000
     3  H   -0.098599  -0.000000
     4  H   -0.098596   0.000000
     5  H   -0.098595  -0.000000
     6  H   -0.098595  -0.000000
     7  H   -0.098599   0.000000
     8  H   -0.098595   0.000000
 Sum of Mulliken charges =  -0.00000  -0.00000

 Dipole moment (field-independent basis, Debye):
    X=              0.0000    Y=              0.0000    Z=             -0.0000  Tot=              0.0000
 Quadrupole moment (field-independent basis, Debye-Ang):
   XX=            -31.2375   YY=            -31.6286   ZZ=            -31.6284
   XY=              0.0004   XZ=              0.0000   YZ=              0.0000

 Normal termination of Gaussian 16 at Mon Apr 21 20:19:17 2025.
