 Gaussian 16, Revision A.03,
 Gaussian 16:  ES64L-G16RevA.03 25-Dec-2016

 --------------------------------------------
 #p opt UM062X/6-311+G** nosymm int=superfine
 --------------------------------------------

 -------------------
 Title Card Required
 -------------------
 Symbolic Z-matrix:
 Charge = -1 Multiplicity = 2

 SCF Done:  E(UM062X) =  -53.2282891708     A.U. after   11 cycles
 SCF Done:  E(UM062X) =  -53.2290499322     A.U. after   10 cycles
 SCF Done:  E(UM062X) =  -53.2291944069     A.U. after    9 cycles
 Optimization completed.
    -- Stationary point found.

                          Input orientation:
 ---------------------------------------------------------------------
 Center     Atomic      Atomic             Coordinates (Angstroms)
 Number     Number       Type             X           Y           Z
 ---------------------------------------------------------------------
      1          5           0       -1.340672    0.000000    0.000000
      2          5           0        1.340672    0.000000    0.000000
      3          1           0        1.489666   -1.192428   -0.000007
      4          1           0       -1.489620   -0.596213    1.032679
      5          1           0        1.489766    0.596226   -1.032652
      6          1           0        1.489580    0.596199    1.032693
      7          1           0       -1.489673    1.192427    0.000005
      8          1           0       -1.489719   -0.596213   -1.032666
 ---------------------------------------------------------------------

 Alpha  occ. eigenvalues --   -6.81712  -6.81707  -0.39352  -0.35834  -0.20314
 Alpha  occ. eigenvalues --   -0.20314  -0.18276  -0.18276  -0.01531
 Alpha virt. eigenvalues --    0.15830   0.17232   0.17598   0.17598   0.19151
 Alpha virt. eigenvalues --    0.19151   0.21415   0.23066   0.25102   0.33011
 Alpha virt. eigenvalues --    0.33011   0.37088   0.37088   0.39021   0.41036

  Beta  occ. eigenvalues --   -6.81646  -6.81645  -0.36832  -0.34272  -0.19858
  Beta  occ. eigenvalues --   -0.19858  -0.18047  -0.18047
  Beta virt. eigenvalues --    0.13683   0.14995   0.17258   0.17258   0.17789
  Beta virt. eigenvalues --    0.18674   0.18674   0.23826   0.24164   0.30876
  Beta virt. eigenvalues --    0.32895   0.32895   0.37278   0.37278   0.39544

 Mulliken charges and spin densities:
               1          2
     1  B   -0.278278   0.601859
     2  B   -0.278278   0.601859
     3  H   -0.073900  -0.033943
     4  H   -0.073907  -0.033956
     5  H   -0.073917  -0.033960
     6  H   -0.073905  -0.033956
     7  H   -0.073901  -0.033943
     8  H   -0.073914  -0.033959
 Sum of Mulliken charges =  -1.00000   1.00000

 Dipole moment (field-independent basis, Debye):
    X=             -0.0000    Y=             -0.0000    Z=              0.0000  Tot=              0.0000
 Quadrupole moment (field-independent basis, Debye-Ang):
   XX=            -33.9801   YY=            -24.0267   ZZ=            -24.0268
   XY=             -0.0001   XZ=              0.0000   YZ=              0.0000

 Normal termination of Gaussian 16 at Mon Apr 21 16:52:39 2025.
