 Gaussian 16, Revision A.03,
 Gaussian 16:  ES64L-G16RevA.03 25-Dec-2016

 --------------------------------------------
 #p opt UM062X/6-311+G** nosymm int=superfine
 --------------------------------------------

 -------------------
 Title Card Required
 -------------------
 Symbolic Z-matrix:
 Charge =  0 Multiplicity = 1

 SCF Done:  E(UM062X) =  -74.6320147856     A.U. after   13 cycles
 SCF Done:  E(UM062X) =  -74.6639510072     A.U. after   10 cycles
 SCF Done:  E(UM062X) =  -74.7156117103     A.U. after   11 cycles
 SCF Done:  E(UM062X) =  -74.7992816428     A.U. after   11 cycles
 SCF Done:  E(UM062X) =  -74.8832003327     A.U. after   12 cycles
 SCF Done:  E(UM062X) =  -74.9043991292     A.U. after   13 cycles
 SCF Done:  E(UM062X) =  -74.9337656722     A.U. after   11 cycles
 SCF Done:  E(UM062X) =  -75.0258972171     A.U. after   11 cycles
 SCF Done:  E(UM062X) =  -75.0381712257     A.U. after   10 cycles
 SCF Done:  E(UM062X) =  -75.1378419174     A.U. after   11 cycles
 SCF Done:  E(UM062X) =  -75.1454452889     A.U. after   10 cycles
 SCF Done:  E(UM062X) =  -75.1568292442     A.U. after   11 cycles
 SCF Done:  E(UM062X) =  -75.1612053612     A.U. after   11 cycles
 SCF Done:  E(UM062X) =  -75.1611801499     A.U. after   10 cycles
 SCF Done:  E(UM062X) =  -75.1612003472     A.U. after   10 cycles
 SCF Done:  E(UM062X) =  -75.1612246739     A.U. after   10 cycles
 SCF Done:  E(UM062X) =  -75.1612257001     A.U. after    9 cycles
 Optimization completed.
    -- Stationary point found.

                          Input orientation:
 ---------------------------------------------------------------------
 Center     Atomic      Atomic             Coordinates (Angstroms)
 Number     Number       Type             X           Y           Z
 ---------------------------------------------------------------------
      1          6           0       -0.292461    0.000000   -0.000000
      2          6           0        0.292461   -0.000000    0.000000
      3          1           0       -1.213288   -0.750632    0.000035
      4          1           0       -1.218227    0.734050   -0.000012
      5          1           0        1.213290    0.750627   -0.000012
      6          1           0        1.218238   -0.734031    0.000073
 ---------------------------------------------------------------------

 Alpha  occ. eigenvalues --  -11.09658 -10.59397  -0.87010  -0.74972  -0.70322
 Alpha  occ. eigenvalues --   -0.60880  -0.41405  -0.22208
 Alpha virt. eigenvalues --   -0.00630   0.02220   0.03656   0.04491   0.08015
 Alpha virt. eigenvalues --    0.09818   0.10279   0.11044   0.15703   0.18617
 Alpha virt. eigenvalues --    0.22669   0.28015   0.38456   0.42191   0.43620

  Beta  occ. eigenvalues --  -11.09658 -10.59397  -0.87010  -0.74972  -0.70322
  Beta  occ. eigenvalues --   -0.60880  -0.41405  -0.22208
  Beta virt. eigenvalues --   -0.00630   0.02220   0.03656   0.04491   0.08015
  Beta virt. eigenvalues --    0.09818   0.10279   0.11044   0.15703   0.18617
  Beta virt. eigenvalues --    0.22669   0.28015   0.38456   0.42191   0.43620

 Mulliken charges and spin densities:
               1          2
     1  C   -0.252222  -0.000000
     2  C   -0.252165   0.000000
     3  H    0.123440  -0.000000
     4  H    0.128751  -0.000000
     5  H    0.123443  -0.000000
     6  H    0.128754  -0.000000
 Sum of Mulliken charges =  -0.00000   0.00000

 Dipole moment (field-independent basis, Debye):
    X=              0.0001    Y=              0.0000    Z=              0.0000  Tot=              0.0001
 Quadrupole moment (field-independent basis, Debye-Ang):
   XX=            -13.7714   YY=            -13.8795   ZZ=            -12.5669
   XY=             -0.0834   XZ=              0.0000   YZ=              0.0001

 Normal termination of Gaussian 16 at Tue Nov 19 10:00:23 2024.
