 Gaussian 16, Revision A.03,
 Gaussian 16:  ES64L-G16RevA.03 25-Dec-2016

 ---------------------------------------
 #p UM062X/6-311+G** force int=superfine
 ---------------------------------------

 -------------------
 Title Card Required
 -------------------
 Symbolic Z-matrix:
 Charge =  1 Multiplicity = 2

                         Standard orientation:
 ---------------------------------------------------------------------
 Center     Atomic      Atomic             Coordinates (Angstroms)
 Number     Number       Type             X           Y           Z
 ---------------------------------------------------------------------
      1          7           0        0.000000    0.000000    0.855391
      2          7           0        0.000000    0.000000   -0.855391
 ---------------------------------------------------------------------

 SCF Done:  E(UM062X) =  -108.688903770     A.U. after   10 cycles

 Unable to determine electronic state:  partially filled degenerate orbitals.
 Alpha  occ. eigenvalues --  -15.37995 -15.37964  -1.38397  -1.17426  -0.83425
 Alpha  occ. eigenvalues --   -0.80498  -0.77814
 Alpha virt. eigenvalues --   -0.54826  -0.52112  -0.36985  -0.14200  -0.09490
 Alpha virt. eigenvalues --   -0.09257  -0.08739  -0.04339  -0.03009  -0.02740
 Alpha virt. eigenvalues --    0.06484   0.43505   0.45335   0.49575   0.53114

  Beta  occ. eigenvalues --  -15.37578 -15.37555  -1.34346  -1.14127  -0.81610
  Beta  occ. eigenvalues --   -0.76010
  Beta virt. eigenvalues --   -0.55102  -0.50389  -0.44410  -0.35116  -0.15947
  Beta virt. eigenvalues --   -0.10350  -0.09713  -0.09083  -0.05132  -0.03345
  Beta virt. eigenvalues --   -0.03060   0.05167   0.44868   0.45567   0.49361

 Mulliken charges and spin densities:
               1          2
     1  N    0.500000   0.500000
     2  N    0.500000   0.500000
 Sum of Mulliken charges =   1.00000   1.00000

 Dipole moment (field-independent basis, Debye):
    X=              0.0000    Y=              0.0000    Z=              0.0000  Tot=              0.0000
 Quadrupole moment (field-independent basis, Debye-Ang):
   XX=             -9.6504   YY=             -8.2342   ZZ=             -5.7751
   XY=              0.0000   XZ=             -0.0000   YZ=             -0.0000

 Optimization completed.
    -- Stationary point found.
 Normal termination of Gaussian 16 at Wed Feb 26 13:43:44 2025.
