 Gaussian 16, Revision A.03,
 Gaussian 16:  ES64L-G16RevA.03 25-Dec-2016

 ---------------------------------------
 #p UM062X/6-311+G** force int=superfine
 ---------------------------------------

 -------------------
 Title Card Required
 -------------------
 Symbolic Z-matrix:
 Charge =  0 Multiplicity = 1

                         Standard orientation:
 ---------------------------------------------------------------------
 Center     Atomic      Atomic             Coordinates (Angstroms)
 Number     Number       Type             X           Y           Z
 ---------------------------------------------------------------------
      1          6           0        0.000000    0.523669    0.000000
      2          6           0       -0.000000   -0.523669    0.000000
      3          1           0       -0.894170    1.151547    0.000000
      4          1           0        0.894348    1.151473    0.000000
      5          1           0        0.894170   -1.151547    0.000000
      6          1           0       -0.894348   -1.151473    0.000000
 ---------------------------------------------------------------------

 SCF Done:  E(UM062X) =  -78.4100540443     A.U. after    9 cycles

 The electronic state is 1-AG.
 Alpha  occ. eigenvalues --  -10.49616 -10.48723  -0.93106  -0.63462  -0.57262
 Alpha  occ. eigenvalues --   -0.52368  -0.40175  -0.36019
 Alpha virt. eigenvalues --    0.03342   0.04251   0.04536   0.06527   0.06890
 Alpha virt. eigenvalues --    0.08717   0.09811   0.16118   0.17777   0.18088
 Alpha virt. eigenvalues --    0.18419   0.24664   0.33841   0.41024   0.43441

  Beta  occ. eigenvalues --  -10.49616 -10.48723  -0.93106  -0.63462  -0.57262
  Beta  occ. eigenvalues --   -0.52368  -0.40175  -0.36019
  Beta virt. eigenvalues --    0.03342   0.04251   0.04536   0.06527   0.06890
  Beta virt. eigenvalues --    0.08717   0.09811   0.16118   0.17777   0.18088
  Beta virt. eigenvalues --    0.18419   0.24664   0.33841   0.41024   0.43441

 Mulliken charges and spin densities:
               1          2
     1  C   -0.262662  -0.000000
     2  C   -0.262662  -0.000000
     3  H    0.131343   0.000000
     4  H    0.131320   0.000000
     5  H    0.131343   0.000000
     6  H    0.131320   0.000000
 Sum of Mulliken charges =  -0.00000  -0.00000

 Dipole moment (field-independent basis, Debye):
    X=             -0.0000    Y=              0.0000    Z=              0.0000  Tot=              0.0000
 Quadrupole moment (field-independent basis, Debye-Ang):
   XX=            -12.3678   YY=            -12.4821   ZZ=            -14.5852
   XY=             -0.0004   XZ=              0.0000   YZ=              0.0000

 Normal termination of Gaussian 16 at Tue Nov 19 11:41:56 2024.
