 Gaussian 16, Revision A.03,
 Gaussian 16:  ES64L-G16RevA.03 25-Dec-2016

 --------------------------------------------
 #p opt UM062X/6-311+G** nosymm int=superfine
 --------------------------------------------

 -------------------
 Title Card Required
 -------------------
 Symbolic Z-matrix:
 Charge =  0 Multiplicity = 1

 SCF Done:  E(UM062X) =  -94.2578447802     A.U. after   11 cycles
 SCF Done:  E(UM062X) =  -94.2578462843     A.U. after   10 cycles
 SCF Done:  E(UM062X) =  -94.2578469780     A.U. after    9 cycles
 SCF Done:  E(UM062X) =  -94.2578471359     A.U. after    7 cycles
 Optimization completed.
    -- Stationary point found.

                          Input orientation:
 ---------------------------------------------------------------------
 Center     Atomic      Atomic             Coordinates (Angstroms)
 Number     Number       Type             X           Y           Z
 ---------------------------------------------------------------------
      1          6           0       -2.105039    0.000000    0.000000
      2          7           0        2.105039    0.000000    0.000000
      3          1           0       -2.810988   -0.853215   -0.007381
      4          1           0        1.064616   -0.002866    0.000217
      5          1           0       -2.784762    0.874313    0.007118
 ---------------------------------------------------------------------

 Alpha  occ. eigenvalues --  -14.81874 -10.62396  -0.88247  -0.77136  -0.49172
 Alpha  occ. eigenvalues --   -0.45105  -0.33176  -0.32705
 Alpha virt. eigenvalues --   -0.11606  -0.09706   0.01280   0.05360   0.05906
 Alpha virt. eigenvalues --    0.07425   0.13458   0.13529   0.15239   0.16837
 Alpha virt. eigenvalues --    0.17835   0.18164   0.20819   0.43249   0.47732

  Beta  occ. eigenvalues --  -14.81874 -10.62396  -0.88247  -0.77136  -0.49172
  Beta  occ. eigenvalues --   -0.45105  -0.33176  -0.32705
  Beta virt. eigenvalues --   -0.11606  -0.09706   0.01280   0.05360   0.05906
  Beta virt. eigenvalues --    0.07425   0.13458   0.13529   0.15239   0.16837
  Beta virt. eigenvalues --    0.17835   0.18164   0.20819   0.43249   0.47732

 Mulliken charges and spin densities:
               1          2
     1  C   -0.287973   0.000000
     2  N   -0.236570  -0.000000
     3  H    0.140057  -0.000000
     4  H    0.244826  -0.000000
     5  H    0.139659  -0.000000
 Sum of Mulliken charges =  -0.00000  -0.00000

 Dipole moment (field-independent basis, Debye):
    X=             -4.0739    Y=              0.0256    Z=             -0.0000  Tot=              4.0740
 Quadrupole moment (field-independent basis, Debye-Ang):
   XX=            -13.3337   YY=            -12.2655   ZZ=            -14.8676
   XY=             -0.0485   XZ=              0.0004   YZ=              0.0249

 Normal termination of Gaussian 16 at Mon Apr 21 22:36:29 2025.
