 Gaussian 16, Revision A.03,
 Gaussian 16:  ES64L-G16RevA.03 25-Dec-2016

 --------------------------------------------
 #p opt UM062X/6-311+G** nosymm int=superfine
 --------------------------------------------

 -------------------
 Title Card Required
 -------------------
 Symbolic Z-matrix:
 Charge =  0 Multiplicity = 1

 SCF Done:  E(UM062X) =  -111.608444665     A.U. after   17 cycles
 SCF Done:  E(UM062X) =  -111.611810681     A.U. after   14 cycles
 SCF Done:  E(UM062X) =  -111.613536275     A.U. after   17 cycles
 SCF Done:  E(UM062X) =  -111.614818853     A.U. after   18 cycles
 SCF Done:  E(UM062X) =  -111.616187056     A.U. after   18 cycles
 SCF Done:  E(UM062X) =  -111.617382841     A.U. after   16 cycles
 SCF Done:  E(UM062X) =  -111.618184446     A.U. after   15 cycles
 SCF Done:  E(UM062X) =  -111.618508209     A.U. after   15 cycles
 SCF Done:  E(UM062X) =  -111.618747443     A.U. after   15 cycles
 SCF Done:  E(UM062X) =  -111.619007121     A.U. after   18 cycles
 SCF Done:  E(UM062X) =  -111.619111818     A.U. after   16 cycles
 SCF Done:  E(UM062X) =  -111.619153607     A.U. after   14 cycles
 SCF Done:  E(UM062X) =  -111.619166158     A.U. after   13 cycles
 SCF Done:  E(UM062X) =  -111.619192103     A.U. after   15 cycles
 SCF Done:  E(UM062X) =  -111.619229150     A.U. after   16 cycles
 SCF Done:  E(UM062X) =  -111.619250003     A.U. after   14 cycles
 SCF Done:  E(UM062X) =  -111.619251384     A.U. after   11 cycles
 SCF Done:  E(UM062X) =  -111.619251614     A.U. after   11 cycles
 SCF Done:  E(UM062X) =  -111.619251635     A.U. after    9 cycles
 Optimization completed.
    -- Stationary point found.

                          Input orientation:
 ---------------------------------------------------------------------
 Center     Atomic      Atomic             Coordinates (Angstroms)
 Number     Number       Type             X           Y           Z
 ---------------------------------------------------------------------
      1          7           0       -2.061540    0.000000    0.000000
      2          7           0        2.061540    0.000000    0.000000
      3          1           0       -1.939652   -0.810103   -0.620507
      4          1           0        1.939973    0.401268   -0.938273
      5          1           0       -1.939674   -0.402018    0.937914
      6          1           0        1.940185    0.810722    0.619801
 ---------------------------------------------------------------------

 Alpha  occ. eigenvalues --  -14.80455 -14.80454  -0.95188  -0.95014  -0.55350
 Alpha  occ. eigenvalues --   -0.55277  -0.40734  -0.40613  -0.27770
 Alpha virt. eigenvalues --   -0.19358   0.04009   0.05879   0.08877   0.11598
 Alpha virt. eigenvalues --    0.12103   0.13067   0.15211   0.16534   0.17654
 Alpha virt. eigenvalues --    0.18478   0.22408   0.29512   0.50915   0.51848

  Beta  occ. eigenvalues --  -14.80455 -14.80454  -0.95188  -0.95014  -0.55350
  Beta  occ. eigenvalues --   -0.55277  -0.40734  -0.40613  -0.27770
  Beta virt. eigenvalues --   -0.19358   0.04009   0.05879   0.08877   0.11598
  Beta virt. eigenvalues --    0.12103   0.13067   0.15211   0.16534   0.17654
  Beta virt. eigenvalues --    0.18478   0.22408   0.29512   0.50915   0.51848

 Mulliken charges and spin densities:
               1          2
     1  N   -0.476284  -0.000004
     2  N   -0.476376   0.000004
     3  H    0.238157   0.000000
     4  H    0.238162  -0.000000
     5  H    0.238168   0.000000
     6  H    0.238172  -0.000000
 Sum of Mulliken charges =  -0.00000  -0.00000

 Dipole moment (field-independent basis, Debye):
    X=              0.0010    Y=             -0.0003    Z=             -0.0018  Tot=              0.0021
 Quadrupole moment (field-independent basis, Debye-Ang):
   XX=            -17.2898   YY=            -14.3818   ZZ=            -11.5381
   XY=              8.4845   XZ=             -2.2254   YZ=              0.8011

 Normal termination of Gaussian 16 at Thu May 15 15:20:11 2025.
