 Gaussian 16, Revision A.03,
 Gaussian 16:  ES64L-G16RevA.03 25-Dec-2016

 --------------------------------------------
 #p opt UM062X/6-311+G** nosymm int=superfine
 --------------------------------------------

 -------------------
 Title Card Required
 -------------------
 Symbolic Z-matrix:
 Charge =  1 Multiplicity = 2

 SCF Done:  E(UM062X) =  -76.5175042473     A.U. after   12 cycles
 SCF Done:  E(UM062X) =  -76.6059964150     A.U. after   11 cycles
 SCF Done:  E(UM062X) =  -76.7147532794     A.U. after   10 cycles
 SCF Done:  E(UM062X) =  -76.7626465315     A.U. after   11 cycles
 SCF Done:  E(UM062X) =  -76.7777389525     A.U. after    9 cycles
 SCF Done:  E(UM062X) =  -76.7850145062     A.U. after    9 cycles
 SCF Done:  E(UM062X) =  -76.7851770228     A.U. after    8 cycles
 SCF Done:  E(UM062X) =  -76.7851778487     A.U. after    7 cycles
 Optimization completed.
    -- Stationary point found.

                          Input orientation:
 ---------------------------------------------------------------------
 Center     Atomic      Atomic             Coordinates (Angstroms)
 Number     Number       Type             X           Y           Z
 ---------------------------------------------------------------------
      1          6           0       -0.367584    0.000000    0.000000
      2          6           0        0.367584    0.000000    0.000000
      3          1           0       -1.244595   -0.731639    0.000000
      4          1           0       -1.242854    0.734751    0.000000
      5          1           0        1.244595    0.731639   -0.000000
      6          1           0        1.242854   -0.734751   -0.000000
 ---------------------------------------------------------------------

 Alpha  occ. eigenvalues --  -10.91288 -10.77739  -1.22158  -0.95932  -0.93315
 Alpha  occ. eigenvalues --   -0.87611  -0.83806  -0.57363
 Alpha virt. eigenvalues --   -0.21110  -0.15856  -0.14033  -0.11925  -0.11578
 Alpha virt. eigenvalues --   -0.09275  -0.07865  -0.06106  -0.01450   0.00071
 Alpha virt. eigenvalues --    0.01653   0.02913   0.17410   0.17691   0.20999

  Beta  occ. eigenvalues --  -10.91404 -10.77811  -1.21373  -0.91370  -0.90499
  Beta  occ. eigenvalues --   -0.85096  -0.83740
  Beta virt. eigenvalues --   -0.37208  -0.18585  -0.15664  -0.13623  -0.11561
  Beta virt. eigenvalues --   -0.11483  -0.09114  -0.04428  -0.02461  -0.00848
  Beta virt. eigenvalues --    0.01020   0.02974   0.04044   0.16525   0.16982

 Mulliken charges and spin densities:
               1          2
     1  C   -0.128593   0.073826
     2  C   -0.128593   0.073826
     3  H    0.314212   0.212424
     4  H    0.314381   0.213750
     5  H    0.314212   0.212424
     6  H    0.314381   0.213750
 Sum of Mulliken charges =   1.00000   1.00000

 Dipole moment (field-independent basis, Debye):
    X=             -0.0000    Y=             -0.0000    Z=              0.0000  Tot=              0.0000
 Quadrupole moment (field-independent basis, Debye-Ang):
   XX=             -2.4777   YY=             -7.8669   ZZ=            -11.1532
   XY=             -0.0087   XZ=             -0.0000   YZ=              0.0000

 Normal termination of Gaussian 16 at Tue Nov 19 10:28:31 2024.
