 Gaussian 16, Revision A.03,
 Gaussian 16:  ES64L-G16RevA.03 25-Dec-2016

 --------------------------------------------
 #p opt UM062X/6-311+G** nosymm int=superfine
 --------------------------------------------

 -------------------
 Title Card Required
 -------------------
 Symbolic Z-matrix:
 Charge =  0 Multiplicity = 1

 SCF Done:  E(UM062X) =  -80.4526537190     A.U. after   17 cycles
 SCF Done:  E(UM062X) =  -80.4526575802     A.U. after   12 cycles
 SCF Done:  E(UM062X) =  -80.4526581442     A.U. after   12 cycles
 SCF Done:  E(UM062X) =  -80.4526583250     A.U. after   11 cycles
 SCF Done:  E(UM062X) =  -80.4526585753     A.U. after   12 cycles
 Optimization completed.
    -- Stationary point found.

                          Input orientation:
 ---------------------------------------------------------------------
 Center     Atomic      Atomic             Coordinates (Angstroms)
 Number     Number       Type             X           Y           Z
 ---------------------------------------------------------------------
      1          5           0       -1.317066   -0.000328   -0.000129
      2          7           0        1.317060    0.000358    0.000207
      3          1           0       -2.482091   -0.296995    0.148181
      4          1           0        1.270872    0.922361   -0.469627
 ---------------------------------------------------------------------

 Alpha  occ. eigenvalues --  -14.77488  -7.18858  -0.84348  -0.59623  -0.41211
 Alpha  occ. eigenvalues --   -0.32918  -0.28308
 Alpha virt. eigenvalues --   -0.08545  -0.07511  -0.05550   0.00886   0.04113
 Alpha virt. eigenvalues --    0.05083   0.05228   0.12322   0.15993   0.17703
 Alpha virt. eigenvalues --    0.18853   0.21205   0.25959   0.35392   0.39017

  Beta  occ. eigenvalues --  -14.77488  -7.18858  -0.84348  -0.59623  -0.41211
  Beta  occ. eigenvalues --   -0.32918  -0.28308
  Beta virt. eigenvalues --   -0.08545  -0.07511  -0.05550   0.00886   0.04113
  Beta virt. eigenvalues --    0.05083   0.05228   0.12322   0.15993   0.17703
  Beta virt. eigenvalues --    0.18853   0.21205   0.25959   0.35392   0.39017

 Mulliken charges and spin densities:
               1          2
     1  B    0.086937  -0.000000
     2  N   -0.305145   0.000000
     3  H    0.043079  -0.000000
     4  H    0.175128  -0.000000
 Sum of Mulliken charges =  -0.00000   0.00000

 Dipole moment (field-independent basis, Debye):
    X=             -4.0328    Y=              0.9434    Z=             -0.4849  Tot=              4.1700
 Quadrupole moment (field-independent basis, Debye-Ang):
   XX=            -10.0573   YY=            -13.0741   ZZ=            -14.6542
   XY=              2.0709   XZ=             -1.0562   YZ=             -1.0889

 Normal termination of Gaussian 16 at Mon Apr 21 21:05:44 2025.
