 Gaussian 16, Revision A.03,
 Gaussian 16:  ES64L-G16RevA.03 25-Dec-2016

 ---------------------------------------
 #p UM062X/6-311+G** force int=superfine
 ---------------------------------------

 -------------------
 Title Card Required
 -------------------
 Symbolic Z-matrix:
 Charge =  1 Multiplicity = 2

                         Standard orientation:
 ---------------------------------------------------------------------
 Center     Atomic      Atomic             Coordinates (Angstroms)
 Number     Number       Type             X           Y           Z
 ---------------------------------------------------------------------
      1          6           0       -0.000000    0.000000    0.770465
      2          6           0       -0.000000    0.000000   -0.770465
      3          1           0        0.000000    0.000000    1.861170
      4          1           0        0.000000    0.000000   -1.861165
 ---------------------------------------------------------------------

 SCF Done:  E(UM062X) =  -76.8082511325     A.U. after   10 cycles

 Unable to determine electronic state:  an orbital has unidentified symmetry.
 Alpha  occ. eigenvalues --  -10.98541 -10.98487  -1.13480  -0.98682  -0.86440
 Alpha  occ. eigenvalues --   -0.66065  -0.63820
 Alpha virt. eigenvalues --   -0.33941  -0.31931  -0.22333  -0.14288  -0.10923
 Alpha virt. eigenvalues --   -0.10377  -0.09425  -0.09183  -0.05224  -0.04880
 Alpha virt. eigenvalues --    0.01853   0.04141   0.09630   0.21372   0.31308

  Beta  occ. eigenvalues --  -10.98301 -10.98261  -1.09301  -0.96982  -0.85754
  Beta  occ. eigenvalues --   -0.61676
  Beta virt. eigenvalues --   -0.42282  -0.30228  -0.26250  -0.20286  -0.15398
  Beta virt. eigenvalues --   -0.11263  -0.10573  -0.09775  -0.09572  -0.05041
  Beta virt. eigenvalues --   -0.04666   0.01146   0.04268   0.10106   0.22250

 Mulliken charges and spin densities:
               1          2
     1  C    0.151647   0.520818
     2  C    0.151647   0.520819
     3  H    0.348354  -0.020818
     4  H    0.348352  -0.020818
 Sum of Mulliken charges =   1.00000   1.00000

 Dipole moment (field-independent basis, Debye):
    X=              0.0000    Y=             -0.0000    Z=              0.0000  Tot=              0.0000
 Quadrupole moment (field-independent basis, Debye-Ang):
   XX=            -12.3751   YY=            -10.3657   ZZ=              1.8120
   XY=             -0.0000   XZ=              0.0000   YZ=             -0.0000

 Normal termination of Gaussian 16 at Tue Nov 19 13:35:04 2024.
