 Gaussian 16, Revision A.03,
 Gaussian 16:  ES64L-G16RevA.03 25-Dec-2016

 ---------------------------------------
 #p UM062X/6-311+G** force int=superfine
 ---------------------------------------

 -------------------
 Title Card Required
 -------------------
 Symbolic Z-matrix:
 Charge =  1 Multiplicity = 2

                         Standard orientation:
 ---------------------------------------------------------------------
 Center     Atomic      Atomic             Coordinates (Angstroms)
 Number     Number       Type             X           Y           Z
 ---------------------------------------------------------------------
      1          6           0        1.045120    0.973059   -1.725665
      2          6           0       -1.045122   -0.973056    1.725666
      3          1           0       -1.953292   -1.077318    1.144579
      4          1           0        0.893392    0.093105   -2.338818
      5          1           0       -0.893738   -0.093701    2.339768
      6          1           0       -0.316848   -1.774748    1.739799
      7          1           0        1.953251    1.077548   -1.144556
      8          1           0        0.317243    1.775096   -1.740778
 ---------------------------------------------------------------------

 SCF Done:  E(UM062X) =  -79.3135549776     A.U. after   10 cycles

 The electronic state is 2-A.
 Alpha  occ. eigenvalues --  -10.82708 -10.82707  -1.01346  -1.01170  -0.72469
 Alpha  occ. eigenvalues --   -0.72468  -0.72429  -0.72429  -0.45737
 Alpha virt. eigenvalues --   -0.37919  -0.12211  -0.09993  -0.08926  -0.08925
 Alpha virt. eigenvalues --   -0.06186  -0.06186  -0.04472  -0.02438   0.00765
 Alpha virt. eigenvalues --    0.00768   0.01590   0.01592   0.02210   0.09235

  Beta  occ. eigenvalues --  -10.82480 -10.82479  -0.98677  -0.98605  -0.71925
  Beta  occ. eigenvalues --   -0.71925  -0.71881  -0.71880
  Beta virt. eigenvalues --   -0.30867  -0.26682  -0.17019  -0.10251  -0.09990
  Beta virt. eigenvalues --   -0.09985  -0.06105  -0.06105  -0.05832  -0.01463
  Beta virt. eigenvalues --    0.00740   0.00743   0.01835   0.01838   0.02278

 Mulliken charges and spin densities:
               1          2
     1  C   -0.231752   0.560245
     2  C   -0.231750   0.560246
     3  H    0.243952  -0.020061
     4  H    0.243893  -0.020088
     5  H    0.243912  -0.020090
     6  H    0.243886  -0.020095
     7  H    0.243954  -0.020060
     8  H    0.243906  -0.020097
 Sum of Mulliken charges =   1.00000   1.00000

 Dipole moment (field-independent basis, Debye):
    X=              0.0000    Y=             -0.0000    Z=             -0.0000  Tot=              0.0000
 Quadrupole moment (field-independent basis, Debye-Ang):
   XX=             -6.0150   YY=             -6.6967   ZZ=              2.7954
   XY=              4.7550   XZ=             -8.4318   YZ=             -7.8490

 Normal termination of Gaussian 16 at Tue Nov 19 08:47:03 2024.
