 Gaussian 16, Revision A.03,
 Gaussian 16:  ES64L-G16RevA.03 25-Dec-2016

 ---------------------------------------
 #p UM062X/6-311+G** force int=superfine
 ---------------------------------------

 -------------------
 Title Card Required
 -------------------
 Symbolic Z-matrix:
 Charge =  1 Multiplicity = 2

                         Standard orientation:
 ---------------------------------------------------------------------
 Center     Atomic      Atomic             Coordinates (Angstroms)
 Number     Number       Type             X           Y           Z
 ---------------------------------------------------------------------
      1          6           0        0.000000    0.000000   -0.813959
      2          6           0        0.000000    0.000000    0.813959
      3          1           0        0.000000    0.000000   -1.908020
      4          1           0        0.000000    0.000000    1.908026
 ---------------------------------------------------------------------

 SCF Done:  E(UM062X) =  -76.7656178301     A.U. after   10 cycles

 Unable to determine electronic state:  an orbital has unidentified symmetry.
 Alpha  occ. eigenvalues --  -10.99420 -10.99378  -1.11460  -0.98996  -0.85211
 Alpha  occ. eigenvalues --   -0.64554  -0.62390
 Alpha virt. eigenvalues --   -0.35363  -0.33364  -0.25512  -0.14232  -0.10959
 Alpha virt. eigenvalues --   -0.10725  -0.09216  -0.08978  -0.05283  -0.04957
 Alpha virt. eigenvalues --    0.01601   0.03925   0.08319   0.22121   0.31441

  Beta  occ. eigenvalues --  -10.99174 -10.99145  -1.07475  -0.97256  -0.84415
  Beta  occ. eigenvalues --   -0.60351
  Beta virt. eigenvalues --   -0.41383  -0.31651  -0.27390  -0.23383  -0.15303
  Beta virt. eigenvalues --   -0.11247  -0.11129  -0.09585  -0.09400  -0.05179
  Beta virt. eigenvalues --   -0.04854   0.00780   0.04035   0.08700   0.22919

 Mulliken charges and spin densities:
               1          2
     1  C    0.143270   0.521411
     2  C    0.143271   0.521410
     3  H    0.356728  -0.021410
     4  H    0.356731  -0.021410
 Sum of Mulliken charges =   1.00000   1.00000

 Dipole moment (field-independent basis, Debye):
    X=              0.0000    Y=              0.0000    Z=              0.0000  Tot=              0.0000
 Quadrupole moment (field-independent basis, Debye-Ang):
   XX=            -10.5531   YY=            -12.6071   ZZ=              2.5732
   XY=              0.0000   XZ=              0.0000   YZ=              0.0000

 Normal termination of Gaussian 16 at Tue Nov 19 13:36:16 2024.
