 Gaussian 16, Revision A.03,
 Gaussian 16:  ES64L-G16RevA.03 25-Dec-2016

 ---------------------------------------------------------
 #p opt UM062X/6-311+G** nosymm int=superfine SCF=NoVarAcc
 ---------------------------------------------------------

 -------------------
 Title Card Required
 -------------------
 Symbolic Z-matrix:
 Charge =  1 Multiplicity = 2

 SCF Done:  E(UM062X) =  -77.9094019284     A.U. after    9 cycles
 SCF Done:  E(UM062X) =  -77.9100240700     A.U. after    9 cycles
 SCF Done:  E(UM062X) =  -77.9103399748     A.U. after    9 cycles
 SCF Done:  E(UM062X) =  -77.9103406040     A.U. after    9 cycles
 Optimization completed.
    -- Stationary point found.

                          Input orientation:
 ---------------------------------------------------------------------
 Center     Atomic      Atomic             Coordinates (Angstroms)
 Number     Number       Type             X           Y           Z
 ---------------------------------------------------------------------
      1          6           0       -1.431027    0.000000    0.000000
      2          6           0        1.431027    0.000000    0.000000
      3          1           0       -1.815221   -1.015622    0.000000
      4          1           0       -1.815207    1.015628    0.000000
      5          1           0        1.815222    1.015622   -0.000000
      6          1           0        1.815208   -1.015628   -0.000000
 ---------------------------------------------------------------------

 Alpha  occ. eigenvalues --  -10.91906 -10.91901  -1.02473  -1.00907  -0.79331
 Alpha  occ. eigenvalues --   -0.78796  -0.56428  -0.50735
 Alpha virt. eigenvalues --   -0.39513  -0.35940  -0.13208  -0.10624  -0.10489
 Alpha virt. eigenvalues --   -0.07651  -0.07493  -0.06384  -0.04643  -0.04521
 Alpha virt. eigenvalues --   -0.03073   0.01603   0.01685   0.09291   0.20280

  Beta  occ. eigenvalues --  -10.91643 -10.91640  -0.99680  -0.98398  -0.78965
  Beta  occ. eigenvalues --   -0.78447  -0.54480
  Beta virt. eigenvalues --   -0.33755  -0.31756  -0.29442  -0.14253  -0.10916
  Beta virt. eigenvalues --   -0.10834  -0.07438  -0.07351  -0.06437  -0.04188
  Beta virt. eigenvalues --   -0.03846  -0.03565  -0.00005   0.01933   0.10224

 Mulliken charges and spin densities:
               1          2
     1  C   -0.063732   0.541041
     2  C   -0.063732   0.541042
     3  H    0.281866  -0.020521
     4  H    0.281866  -0.020521
     5  H    0.281866  -0.020521
     6  H    0.281866  -0.020521
 Sum of Mulliken charges =   1.00000   1.00000

 Dipole moment (field-independent basis, Debye):
    X=              0.0000    Y=             -0.0000    Z=             -0.0000  Tot=              0.0000
 Quadrupole moment (field-independent basis, Debye-Ang):
   XX=              4.6205   YY=             -7.7773   ZZ=            -12.9918
   XY=              0.0000   XZ=             -0.0000   YZ=             -0.0000

 Normal termination of Gaussian 16 at Tue Dec  3 13:24:53 2024.
