 Gaussian 16, Revision A.03,
 Gaussian 16:  ES64L-G16RevA.03 25-Dec-2016

 --------------------------------------------
 #p opt UM062X/6-311+G** nosymm int=superfine
 --------------------------------------------

 -------------------
 Title Card Required
 -------------------
 Symbolic Z-matrix:
 Charge =  0 Multiplicity = 1

 SCF Done:  E(UM062X) =  -110.410260173     A.U. after   11 cycles
 SCF Done:  E(UM062X) =  -110.422970999     A.U. after   12 cycles
 SCF Done:  E(UM062X) =  -110.423906119     A.U. after   10 cycles
 SCF Done:  E(UM062X) =  -110.423906429     A.U. after    6 cycles
 Optimization completed.
    -- Stationary point found.

                          Input orientation:
 ---------------------------------------------------------------------
 Center     Atomic      Atomic             Coordinates (Angstroms)
 Number     Number       Type             X           Y           Z
 ---------------------------------------------------------------------
      1          7           0       -0.965428    0.000000    0.000000
      2          7           0        0.965428    0.000000    0.000000
      3          1           0       -0.974560   -1.032484    0.000000
      4          1           0        0.974560    1.032484    0.000000
 ---------------------------------------------------------------------

 Alpha  occ. eigenvalues --  -14.87466 -14.87453  -0.97281  -0.87346  -0.50512
 Alpha  occ. eigenvalues --   -0.47352  -0.39177  -0.35359
 Alpha virt. eigenvalues --   -0.14600  -0.04208   0.05828   0.08144   0.11165
 Alpha virt. eigenvalues --    0.12276   0.13055   0.15029   0.16345   0.18787
 Alpha virt. eigenvalues --    0.21366   0.25959   0.53881   0.57028   0.75773

  Beta  occ. eigenvalues --  -14.87466 -14.87453  -0.97281  -0.87346  -0.50512
  Beta  occ. eigenvalues --   -0.47352  -0.39177  -0.35359
  Beta virt. eigenvalues --   -0.14600  -0.04208   0.05828   0.08144   0.11165
  Beta virt. eigenvalues --    0.12276   0.13055   0.15029   0.16345   0.18787
  Beta virt. eigenvalues --    0.21366   0.25959   0.53881   0.57028   0.75773

 Mulliken charges and spin densities:
               1          2
     1  N   -0.250113   0.000000
     2  N   -0.250115  -0.000000
     3  H    0.250114   0.000000
     4  H    0.250114  -0.000000
 Sum of Mulliken charges =  -0.00000   0.00000

 Dipole moment (field-independent basis, Debye):
    X=             -0.0000    Y=              0.0000    Z=              0.0000  Tot=              0.0000
 Quadrupole moment (field-independent basis, Debye-Ang):
   XX=            -13.6830   YY=            -10.6871   ZZ=            -13.7773
   XY=              3.9248   XZ=              0.0000   YZ=              0.0000

 Normal termination of Gaussian 16 at Thu May 15 15:34:13 2025.
