 Gaussian 16, Revision A.03,
 Gaussian 16:  ES64L-G16RevA.03 25-Dec-2016

 ---------------------------------------
 #p UM062X/6-311+G** force int=superfine
 ---------------------------------------

 -------------------
 Title Card Required
 -------------------
 Symbolic Z-matrix:
 Charge =  0 Multiplicity = 1

                         Standard orientation:
 ---------------------------------------------------------------------
 Center     Atomic      Atomic             Coordinates (Angstroms)
 Number     Number       Type             X           Y           Z
 ---------------------------------------------------------------------
      1          6           0       -0.000000    0.702644    0.000000
      2          6           0       -0.000000   -0.702644    0.000000
      3          1           0       -0.930244    1.256553    0.000000
      4          1           0        0.930202    1.256610    0.000000
      5          1           0        0.930244   -1.256553    0.000000
      6          1           0       -0.930202   -1.256610    0.000000
 ---------------------------------------------------------------------

 SCF Done:  E(UM062X) =  -78.5572765940     A.U. after    8 cycles

 The electronic state is 1-AG.
 Alpha  occ. eigenvalues --  -10.55082 -10.55006  -0.84446  -0.67033  -0.53895
 Alpha  occ. eigenvalues --   -0.47455  -0.43125  -0.32242
 Alpha virt. eigenvalues --    0.01463   0.03396   0.04002   0.05201   0.07919
 Alpha virt. eigenvalues --    0.08071   0.09717   0.12903   0.16001   0.17209
 Alpha virt. eigenvalues --    0.20274   0.22655   0.30837   0.33784   0.43300

  Beta  occ. eigenvalues --  -10.55082 -10.55006  -0.84446  -0.67033  -0.53895
  Beta  occ. eigenvalues --   -0.47455  -0.43125  -0.32242
  Beta virt. eigenvalues --    0.01463   0.03396   0.04002   0.05201   0.07919
  Beta virt. eigenvalues --    0.08071   0.09717   0.12903   0.16001   0.17209
  Beta virt. eigenvalues --    0.20274   0.22655   0.30837   0.33784   0.43300

 Mulliken charges and spin densities:
               1          2
     1  C   -0.305310  -0.000000
     2  C   -0.305310  -0.000000
     3  H    0.152653  -0.000000
     4  H    0.152658   0.000000
     5  H    0.152653  -0.000000
     6  H    0.152658   0.000000
 Sum of Mulliken charges =  -0.00000   0.00000

 Dipole moment (field-independent basis, Debye):
    X=              0.0000    Y=             -0.0000    Z=              0.0000  Tot=              0.0000
 Quadrupole moment (field-independent basis, Debye-Ang):
   XX=            -12.2946   YY=            -12.1779   ZZ=            -16.2325
   XY=              0.0001   XZ=              0.0000   YZ=              0.0000

 Normal termination of Gaussian 16 at Tue Nov 19 11:44:50 2024.
