 Gaussian 16, Revision A.03,
 Gaussian 16:  ES64L-G16RevA.03 25-Dec-2016

 --------------------------------------------
 #p opt UM062X/6-311+G** nosymm int=superfine
 --------------------------------------------

 -------------------
 Title Card Required
 -------------------
 Symbolic Z-matrix:
 Charge =  0 Multiplicity = 1

 SCF Done:  E(UM062X) =  -382.304936136     A.U. after   12 cycles
 SCF Done:  E(UM062X) =  -382.313108311     A.U. after   10 cycles
 SCF Done:  E(UM062X) =  -382.316385669     A.U. after   11 cycles
 SCF Done:  E(UM062X) =  -382.316411375     A.U. after    9 cycles
 SCF Done:  E(UM062X) =  -382.316428885     A.U. after    9 cycles
 SCF Done:  E(UM062X) =  -382.316432166     A.U. after    9 cycles
 Optimization completed.
    -- Stationary point found.

                          Input orientation:
 ---------------------------------------------------------------------
 Center     Atomic      Atomic             Coordinates (Angstroms)
 Number     Number       Type             X           Y           Z
 ---------------------------------------------------------------------
      1          6           0       -1.506264    0.000000    0.000000
      2         15           0        1.506264    0.000000    0.000000
      3          1           0        1.472929   -1.418228    0.030883
      4          1           0       -1.650669    1.045350    0.234513
      5          1           0        1.472948    0.084155    1.416044
      6          1           0       -1.650665   -0.313247   -1.024512
      7          1           0       -1.666099   -0.726812    0.784294
 ---------------------------------------------------------------------

 Alpha  occ. eigenvalues --  -78.03271 -10.58122  -6.85604  -4.97131  -4.97070
 Alpha  occ. eigenvalues --   -4.96880  -0.77774  -0.69365  -0.49545  -0.49471
 Alpha  occ. eigenvalues --   -0.43602  -0.34768  -0.26985
 Alpha virt. eigenvalues --   -0.07879   0.01876   0.04004   0.04278   0.04663
 Alpha virt. eigenvalues --    0.06414   0.06867   0.07302   0.07461   0.12375
 Alpha virt. eigenvalues --    0.17536   0.18806   0.19023   0.24656   0.30066

  Beta  occ. eigenvalues --  -78.03271 -10.58122  -6.85604  -4.97131  -4.97070
  Beta  occ. eigenvalues --   -4.96880  -0.77774  -0.69365  -0.49545  -0.49471
  Beta  occ. eigenvalues --   -0.43602  -0.34768  -0.26985
  Beta virt. eigenvalues --   -0.07879   0.01876   0.04004   0.04278   0.04663
  Beta virt. eigenvalues --    0.06414   0.06867   0.07302   0.07461   0.12375
  Beta virt. eigenvalues --    0.17536   0.18806   0.19023   0.24656   0.30066

 Mulliken charges and spin densities:
               1          2
     1  C   -0.546684  -0.000000
     2  P   -0.029010   0.000000
     3  H    0.010097  -0.000000
     4  H    0.185699   0.000000
     5  H    0.010111  -0.000000
     6  H    0.185722   0.000000
     7  H    0.184064   0.000000
 Sum of Mulliken charges =  -0.00000   0.00000

 Dipole moment (field-independent basis, Debye):
    X=             -0.9510    Y=             -0.5315    Z=              0.5766  Tot=              1.2326
 Quadrupole moment (field-independent basis, Debye-Ang):
   XX=            -22.5952   YY=            -22.2147   ZZ=            -22.3291
   XY=             -1.1070   XZ=              1.2008   YZ=              0.7035

 Normal termination of Gaussian 16 at Mon Apr 21 19:04:40 2025.
