 Gaussian 16, Revision A.03,
 Gaussian 16:  ES64L-G16RevA.03 25-Dec-2016

 ---------------------------------------------------
 #p UM062X/6-311+G** force int=superfine pop=saveNBO
 ---------------------------------------------------

 -------------------
 Title Card Required
 -------------------
 Symbolic Z-matrix:
 Charge =  0 Multiplicity = 1

                         Standard orientation:
 ---------------------------------------------------------------------
 Center     Atomic      Atomic             Coordinates (Angstroms)
 Number     Number       Type             X           Y           Z
 ---------------------------------------------------------------------
      1         16           0        0.000000    0.000000    2.250200
      2         16           0        0.000000    0.000000   -2.250200
 ---------------------------------------------------------------------

 SCF Done:  E(UM062X) =  -796.011282897     A.U. after    9 cycles

 Unable to determine electronic state:  partially filled degenerate orbitals.
 Alpha  occ. eigenvalues --  -89.98467 -89.98467  -8.34307  -8.34306  -6.26331
 Alpha  occ. eigenvalues --   -6.26331  -6.26315  -6.26315  -6.25495  -6.25495
 Alpha  occ. eigenvalues --   -0.77845  -0.77454  -0.34690  -0.34488  -0.31341
 Alpha  occ. eigenvalues --   -0.30559
 Alpha virt. eigenvalues --   -0.24167  -0.23334   0.02852   0.03944   0.04618
 Alpha virt. eigenvalues --    0.05024   0.06882   0.06936   0.07380   0.11764
 Alpha virt. eigenvalues --    0.30287   0.33093   0.33919   0.35177   0.36020

  Beta  occ. eigenvalues --  -89.98467 -89.98467  -8.34307  -8.34306  -6.26331
  Beta  occ. eigenvalues --   -6.26331  -6.26315  -6.26315  -6.25495  -6.25495
  Beta  occ. eigenvalues --   -0.77845  -0.77454  -0.34690  -0.34488  -0.31341
  Beta  occ. eigenvalues --   -0.30559
  Beta virt. eigenvalues --   -0.24167  -0.23334   0.02852   0.03944   0.04618
  Beta virt. eigenvalues --    0.05024   0.06882   0.06936   0.07380   0.11764
  Beta virt. eigenvalues --    0.30287   0.33093   0.33919   0.35177   0.36020

 Mulliken charges and spin densities:
               1          2
     1  S   -0.000000   0.000000
     2  S   -0.000000   0.000000
 Sum of Mulliken charges =  -0.00000   0.00000

 Dipole moment (field-independent basis, Debye):
    X=             -0.0000    Y=              0.0000    Z=              0.0000  Tot=              0.0000
 Quadrupole moment (field-independent basis, Debye-Ang):
   XX=            -25.3367   YY=            -30.4094   ZZ=            -23.0104
   XY=              0.0000   XZ=             -0.0000   YZ=              0.0000

 Summary of Natural Population Analysis:

                                       Natural Population
                Natural  -----------------------------------------------
    Atom  No    Charge         Core      Valence    Rydberg      Total
 -----------------------------------------------------------------------
      S    1   -0.00000      5.00000     2.99943    0.00057     8.00000
      S    2    0.00000      5.00000     2.99943    0.00057     8.00000
 =======================================================================
   * Total *   -0.00000      9.99999     5.99887    0.00114    16.00000

 Normal termination of Gaussian 16 at Mon Apr 21 20:09:31 2025.
