 Gaussian 16, Revision A.03,
 Gaussian 16:  ES64L-G16RevA.03 25-Dec-2016

 --------------------------------------------
 #p opt UM062X/6-311+G** nosymm int=superfine
 --------------------------------------------

 -------------------
 Title Card Required
 -------------------
 Symbolic Z-matrix:
 Charge = -1 Multiplicity = 2

 SCF Done:  E(UM062X) =  -51.8809470812     A.U. after  119 cycles
 SCF Done:  E(UM062X) =  -51.8855560893     A.U. after   19 cycles
 SCF Done:  E(UM062X) =  -51.8869514874     A.U. after   18 cycles
 SCF Done:  E(UM062X) =  -51.8877976163     A.U. after   18 cycles
 SCF Done:  E(UM062X) =  -51.8879560655     A.U. after   18 cycles
 SCF Done:  E(UM062X) =  -51.8879674568     A.U. after   16 cycles
 SCF Done:  E(UM062X) =  -51.8879688442     A.U. after   15 cycles
 SCF Done:  E(UM062X) =  -51.8879698343     A.U. after   15 cycles
 Optimization completed.
    -- Stationary point found.

                          Input orientation:
 ---------------------------------------------------------------------
 Center     Atomic      Atomic             Coordinates (Angstroms)
 Number     Number       Type             X           Y           Z
 ---------------------------------------------------------------------
      1          5           0       -1.597274    0.000000    0.000000
      2          5           0        1.597274    0.000000    0.000000
      3          1           0       -2.254935   -1.015393    0.045188
      4          1           0        1.821716    1.068089    0.482400
      5          1           0       -2.254969    1.015399    0.044559
      6          1           0        1.821713   -1.067717    0.483223
 ---------------------------------------------------------------------

 Alpha  occ. eigenvalues --   -6.86863  -6.86290  -0.36919  -0.35888  -0.22237
 Alpha  occ. eigenvalues --   -0.20950  -0.04314  -0.00809
 Alpha virt. eigenvalues --    0.13629   0.14388   0.16138   0.17735   0.18985
 Alpha virt. eigenvalues --    0.20096   0.21933   0.22525   0.23217   0.24856
 Alpha virt. eigenvalues --    0.33883   0.34379   0.35898   0.36912   0.49528

  Beta  occ. eigenvalues --   -6.87128  -6.85688  -0.36822  -0.33157  -0.21571
  Beta  occ. eigenvalues --   -0.21093  -0.02986
  Beta virt. eigenvalues --    0.10614   0.12814   0.14181   0.14994   0.16764
  Beta virt. eigenvalues --    0.17858   0.19265   0.21528   0.22589   0.23967
  Beta virt. eigenvalues --    0.25251   0.33535   0.33912   0.35140   0.35807

 Mulliken charges and spin densities:
               1          2
     1  B   -0.445375  -0.257736
     2  B   -0.327077   1.306357
     3  H   -0.070760  -0.001596
     4  H   -0.043014  -0.022714
     5  H   -0.070760  -0.001596
     6  H   -0.043015  -0.022714
 Sum of Mulliken charges =  -1.00000   1.00000

 Dipole moment (field-independent basis, Debye):
    X=             -0.6175    Y=              0.0002    Z=              0.5088  Tot=              0.8001
 Quadrupole moment (field-independent basis, Debye-Ang):
   XX=            -35.5801   YY=            -23.5214   ZZ=            -22.7195
   XY=              0.0004   XZ=              1.1324   YZ=              0.0001

 Normal termination of Gaussian 16 at Mon Apr 21 19:31:05 2025.
