 Gaussian 16, Revision A.03,
 Gaussian 16:  ES64L-G16RevA.03 25-Dec-2016

 --------------------------------------------
 #p opt UM062X/6-311+G** nosymm int=superfine
 --------------------------------------------

 -------------------
 Title Card Required
 -------------------
 Symbolic Z-matrix:
 Charge =  0 Multiplicity = 1

 SCF Done:  E(UM062X) =  -437.166016148     A.U. after   16 cycles
 SCF Done:  E(UM062X) =  -437.167844779     A.U. after   15 cycles
 SCF Done:  E(UM062X) =  -437.168483969     A.U. after   15 cycles
 Optimization completed.
    -- Stationary point found.

                          Input orientation:
 ---------------------------------------------------------------------
 Center     Atomic      Atomic             Coordinates (Angstroms)
 Number     Number       Type             X           Y           Z
 ---------------------------------------------------------------------
      1          6           0       -1.827140    0.000000    0.000000
      2         16           0        1.827140    0.000000    0.000000
      3          1           0       -2.496773   -0.876757   -0.000082
      4          1           0       -2.497719    0.876034   -0.000211
 ---------------------------------------------------------------------

 Alpha  occ. eigenvalues --  -89.93258 -10.64296  -8.29278  -6.22042  -6.20502
 Alpha  occ. eigenvalues --   -6.20500  -0.78371  -0.73420  -0.50975  -0.34198
 Alpha  occ. eigenvalues --   -0.30822  -0.30808
 Alpha virt. eigenvalues --   -0.15691  -0.10748   0.01111   0.05012   0.05380
 Alpha virt. eigenvalues --    0.06614   0.08185   0.08845   0.09250   0.14057
 Alpha virt. eigenvalues --    0.17015   0.17929   0.35908   0.36644   0.36991

  Beta  occ. eigenvalues --  -89.93258 -10.64296  -8.29278  -6.22042  -6.20502
  Beta  occ. eigenvalues --   -6.20500  -0.78371  -0.73420  -0.50975  -0.34198
  Beta  occ. eigenvalues --   -0.30822  -0.30808
  Beta virt. eigenvalues --   -0.15691  -0.10748   0.01111   0.05012   0.05380
  Beta virt. eigenvalues --    0.06614   0.08185   0.08845   0.09250   0.14057
  Beta virt. eigenvalues --    0.17015   0.17929   0.35908   0.36644   0.36991

 Mulliken charges and spin densities:
               1          2
     1  C   -0.274409   0.000000
     2  S   -0.033461  -0.000000
     3  H    0.153930  -0.000000
     4  H    0.153941   0.000000
 Sum of Mulliken charges =  -0.00000  -0.00000

 Dipole moment (field-independent basis, Debye):
    X=             -3.2619    Y=             -0.0010    Z=             -0.0004  Tot=              3.2619
 Quadrupole moment (field-independent basis, Debye-Ang):
   XX=            -11.0801   YY=            -22.3300   ZZ=            -21.8549
   XY=              0.0001   XZ=             -0.0001   YZ=              0.0000

 Normal termination of Gaussian 16 at Mon Apr 21 19:45:25 2025.
