 Gaussian 16, Revision A.03,
 Gaussian 16:  ES64L-G16RevA.03 25-Dec-2016

 --------------------------------------------
 #p opt UM062X/6-311+G** nosymm int=superfine
 --------------------------------------------

 -------------------
 Title Card Required
 -------------------
 Symbolic Z-matrix:
 Charge =  1 Multiplicity = 2

 SCF Done:  E(UM062X) =  -76.8840608997     A.U. after   10 cycles
 SCF Done:  E(UM062X) =  -76.8900889260     A.U. after    9 cycles
 SCF Done:  E(UM062X) =  -76.8900896825     A.U. after    6 cycles
 Optimization completed.
    -- Stationary point found.

                          Input orientation:
 ---------------------------------------------------------------------
 Center     Atomic      Atomic             Coordinates (Angstroms)
 Number     Number       Type             X           Y           Z
 ---------------------------------------------------------------------
      1          6           0       -0.584062    0.000000    0.000000
      2          6           0        0.584062    0.000000    0.000000
      3          1           0       -1.662896    0.000000    0.000000
      4          1           0        1.662896    0.000000   -0.000000
 ---------------------------------------------------------------------

 Alpha  occ. eigenvalues --  -10.92901 -10.92533  -1.25683  -0.96607  -0.90163
 Alpha  occ. eigenvalues --   -0.75245  -0.72349
 Alpha virt. eigenvalues --   -0.25258  -0.23283  -0.14797  -0.14566  -0.11702
 Alpha virt. eigenvalues --   -0.10628  -0.10352  -0.04965  -0.04525  -0.04034
 Alpha virt. eigenvalues --    0.02329   0.04550   0.17409   0.18088   0.28333

  Beta  occ. eigenvalues --  -10.92636 -10.92298  -1.20646  -0.95043  -0.89563
  Beta  occ. eigenvalues --   -0.69785
  Beta virt. eigenvalues --   -0.47662  -0.21772  -0.19421  -0.15644  -0.14125
  Beta virt. eigenvalues --   -0.11758  -0.10865  -0.10523  -0.04401  -0.03784
  Beta virt. eigenvalues --   -0.03051   0.02234   0.04842   0.17895   0.18868

 Mulliken charges and spin densities:
               1          2
     1  C    0.203535   0.519400
     2  C    0.203535   0.519400
     3  H    0.296465  -0.019400
     4  H    0.296465  -0.019400
 Sum of Mulliken charges =   1.00000   1.00000

 Dipole moment (field-independent basis, Debye):
    X=             -0.0000    Y=              0.0000    Z=             -0.0000  Tot=              0.0000
 Quadrupole moment (field-independent basis, Debye-Ang):
   XX=             -1.0220   YY=             -9.7119   ZZ=            -10.8230
   XY=             -0.0000   XZ=             -0.0000   YZ=             -0.6678

 Normal termination of Gaussian 16 at Tue Nov 19 12:59:58 2024.
