 Gaussian 16, Revision A.03,
 Gaussian 16:  ES64L-G16RevA.03 25-Dec-2016

 --------------------------------------------
 #p opt UM062X/6-311+G** nosymm int=superfine
 --------------------------------------------

 -------------------
 Title Card Required
 -------------------
 Symbolic Z-matrix:
 Charge =  0 Multiplicity = 1

 SCF Done:  E(UM062X) =  -79.7942199652     A.U. after    8 cycles
 SCF Done:  E(UM062X) =  -79.7950058493     A.U. after    7 cycles
 SCF Done:  E(UM062X) =  -79.7950175283     A.U. after    7 cycles
 Optimization completed.
    -- Stationary point found.

                          Input orientation:
 ---------------------------------------------------------------------
 Center     Atomic      Atomic             Coordinates (Angstroms)
 Number     Number       Type             X           Y           Z
 ---------------------------------------------------------------------
      1          6           0       -0.733005    0.000000    0.000000
      2          6           0        0.733080    0.000000    0.000000
      3          1           0        1.142048   -0.877432    0.507734
      4          1           0       -1.141961   -0.878431   -0.506017
      5          1           0        1.142037    0.878431    0.506015
      6          1           0        1.142051   -0.000980   -1.013750
      7          1           0       -1.141973    0.877431   -0.507735
      8          1           0       -1.141977    0.000979    1.013749
 ---------------------------------------------------------------------

 Alpha  occ. eigenvalues --  -10.51778 -10.51729  -0.86075  -0.69674  -0.50724
 Alpha  occ. eigenvalues --   -0.50724  -0.44087  -0.39596  -0.39596
 Alpha virt. eigenvalues --    0.02169   0.04140   0.05413   0.05413   0.08809
 Alpha virt. eigenvalues --    0.08809   0.08867   0.14006   0.18878   0.18878
 Alpha virt. eigenvalues --    0.20852   0.20853   0.24120   0.27688   0.30997

  Beta  occ. eigenvalues --  -10.51778 -10.51729  -0.86075  -0.69674  -0.50724
  Beta  occ. eigenvalues --   -0.50724  -0.44087  -0.39596  -0.39596
  Beta virt. eigenvalues --    0.02169   0.04140   0.05413   0.05413   0.08809
  Beta virt. eigenvalues --    0.08809   0.08867   0.14006   0.18878   0.18878
  Beta virt. eigenvalues --    0.20852   0.20853   0.24120   0.27688   0.30997

 Mulliken charges and spin densities:
               1          2
     1  C   -0.464096  -0.000000
     2  C   -0.464096   0.000000
     3  H    0.154699  -0.000000
     4  H    0.154698   0.000000
     5  H    0.154698  -0.000000
     6  H    0.154699  -0.000000
     7  H    0.154699   0.000000
     8  H    0.154699   0.000000
 Sum of Mulliken charges =  -0.00000   0.00000

 Dipole moment (field-independent basis, Debye):
    X=             -0.0000    Y=             -0.0000    Z=             -0.0000  Tot=              0.0000
 Quadrupole moment (field-independent basis, Debye-Ang):
   XX=            -15.6318   YY=            -14.9685   ZZ=            -14.9684
   XY=             -0.0000   XZ=             -0.0000   YZ=             -0.0000

 Normal termination of Gaussian 16 at Tue Nov 19 11:52:18 2024.
