 Gaussian 16, Revision A.03,
 Gaussian 16:  ES64L-G16RevA.03 25-Dec-2016

 --------------------------------------------
 #p opt UM062X/6-311+G** nosymm int=superfine
 --------------------------------------------

 -------------------
 Title Card Required
 -------------------
 Symbolic Z-matrix:
 Charge =  0 Multiplicity = 1

 SCF Done:  E(UM062X) =  -94.5868177660     A.U. after   11 cycles
 SCF Done:  E(UM062X) =  -94.5879332605     A.U. after   10 cycles
 SCF Done:  E(UM062X) =  -94.5880007344     A.U. after    9 cycles
 SCF Done:  E(UM062X) =  -94.5879906101     A.U. after    9 cycles
 SCF Done:  E(UM062X) =  -94.5879946921     A.U. after    9 cycles
 SCF Done:  E(UM062X) =  -94.5880041029     A.U. after    8 cycles
 SCF Done:  E(UM062X) =  -94.5880045319     A.U. after    8 cycles
 Optimization completed.
    -- Stationary point found.

                          Input orientation:
 ---------------------------------------------------------------------
 Center     Atomic      Atomic             Coordinates (Angstroms)
 Number     Number       Type             X           Y           Z
 ---------------------------------------------------------------------
      1          6           0       -0.706637    0.000000    0.000000
      2          7           0        0.706637    0.000000    0.000000
      3          1           0       -1.293239   -0.914941    0.000487
      4          1           0        0.985409   -0.985587   -0.000424
      5          1           0       -1.195269    0.966990   -0.000219
 ---------------------------------------------------------------------

 Alpha  occ. eigenvalues --  -14.77090 -10.61098  -0.97347  -0.72513  -0.56315
 Alpha  occ. eigenvalues --   -0.49158  -0.37093  -0.36218
 Alpha virt. eigenvalues --   -0.01896   0.01826   0.03623   0.04971   0.07472
 Alpha virt. eigenvalues --    0.12909   0.16092   0.16359   0.18124   0.21249
 Alpha virt. eigenvalues --    0.24487   0.25793   0.30963   0.46608   0.48080

  Beta  occ. eigenvalues --  -14.77090 -10.61098  -0.97347  -0.72513  -0.56315
  Beta  occ. eigenvalues --   -0.49158  -0.37093  -0.36218
  Beta virt. eigenvalues --   -0.01896   0.01826   0.03623   0.04971   0.07472
  Beta virt. eigenvalues --    0.12909   0.16092   0.16359   0.18124   0.21249
  Beta virt. eigenvalues --    0.24487   0.25793   0.30963   0.46608   0.48080

 Mulliken charges and spin densities:
               1          2
     1  C   -0.241693  -0.000000
     2  N   -0.277539   0.000000
     3  H    0.152025  -0.000000
     4  H    0.196760  -0.000000
     5  H    0.170447  -0.000000
 Sum of Mulliken charges =  -0.00000   0.00000

 Dipole moment (field-independent basis, Debye):
    X=             -1.9335    Y=             -1.5069    Z=             -0.0002  Tot=              2.4513
 Quadrupole moment (field-independent basis, Debye-Ang):
   XX=            -12.7596   YY=            -11.4493   ZZ=            -14.3258
   XY=             -1.9573   XZ=             -0.0007   YZ=              0.0001

 Normal termination of Gaussian 16 at Mon Apr 21 18:14:20 2025.
