 Gaussian 16, Revision A.03,
 Gaussian 16:  ES64L-G16RevA.03 25-Dec-2016

 --------------------------------------------
 #p opt UM062X/6-311+G** nosymm int=superfine
 --------------------------------------------

 -------------------
 Title Card Required
 -------------------
 Symbolic Z-matrix:
 Charge =  1 Multiplicity = 2

 SCF Done:  E(UM062X) =  -76.5838405531     A.U. after   34 cycles
 SCF Done:  E(UM062X) =  -76.5841729922     A.U. after   26 cycles
 Optimization completed.
    -- Stationary point found.

                          Input orientation:
 ---------------------------------------------------------------------
 Center     Atomic      Atomic             Coordinates (Angstroms)
 Number     Number       Type             X           Y           Z
 ---------------------------------------------------------------------
      1          6           0       -2.132160    0.000000    0.000000
      2          6           0        2.132160    0.000000    0.000000
      3          1           0       -3.249673   -0.000000    0.000000
      4          1           0        3.249672   -0.000000    0.000000
 ---------------------------------------------------------------------

 Alpha  occ. eigenvalues --  -10.94025 -10.94024  -0.97722  -0.97650  -0.63235
 Alpha  occ. eigenvalues --   -0.62650  -0.47223
 Alpha virt. eigenvalues --   -0.40621  -0.32821  -0.32644  -0.11944  -0.11147
 Alpha virt. eigenvalues --   -0.07463  -0.07112  -0.05811  -0.04621  -0.04309
 Alpha virt. eigenvalues --   -0.01591  -0.00246   0.05491   0.28251   0.28557

  Beta  occ. eigenvalues --  -10.93610 -10.93610  -0.95330  -0.95311  -0.61880
  Beta  occ. eigenvalues --   -0.61247
  Beta virt. eigenvalues --   -0.30958  -0.30730  -0.29350  -0.29081  -0.12379
  Beta virt. eigenvalues --   -0.11082  -0.06744  -0.06266  -0.05895  -0.03838
  Beta virt. eigenvalues --   -0.02888  -0.01910   0.01349   0.07236   0.27391

 Mulliken charges and spin densities:
               1          2
     1  C    0.275907   0.516338
     2  C    0.275907   0.516338
     3  H    0.224093  -0.016338
     4  H    0.224093  -0.016338
 Sum of Mulliken charges =   1.00000   1.00000

 Dipole moment (field-independent basis, Debye):
    X=             -0.0000    Y=              0.0000    Z=              0.0000  Tot=              0.0000
 Quadrupole moment (field-independent basis, Debye-Ang):
   XX=             28.4657   YY=            -11.0611   ZZ=             -9.8872
   XY=              0.0000   XZ=             -0.0000   YZ=             -0.8071

 Normal termination of Gaussian 16 at Tue Dec  3 11:35:07 2024.
