 Gaussian 16, Revision A.03,
 Gaussian 16:  ES64L-G16RevA.03 25-Dec-2016

 --------------------------------------------
 #p opt UM062X/6-311+G** nosymm int=superfine
 --------------------------------------------

 -------------------
 Title Card Required
 -------------------
 Symbolic Z-matrix:
 Charge =  0 Multiplicity = 1

 SCF Done:  E(UM062X) =  -76.2159394097     A.U. after   12 cycles
 SCF Done:  E(UM062X) =  -76.3200316755     A.U. after    9 cycles
 SCF Done:  E(UM062X) =  -76.4505994018     A.U. after    9 cycles
 SCF Done:  E(UM062X) =  -76.5066529487     A.U. after   10 cycles
 SCF Done:  E(UM062X) =  -76.5082107290     A.U. after    9 cycles
 SCF Done:  E(UM062X) =  -76.5084201210     A.U. after    8 cycles
 SCF Done:  E(UM062X) =  -76.5084293756     A.U. after    7 cycles
 Optimization completed.
    -- Stationary point found.

                          Input orientation:
 ---------------------------------------------------------------------
 Center     Atomic      Atomic             Coordinates (Angstroms)
 Number     Number       Type             X           Y           Z
 ---------------------------------------------------------------------
      1          6           0       -0.338065    0.000000    0.000000
      2          6           0        0.338065    0.000000    0.000000
      3          1           0       -1.131919   -0.807813   -0.000000
      4          1           0       -1.131948    0.807704   -0.000000
      5          1           0        1.131919    0.807813   -0.000000
      6          1           0        1.131948   -0.807704   -0.000000
 ---------------------------------------------------------------------

 Alpha  occ. eigenvalues --  -10.71468 -10.48614  -0.89502  -0.67360  -0.60075
 Alpha  occ. eigenvalues --   -0.58565  -0.49577  -0.25699
 Alpha virt. eigenvalues --    0.01957   0.02643   0.04058   0.05294   0.08178
 Alpha virt. eigenvalues --    0.09665   0.09812   0.13250   0.15844   0.18817
 Alpha virt. eigenvalues --    0.24941   0.27170   0.37664   0.41801   0.44485

  Beta  occ. eigenvalues --  -10.71468 -10.48614  -0.89502  -0.67360  -0.60075
  Beta  occ. eigenvalues --   -0.58565  -0.49577  -0.25699
  Beta virt. eigenvalues --    0.01957   0.02643   0.04058   0.05294   0.08178
  Beta virt. eigenvalues --    0.09665   0.09812   0.13250   0.15844   0.18817
  Beta virt. eigenvalues --    0.24941   0.27170   0.37664   0.41801   0.44485

 Mulliken charges and spin densities:
               1          2
     1  C   -0.246851   0.000000
     2  C   -0.246851  -0.000000
     3  H    0.123412   0.000000
     4  H    0.123439  -0.000000
     5  H    0.123412  -0.000000
     6  H    0.123439   0.000000
 Sum of Mulliken charges =  -0.00000  -0.00000

 Dipole moment (field-independent basis, Debye):
    X=              0.0000    Y=             -0.0000    Z=             -0.0000  Tot=              0.0000
 Quadrupole moment (field-independent basis, Debye-Ang):
   XX=            -12.8944   YY=            -12.8994   ZZ=            -12.7649
   XY=             -0.0004   XZ=             -0.0000   YZ=              0.0000

 Normal termination of Gaussian 16 at Tue Nov 19 10:09:20 2024.
