 Gaussian 16, Revision A.03,
 Gaussian 16:  ES64L-G16RevA.03 25-Dec-2016

 --------------------------------------------
 #p opt UM062X/6-311+G** nosymm int=superfine
 --------------------------------------------

 -------------------
 Title Card Required
 -------------------
 Symbolic Z-matrix:
 Charge =  0 Multiplicity = 1

 SCF Done:  E(UM062X) =  -115.702707676     A.U. after   10 cycles
 SCF Done:  E(UM062X) =  -115.702886215     A.U. after    8 cycles
 SCF Done:  E(UM062X) =  -115.702888341     A.U. after    7 cycles
 Optimization completed.
    -- Stationary point found.

                          Input orientation:
 ---------------------------------------------------------------------
 Center     Atomic      Atomic             Coordinates (Angstroms)
 Number     Number       Type             X           Y           Z
 ---------------------------------------------------------------------
      1          6           0       -0.732203    0.000000    0.000000
      2          8           0        0.732203    0.000000    0.000000
      3          1           0        1.022366   -0.914371    0.000257
      4          1           0       -1.124335   -0.488190    0.895066
      5          1           0       -1.032178    1.045217   -0.000721
      6          1           0       -1.124345   -0.489423   -0.894386
 ---------------------------------------------------------------------

 Alpha  occ. eigenvalues --  -19.62133 -10.58284  -1.13076  -0.77993  -0.57848
 Alpha  occ. eigenvalues --   -0.51463  -0.49332  -0.41475  -0.35733
 Alpha virt. eigenvalues --    0.01298   0.03268   0.05355   0.05535   0.16129
 Alpha virt. eigenvalues --    0.17991   0.19168   0.20103   0.22109   0.23032
 Alpha virt. eigenvalues --    0.24160   0.24673   0.32831   0.42803   0.44895

  Beta  occ. eigenvalues --  -19.62133 -10.58284  -1.13076  -0.77993  -0.57848
  Beta  occ. eigenvalues --   -0.51463  -0.49332  -0.41475  -0.35733
  Beta virt. eigenvalues --    0.01298   0.03268   0.05355   0.05535   0.16129
  Beta virt. eigenvalues --    0.17991   0.19168   0.20103   0.22109   0.23032
  Beta virt. eigenvalues --    0.24160   0.24673   0.32831   0.42803   0.44895

 Mulliken charges and spin densities:
               1          2
     1  C   -0.314532   0.000000
     2  O   -0.391342  -0.000000
     3  H    0.257735   0.000000
     4  H    0.142500  -0.000000
     5  H    0.163154  -0.000000
     6  H    0.142485  -0.000000
 Sum of Mulliken charges =  -0.00000  -0.00000

 Dipole moment (field-independent basis, Debye):
    X=             -1.3235    Y=             -1.5409    Z=              0.0004  Tot=              2.0313
 Quadrupole moment (field-independent basis, Debye-Ang):
   XX=            -13.4524   YY=            -11.6515   ZZ=            -13.8542
   XY=             -2.1551   XZ=              0.0007   YZ=             -0.0006

 Normal termination of Gaussian 16 at Mon Apr 21 18:40:33 2025.
