 Gaussian 16, Revision A.03,
 Gaussian 16:  ES64L-G16RevA.03 25-Dec-2016

 --------------------------------------------
 #p opt UM062X/6-311+G** nosymm int=superfine
 --------------------------------------------

 -------------------
 Title Card Required
 -------------------
 Symbolic Z-matrix:
 Charge =  0 Multiplicity = 1

 SCF Done:  E(UM062X) =  -77.3018787916     A.U. after    9 cycles
 SCF Done:  E(UM062X) =  -77.3069432937     A.U. after    9 cycles
 SCF Done:  E(UM062X) =  -77.3069952954     A.U. after    8 cycles
 Optimization completed.
    -- Stationary point found.

                          Input orientation:
 ---------------------------------------------------------------------
 Center     Atomic      Atomic             Coordinates (Angstroms)
 Number     Number       Type             X           Y           Z
 ---------------------------------------------------------------------
      1          6           0       -0.634426    0.000000    0.000000
      2          6           0        0.634426    0.000000    0.000000
      3          1           0       -1.700361   -0.000000   -0.000000
      4          1           0        1.700361    0.000000   -0.000000
 ---------------------------------------------------------------------

 Alpha  occ. eigenvalues --  -10.56840 -10.56668  -0.83922  -0.65624  -0.56609
 Alpha  occ. eigenvalues --   -0.34707  -0.34707
 Alpha virt. eigenvalues --    0.02560   0.02669   0.03408   0.03408   0.07758
 Alpha virt. eigenvalues --    0.07758   0.09300   0.13754   0.13754   0.15129
 Alpha virt. eigenvalues --    0.19377   0.24172   0.38075   0.45048   0.57461

  Beta  occ. eigenvalues --  -10.56840 -10.56668  -0.83922  -0.65624  -0.56609
  Beta  occ. eigenvalues --   -0.34707  -0.34707
  Beta virt. eigenvalues --    0.02560   0.02669   0.03408   0.03408   0.07758
  Beta virt. eigenvalues --    0.07758   0.09300   0.13754   0.13754   0.15129
  Beta virt. eigenvalues --    0.19377   0.24172   0.38075   0.45048   0.57461

 Mulliken charges and spin densities:
               1          2
     1  C   -0.187675  -0.000000
     2  C   -0.187675   0.000000
     3  H    0.187675   0.000000
     4  H    0.187675  -0.000000
 Sum of Mulliken charges =  -0.00000   0.00000

 Dipole moment (field-independent basis, Debye):
    X=             -0.0000    Y=             -0.0000    Z=             -0.0000  Tot=              0.0000
 Quadrupole moment (field-independent basis, Debye-Ang):
   XX=             -6.6400   YY=            -14.1344   ZZ=            -14.1344
   XY=              0.0000   XZ=              0.0000   YZ=              0.0000

 Normal termination of Gaussian 16 at Tue Dec  3 20:04:17 2024.
