 Gaussian 16, Revision A.03,
 Gaussian 16:  ES64L-G16RevA.03 25-Dec-2016

 --------------------------------------------
 #p opt UM062X/6-311+G** nosymm int=superfine
 --------------------------------------------

 -------------------
 Title Card Required
 -------------------
 Symbolic Z-matrix:
 Charge =  0 Multiplicity = 1

 SCF Done:  E(UM062X) =  -382.295634016     A.U. after   12 cycles
 SCF Done:  E(UM062X) =  -382.304231254     A.U. after   11 cycles
 SCF Done:  E(UM062X) =  -382.307927516     A.U. after   11 cycles
 SCF Done:  E(UM062X) =  -382.307957033     A.U. after    9 cycles
 SCF Done:  E(UM062X) =  -382.307976227     A.U. after    9 cycles
 SCF Done:  E(UM062X) =  -382.307981784     A.U. after    9 cycles
 SCF Done:  E(UM062X) =  -382.307982102     A.U. after    7 cycles
 Optimization completed.
    -- Stationary point found.

                          Input orientation:
 ---------------------------------------------------------------------
 Center     Atomic      Atomic             Coordinates (Angstroms)
 Number     Number       Type             X           Y           Z
 ---------------------------------------------------------------------
      1          6           0       -1.556264    0.000000    0.000000
      2         15           0        1.556264    0.000000    0.000000
      3          1           0        1.514805   -1.418126    0.031593
      4          1           0       -1.686349    1.046695    0.235722
      5          1           0        1.514881    0.084377    1.415948
      6          1           0       -1.686344   -0.314095   -1.025903
      7          1           0       -1.702456   -0.728204    0.785446
 ---------------------------------------------------------------------

 Alpha  occ. eigenvalues --  -78.03299 -10.58362  -6.85637  -4.97164  -4.97099
 Alpha  occ. eigenvalues --   -4.96911  -0.77888  -0.69394  -0.49742  -0.49677
 Alpha  occ. eigenvalues --   -0.43613  -0.34752  -0.26514
 Alpha virt. eigenvalues --   -0.08630   0.01934   0.04001   0.04212   0.04641
 Alpha virt. eigenvalues --    0.06402   0.06899   0.07240   0.07417   0.12229
 Alpha virt. eigenvalues --    0.17531   0.18756   0.18956   0.24422   0.30056

  Beta  occ. eigenvalues --  -78.03299 -10.58362  -6.85637  -4.97164  -4.97099
  Beta  occ. eigenvalues --   -4.96911  -0.77888  -0.69394  -0.49742  -0.49677
  Beta  occ. eigenvalues --   -0.43613  -0.34752  -0.26514
  Beta virt. eigenvalues --   -0.08630   0.01934   0.04001   0.04212   0.04641
  Beta virt. eigenvalues --    0.06402   0.06899   0.07240   0.07417   0.12229
  Beta virt. eigenvalues --    0.17531   0.18756   0.18956   0.24422   0.30056

 Mulliken charges and spin densities:
               1          2
     1  C   -0.543058   0.000000
     2  P   -0.031678  -0.000000
     3  H    0.008679   0.000000
     4  H    0.186379  -0.000000
     5  H    0.008693   0.000000
     6  H    0.186405  -0.000000
     7  H    0.184580  -0.000000
 Sum of Mulliken charges =  -0.00000   0.00000

 Dipole moment (field-independent basis, Debye):
    X=             -1.0103    Y=             -0.5380    Z=              0.5839  Tot=              1.2849
 Quadrupole moment (field-independent basis, Debye-Ang):
   XX=            -22.5130   YY=            -22.2403   ZZ=            -22.3557
   XY=             -1.1183   XZ=              1.2141   YZ=              0.7036

 Normal termination of Gaussian 16 at Mon Apr 21 19:01:05 2025.
