 Gaussian 16, Revision A.03,
 Gaussian 16:  ES64L-G16RevA.03 25-Dec-2016

 --------------------------------------------
 #p opt UM062X/6-311+G** nosymm int=superfine
 --------------------------------------------

 -------------------
 Title Card Required
 -------------------
 Symbolic Z-matrix:
 Charge =  0 Multiplicity = 1

 SCF Done:  E(UM062X) =  -438.587204032     A.U. after   11 cycles
 SCF Done:  E(UM062X) =  -438.595540870     A.U. after   10 cycles
 SCF Done:  E(UM062X) =  -438.597575880     A.U. after   10 cycles
 SCF Done:  E(UM062X) =  -438.597588313     A.U. after    8 cycles
 SCF Done:  E(UM062X) =  -438.597593666     A.U. after    8 cycles
 SCF Done:  E(UM062X) =  -438.597593997     A.U. after    7 cycles
 Optimization completed.
    -- Stationary point found.

                          Input orientation:
 ---------------------------------------------------------------------
 Center     Atomic      Atomic             Coordinates (Angstroms)
 Number     Number       Type             X           Y           Z
 ---------------------------------------------------------------------
      1          6           0       -1.310220    0.000000    0.000000
      2         16           0        1.310220    0.000000    0.000000
      3          1           0        1.304537   -1.343608   -0.001035
      4          1           0       -1.451285    1.071842    0.002636
      5          1           0       -1.478758   -0.525357   -0.929580
      6          1           0       -1.478803   -0.529887    0.927001
 ---------------------------------------------------------------------

 Alpha  occ. eigenvalues --  -89.89218 -10.61681  -8.25451  -6.17526  -6.17413
 Alpha  occ. eigenvalues --   -6.16892  -0.81409  -0.76361  -0.52237  -0.52171
 Alpha  occ. eigenvalues --   -0.43453  -0.32775  -0.29320
 Alpha virt. eigenvalues --   -0.07844   0.01944   0.04361   0.05218   0.05604
 Alpha virt. eigenvalues --    0.07586   0.07757   0.08557   0.11331   0.13552
 Alpha virt. eigenvalues --    0.17293   0.18058   0.23407   0.32842   0.36316

  Beta  occ. eigenvalues --  -89.89218 -10.61681  -8.25451  -6.17526  -6.17413
  Beta  occ. eigenvalues --   -6.16892  -0.81409  -0.76361  -0.52237  -0.52171
  Beta  occ. eigenvalues --   -0.43453  -0.32775  -0.29320
  Beta virt. eigenvalues --   -0.07844   0.01944   0.04361   0.05218   0.05604
  Beta virt. eigenvalues --    0.07586   0.07757   0.08557   0.11331   0.13552
  Beta virt. eigenvalues --    0.17293   0.18058   0.23407   0.32842   0.36316

 Mulliken charges and spin densities:
               1          2
     1  C   -0.488930  -0.000000
     2  S   -0.182699   0.000000
     3  H    0.060945   0.000000
     4  H    0.203490   0.000000
     5  H    0.203622   0.000000
     6  H    0.203572   0.000000
 Sum of Mulliken charges =  -0.00000   0.00000

 Dipole moment (field-independent basis, Debye):
    X=             -2.7295    Y=             -0.9299    Z=             -0.0007  Tot=              2.8835
 Quadrupole moment (field-independent basis, Debye-Ang):
   XX=            -20.9576   YY=            -19.3637   ZZ=            -23.3600
   XY=             -1.5204   XZ=             -0.0012   YZ=              0.0031

 Normal termination of Gaussian 16 at Mon Apr 21 19:34:27 2025.
