 Gaussian 16, Revision A.03,
 Gaussian 16:  ES64L-G16RevA.03 25-Dec-2016

 --------------------------------------------
 #p opt UM062X/6-311+G** nosymm int=superfine
 --------------------------------------------

 -------------------
 Title Card Required
 -------------------
 Symbolic Z-matrix:
 Charge =  1 Multiplicity = 2

 SCF Done:  E(UM062X) =  -76.5864023714     A.U. after   59 cycles
 SCF Done:  E(UM062X) =  -76.5867655895     A.U. after    9 cycles
 Optimization completed.
    -- Stationary point found.

                          Input orientation:
 ---------------------------------------------------------------------
 Center     Atomic      Atomic             Coordinates (Angstroms)
 Number     Number       Type             X           Y           Z
 ---------------------------------------------------------------------
      1          6           0       -1.632160    0.000000    0.000000
      2          6           0        1.632160    0.000000    0.000000
      3          1           0       -2.750411    0.000000    0.000000
      4          1           0        2.750410    0.000000    0.000000
 ---------------------------------------------------------------------

 Alpha  occ. eigenvalues --  -10.95017 -10.95016  -0.98750  -0.98405  -0.65603
 Alpha  occ. eigenvalues --   -0.62278  -0.49379
 Alpha virt. eigenvalues --   -0.40321  -0.34142  -0.33293  -0.12726  -0.11560
 Alpha virt. eigenvalues --   -0.07938  -0.07423  -0.05472  -0.04985  -0.04596
 Alpha virt. eigenvalues --   -0.01479  -0.00048   0.05995   0.23434   0.30995

  Beta  occ. eigenvalues --  -10.94615 -10.94614  -0.96350  -0.96142  -0.64285
  Beta  occ. eigenvalues --   -0.60860
  Beta virt. eigenvalues --   -0.32385  -0.31370  -0.30817  -0.29712  -0.13241
  Beta virt. eigenvalues --   -0.11479  -0.07453  -0.06738  -0.06309  -0.04282
  Beta virt. eigenvalues --   -0.03368  -0.02141   0.01643   0.07403   0.22739

 Mulliken charges and spin densities:
               1          2
     1  C    0.258606   0.516439
     2  C    0.258606   0.516439
     3  H    0.241394  -0.016439
     4  H    0.241394  -0.016439
 Sum of Mulliken charges =   1.00000   1.00000

 Dipole moment (field-independent basis, Debye):
    X=             -0.0000    Y=              0.0000    Z=              0.0000  Tot=              0.0000
 Quadrupole moment (field-independent basis, Debye-Ang):
   XX=             15.6002   YY=            -11.5445   ZZ=             -9.5083
   XY=              0.0000   XZ=              0.0000   YZ=             -0.0170

 Normal termination of Gaussian 16 at Tue Dec  3 11:29:11 2024.
