 Gaussian 16, Revision A.03,
 Gaussian 16:  ES64L-G16RevA.03 25-Dec-2016

 --------------------------------------------
 #p opt UM062X/6-311+G** nosymm int=superfine
 --------------------------------------------

 -------------------
 Title Card Required
 -------------------
 Symbolic Z-matrix:
 Charge =  0 Multiplicity = 1

 SCF Done:  E(UM062X) =  -438.472576362     A.U. after   15 cycles
 SCF Done:  E(UM062X) =  -438.486328213     A.U. after   11 cycles
 SCF Done:  E(UM062X) =  -438.493644821     A.U. after   15 cycles
 SCF Done:  E(UM062X) =  -438.493719229     A.U. after   11 cycles
 SCF Done:  E(UM062X) =  -438.493735202     A.U. after   11 cycles
 SCF Done:  E(UM062X) =  -438.493780354     A.U. after   12 cycles
 SCF Done:  E(UM062X) =  -438.493784990     A.U. after   11 cycles
 SCF Done:  E(UM062X) =  -438.493785623     A.U. after    9 cycles
 SCF Done:  E(UM062X) =  -438.493785752     A.U. after    9 cycles
 SCF Done:  E(UM062X) =  -438.493785995     A.U. after   10 cycles
 SCF Done:  E(UM062X) =  -438.493787554     A.U. after   13 cycles
 SCF Done:  E(UM062X) =  -438.493786299     A.U. after   14 cycles
 SCF Done:  E(UM062X) =  -438.493776407     A.U. after   17 cycles
 SCF Done:  E(UM062X) =  -438.493786959     A.U. after   14 cycles
 SCF Done:  E(UM062X) =  -438.493787499     A.U. after    9 cycles
 SCF Done:  E(UM062X) =  -438.493787420     A.U. after   13 cycles
 SCF Done:  E(UM062X) =  -438.493786922     A.U. after   17 cycles
 SCF Done:  E(UM062X) =  -438.493787633     A.U. after   13 cycles
 SCF Done:  E(UM062X) =  -438.493787674     A.U. after    7 cycles
 SCF Done:  E(UM062X) =  -438.493787680     A.U. after   12 cycles
 Optimization completed.
    -- Stationary point found.

                          Input orientation:
 ---------------------------------------------------------------------
 Center     Atomic      Atomic             Coordinates (Angstroms)
 Number     Number       Type             X           Y           Z
 ---------------------------------------------------------------------
      1          6           0       -2.085220    0.000000    0.000000
      2         16           0        2.085220    0.000000    0.000000
      3          1           0        2.044948   -1.342543   -0.067151
      4          1           0       -2.061745    1.080788   -0.013442
      5          1           0       -2.120728   -0.550161   -0.930028
      6          1           0       -2.117723   -0.527032    0.943440
 ---------------------------------------------------------------------

 Alpha  occ. eigenvalues --  -89.87460 -10.65161  -8.23777  -6.15817  -6.15759
 Alpha  occ. eigenvalues --   -6.15206  -0.83576  -0.75355  -0.55636  -0.55566
 Alpha  occ. eigenvalues --   -0.41902  -0.27845  -0.26156
 Alpha virt. eigenvalues --   -0.16900   0.00892   0.03645   0.03979   0.05543
 Alpha virt. eigenvalues --    0.07491   0.08399   0.08432   0.10698   0.13386
 Alpha virt. eigenvalues --    0.15403   0.15520   0.20260   0.34747   0.35892

  Beta  occ. eigenvalues --  -89.87460 -10.65161  -8.23777  -6.15817  -6.15759
  Beta  occ. eigenvalues --   -6.15206  -0.83576  -0.75355  -0.55636  -0.55566
  Beta  occ. eigenvalues --   -0.41902  -0.27845  -0.26156
  Beta virt. eigenvalues --   -0.16900   0.00892   0.03645   0.03979   0.05543
  Beta virt. eigenvalues --    0.07491   0.08399   0.08432   0.10698   0.13386
  Beta virt. eigenvalues --    0.15403   0.15520   0.20260   0.34747   0.35892

 Mulliken charges and spin densities:
               1          2
     1  C   -0.370866  -0.000000
     2  S   -0.295955   0.000000
     3  H    0.050251  -0.000000
     4  H    0.207433  -0.000000
     5  H    0.204346  -0.000000
     6  H    0.204791   0.000000
 Sum of Mulliken charges =  -0.00000  -0.00000

 Dipole moment (field-independent basis, Debye):
    X=             -5.3584    Y=             -0.9556    Z=             -0.0479  Tot=              5.4432
 Quadrupole moment (field-independent basis, Debye-Ang):
   XX=            -20.9749   YY=            -19.6365   ZZ=            -23.6680
   XY=             -2.0251   XZ=             -0.1030   YZ=              0.2020

 Normal termination of Gaussian 16 at Mon Apr 21 19:43:50 2025.
