 Gaussian 16, Revision A.03,
 Gaussian 16:  ES64L-G16RevA.03 25-Dec-2016

 --------------------------------------------
 #p opt UM062X/6-311+G** nosymm int=superfine
 --------------------------------------------

 -------------------
 Title Card Required
 -------------------
 Symbolic Z-matrix:
 Charge = -1 Multiplicity = 2

 SCF Done:  E(UM062X) =  -50.5497630504     A.U. after   15 cycles
 SCF Done:  E(UM062X) =  -50.5552992517     A.U. after   14 cycles
 SCF Done:  E(UM062X) =  -50.5557833407     A.U. after   15 cycles
 Optimization completed.
    -- Stationary point found.

                          Input orientation:
 ---------------------------------------------------------------------
 Center     Atomic      Atomic             Coordinates (Angstroms)
 Number     Number       Type             X           Y           Z
 ---------------------------------------------------------------------
      1          5           0       -1.616404    0.000000    0.000000
      2          5           0        1.616404    0.000000    0.000000
      3          1           0       -2.900056   -0.000969    0.000000
      4          1           0        2.900056    0.000969   -0.000000
 ---------------------------------------------------------------------

 Alpha  occ. eigenvalues --   -6.90323  -6.90323  -0.33661  -0.33238  -0.10567
 Alpha  occ. eigenvalues --   -0.03789   0.02328
 Alpha virt. eigenvalues --    0.12169   0.12479   0.14775   0.15807   0.16430
 Alpha virt. eigenvalues --    0.22048   0.22226   0.22492   0.22734   0.23850
 Alpha virt. eigenvalues --    0.25952   0.34597   0.38036   0.52998   0.58056

  Beta  occ. eigenvalues --   -6.90246  -6.90246  -0.32597  -0.32338  -0.09365
  Beta  occ. eigenvalues --   -0.02811
  Beta virt. eigenvalues --    0.10291   0.11379   0.12979   0.13535   0.13607
  Beta virt. eigenvalues --    0.14149   0.19049   0.20363   0.20559   0.21464
  Beta virt. eigenvalues --    0.21965   0.22683   0.34279   0.38090   0.52581

 Mulliken charges and spin densities:
               1          2
     1  B   -0.399800   0.508501
     2  B   -0.399800   0.508501
     3  H   -0.100200  -0.008501
     4  H   -0.100200  -0.008501
 Sum of Mulliken charges =  -1.00000   1.00000

 Dipole moment (field-independent basis, Debye):
    X=             -0.0000    Y=             -0.0000    Z=              0.0000  Tot=              0.0000
 Quadrupole moment (field-independent basis, Debye-Ang):
   XX=            -37.9605   YY=            -19.2338   ZZ=            -26.8394
   XY=             -0.0017   XZ=              0.0000   YZ=             -0.0000

 Normal termination of Gaussian 16 at Mon Apr 21 17:27:29 2025.
