 Gaussian 16, Revision A.03,
 Gaussian 16:  ES64L-G16RevA.03 25-Dec-2016

 --------------------------------------------
 #p opt UM062X/6-311+G** nosymm int=superfine
 --------------------------------------------

 -------------------
 Title Card Required
 -------------------
 Symbolic Z-matrix:
 Charge =  0 Multiplicity = 1

 SCF Done:  E(UM062X) =  -581.180366826     A.U. after   10 cycles
 SCF Done:  E(UM062X) =  -581.180879174     A.U. after    8 cycles
 SCF Done:  E(UM062X) =  -581.181044984     A.U. after    9 cycles
 SCF Done:  E(UM062X) =  -581.181035373     A.U. after    8 cycles
 SCF Done:  E(UM062X) =  -581.181045299     A.U. after    9 cycles
 SCF Done:  E(UM062X) =  -581.181046781     A.U. after    9 cycles
 SCF Done:  E(UM062X) =  -581.181062886     A.U. after   11 cycles
 SCF Done:  E(UM062X) =  -581.180950277     A.U. after   13 cycles
 SCF Done:  E(UM062X) =  -581.181054111     A.U. after   11 cycles
 SCF Done:  E(UM062X) =  -581.190004353     A.U. after   14 cycles
 SCF Done:  E(UM062X) =  -581.207570253     A.U. after   15 cycles
 SCF Done:  E(UM062X) =  -581.217403345     A.U. after   12 cycles
 SCF Done:  E(UM062X) =  -581.219748263     A.U. after   11 cycles
 SCF Done:  E(UM062X) =  -581.217905150     A.U. after   11 cycles
 SCF Done:  E(UM062X) =  -581.220167751     A.U. after   11 cycles
 SCF Done:  E(UM062X) =  -581.220285518     A.U. after   11 cycles
 SCF Done:  E(UM062X) =  -581.220309860     A.U. after   11 cycles
 SCF Done:  E(UM062X) =  -581.220328451     A.U. after   14 cycles
 SCF Done:  E(UM062X) =  -581.220328980     A.U. after    8 cycles
 SCF Done:  E(UM062X) =  -581.220329265     A.U. after    8 cycles
 Optimization completed.
    -- Stationary point found.

                          Input orientation:
 ---------------------------------------------------------------------
 Center     Atomic      Atomic             Coordinates (Angstroms)
 Number     Number       Type             X           Y           Z
 ---------------------------------------------------------------------
      1         14           0       -1.437518    0.000000    0.000000
      2         14           0        1.437518    0.000000    0.000000
      3          1           0       -1.981905   -1.142104    0.802707
      4          1           0        1.979030    1.143106   -0.803469
      5          1           0       -1.979068    1.157333    0.782597
      6          1           0        1.980456   -1.156189   -0.783443
 ---------------------------------------------------------------------

 Alpha  occ. eigenvalues --  -67.02422 -67.02417  -5.57060  -5.57055  -3.88326
 Alpha  occ. eigenvalues --   -3.88319  -3.87887  -3.87881  -3.87799  -3.87793
 Alpha  occ. eigenvalues --   -0.59970  -0.56924  -0.40757  -0.39718  -0.33108
 Alpha  occ. eigenvalues --   -0.25835
 Alpha virt. eigenvalues --   -0.10098  -0.01623   0.02258   0.02914   0.04424
 Alpha virt. eigenvalues --    0.05153   0.05316   0.05323   0.05610   0.06513
 Alpha virt. eigenvalues --    0.08706   0.09034   0.12406   0.15097   0.28196

  Beta  occ. eigenvalues --  -67.02422 -67.02417  -5.57060  -5.57055  -3.88326
  Beta  occ. eigenvalues --   -3.88319  -3.87887  -3.87881  -3.87799  -3.87793
  Beta  occ. eigenvalues --   -0.59970  -0.56924  -0.40757  -0.39718  -0.33108
  Beta  occ. eigenvalues --   -0.25835
  Beta virt. eigenvalues --   -0.10098  -0.01623   0.02258   0.02914   0.04424
  Beta virt. eigenvalues --    0.05153   0.05316   0.05323   0.05610   0.06513
  Beta virt. eigenvalues --    0.08706   0.09034   0.12406   0.15097   0.28196

 Mulliken charges and spin densities:
               1          2
     1  Si   0.214959   0.000000
     2  Si   0.214726  -0.000000
     3  H   -0.107401   0.000000
     4  H   -0.107432  -0.000000
     5  H   -0.107425   0.000000
     6  H   -0.107428  -0.000000
 Sum of Mulliken charges =  -0.00000  -0.00000

 Dipole moment (field-independent basis, Debye):
    X=             -0.0027    Y=             -0.0003    Z=              0.0003  Tot=              0.0028
 Quadrupole moment (field-independent basis, Debye-Ang):
   XX=            -25.8610   YY=            -31.2294   ZZ=            -33.0918
   XY=              0.0183   XZ=              2.1264   YZ=             -0.0174

 Normal termination of Gaussian 16 at Mon Apr 21 20:34:31 2025.
