 Gaussian 16, Revision A.03,
 Gaussian 16:  ES64L-G16RevA.03 25-Dec-2016

 --------------------------------------------
 #p opt UM062X/6-311+G** nosymm int=superfine
 --------------------------------------------

 -------------------
 Title Card Required
 -------------------
 Symbolic Z-matrix:
 Charge =  0 Multiplicity = 1

 SCF Done:  E(UM062X) =  -110.514589012     A.U. after   10 cycles
 SCF Done:  E(UM062X) =  -110.521824275     A.U. after    9 cycles
 SCF Done:  E(UM062X) =  -110.522053385     A.U. after    9 cycles
 Optimization completed.
    -- Stationary point found.

                          Input orientation:
 ---------------------------------------------------------------------
 Center     Atomic      Atomic             Coordinates (Angstroms)
 Number     Number       Type             X           Y           Z
 ---------------------------------------------------------------------
      1          7           0       -0.815428    0.000000    0.000000
      2          7           0        0.815428    0.000000    0.000000
      3          1           0       -0.932808   -1.022824    0.000000
      4          1           0        0.932808    1.022824    0.000000
 ---------------------------------------------------------------------

 Alpha  occ. eigenvalues --  -14.85706 -14.85683  -1.01990  -0.84311  -0.51223
 Alpha  occ. eigenvalues --   -0.49977  -0.38636  -0.38375
 Alpha virt. eigenvalues --   -0.10558   0.04297   0.06070   0.08832   0.11914
 Alpha virt. eigenvalues --    0.13040   0.14958   0.15365   0.16668   0.18562
 Alpha virt. eigenvalues --    0.22097   0.26501   0.54667   0.57750   0.74647

  Beta  occ. eigenvalues --  -14.85706 -14.85683  -1.01990  -0.84311  -0.51223
  Beta  occ. eigenvalues --   -0.49977  -0.38636  -0.38375
  Beta virt. eigenvalues --   -0.10558   0.04297   0.06070   0.08832   0.11914
  Beta virt. eigenvalues --    0.13040   0.14958   0.15365   0.16668   0.18562
  Beta virt. eigenvalues --    0.22097   0.26501   0.54667   0.57750   0.74647

 Mulliken charges and spin densities:
               1          2
     1  N   -0.249520  -0.000000
     2  N   -0.249520   0.000000
     3  H    0.249520   0.000000
     4  H    0.249520  -0.000000
 Sum of Mulliken charges =  -0.00000   0.00000

 Dipole moment (field-independent basis, Debye):
    X=              0.0000    Y=              0.0000    Z=              0.0000  Tot=              0.0000
 Quadrupole moment (field-independent basis, Debye-Ang):
   XX=            -13.6761   YY=            -10.5653   ZZ=            -13.3247
   XY=              3.8582   XZ=              0.0000   YZ=             -0.0000

 Normal termination of Gaussian 16 at Thu May 15 15:33:09 2025.
