 Gaussian 16, Revision A.03,
 Gaussian 16:  ES64L-G16RevA.03 25-Dec-2016

 --------------------------------------------
 #p opt UM062X/6-311+G** nosymm int=superfine
 --------------------------------------------

 -------------------
 Title Card Required
 -------------------
 Symbolic Z-matrix:
 Charge =  0 Multiplicity = 1

 SCF Done:  E(UM062X) =  -111.606821519     A.U. after   17 cycles
 SCF Done:  E(UM062X) =  -111.609917160     A.U. after   16 cycles
 SCF Done:  E(UM062X) =  -111.611363076     A.U. after   17 cycles
 SCF Done:  E(UM062X) =  -111.612507339     A.U. after   18 cycles
 SCF Done:  E(UM062X) =  -111.613723305     A.U. after   18 cycles
 SCF Done:  E(UM062X) =  -111.614857591     A.U. after   16 cycles
 SCF Done:  E(UM062X) =  -111.615727039     A.U. after   16 cycles
 SCF Done:  E(UM062X) =  -111.616097762     A.U. after   17 cycles
 SCF Done:  E(UM062X) =  -111.616284951     A.U. after   14 cycles
 SCF Done:  E(UM062X) =  -111.616526657     A.U. after   17 cycles
 SCF Done:  E(UM062X) =  -111.616763928     A.U. after   11 cycles
 SCF Done:  E(UM062X) =  -111.616786015     A.U. after   15 cycles
 SCF Done:  E(UM062X) =  -111.616804388     A.U. after   15 cycles
 SCF Done:  E(UM062X) =  -111.616822470     A.U. after   13 cycles
 SCF Done:  E(UM062X) =  -111.616835664     A.U. after   15 cycles
 SCF Done:  E(UM062X) =  -111.616843091     A.U. after   12 cycles
 SCF Done:  E(UM062X) =  -111.616848744     A.U. after   14 cycles
 SCF Done:  E(UM062X) =  -111.616850786     A.U. after   13 cycles
 SCF Done:  E(UM062X) =  -111.616850862     A.U. after   10 cycles
 SCF Done:  E(UM062X) =  -111.616850871     A.U. after   10 cycles
 Optimization completed.
    -- Stationary point found.

                          Input orientation:
 ---------------------------------------------------------------------
 Center     Atomic      Atomic             Coordinates (Angstroms)
 Number     Number       Type             X           Y           Z
 ---------------------------------------------------------------------
      1          7           0       -2.111540    0.000000    0.000000
      2          7           0        2.111540    0.000000    0.000000
      3          1           0       -1.988956   -0.810369   -0.619993
      4          1           0        1.989344    0.401165   -0.938217
      5          1           0       -1.988905   -0.400972    0.938241
      6          1           0        1.989380    0.810372    0.620073
 ---------------------------------------------------------------------

 Alpha  occ. eigenvalues --  -14.80430 -14.80429  -0.95179  -0.95023  -0.55348
 Alpha  occ. eigenvalues --   -0.55288  -0.40714  -0.40614  -0.27621
 Alpha virt. eigenvalues --   -0.19519   0.03952   0.05846   0.08918   0.11628
 Alpha virt. eigenvalues --    0.12032   0.12957   0.15124   0.16585   0.17561
 Alpha virt. eigenvalues --    0.18396   0.22060   0.29720   0.50852   0.51910

  Beta  occ. eigenvalues --  -14.80430 -14.80429  -0.95179  -0.95023  -0.55348
  Beta  occ. eigenvalues --   -0.55288  -0.40714  -0.40614  -0.27621
  Beta virt. eigenvalues --   -0.19519   0.03952   0.05846   0.08918   0.11628
  Beta virt. eigenvalues --    0.12032   0.12957   0.15124   0.16585   0.17561
  Beta virt. eigenvalues --    0.18396   0.22060   0.29720   0.50852   0.51910

 Mulliken charges and spin densities:
               1          2
     1  N   -0.474653   0.000000
     2  N   -0.474735  -0.000000
     3  H    0.237346  -0.000000
     4  H    0.237349   0.000000
     5  H    0.237346  -0.000000
     6  H    0.237347   0.000000
 Sum of Mulliken charges =  -0.00000   0.00000

 Dipole moment (field-independent basis, Debye):
    X=              0.0010    Y=              0.0002    Z=              0.0002  Tot=              0.0011
 Quadrupole moment (field-independent basis, Debye-Ang):
   XX=            -17.4106   YY=            -14.3819   ZZ=            -11.5388
   XY=              8.6817   XZ=             -2.2802   YZ=              0.8021

 Normal termination of Gaussian 16 at Thu May 15 15:24:09 2025.
