 Gaussian 16, Revision A.03,
 Gaussian 16:  ES64L-G16RevA.03 25-Dec-2016

 --------------------------------------------
 #p opt UM062X/6-311+G** nosymm int=superfine
 --------------------------------------------

 -------------------
 Title Card Required
 -------------------
 Symbolic Z-matrix:
 Charge =  1 Multiplicity = 2

 SCF Done:  E(UM062X) =  -580.982276760     A.U. after   10 cycles
 SCF Done:  E(UM062X) =  -580.982304025     A.U. after    8 cycles
 SCF Done:  E(UM062X) =  -580.982302957     A.U. after    9 cycles
 SCF Done:  E(UM062X) =  -580.982093704     A.U. after   10 cycles
 SCF Done:  E(UM062X) =  -580.982311716     A.U. after    9 cycles
 SCF Done:  E(UM062X) =  -580.982312235     A.U. after    7 cycles
 SCF Done:  E(UM062X) =  -580.982312557     A.U. after    7 cycles
 Optimization completed.
    -- Stationary point found.

                          Input orientation:
 ---------------------------------------------------------------------
 Center     Atomic      Atomic             Coordinates (Angstroms)
 Number     Number       Type             X           Y           Z
 ---------------------------------------------------------------------
      1         14           0       -1.191295    0.000000    0.000000
      2         14           0        1.191295    0.000000    0.000000
      3          1           0       -1.908660   -1.279272   -0.000624
      4          1           0        1.908660    1.279272    0.000604
      5          1           0       -1.908657    1.279274    0.000606
      6          1           0        1.908657   -1.279274   -0.000619
 ---------------------------------------------------------------------

 Alpha  occ. eigenvalues --  -67.25808 -67.25808  -5.80487  -5.80481  -4.12172
 Alpha  occ. eigenvalues --   -4.12166  -4.11436  -4.11394  -4.11336  -4.11331
 Alpha  occ. eigenvalues --   -0.85793  -0.78592  -0.65268  -0.63064  -0.59061
 Alpha  occ. eigenvalues --   -0.47181
 Alpha virt. eigenvalues --   -0.28006  -0.19914  -0.16588  -0.13671  -0.11607
 Alpha virt. eigenvalues --   -0.10617  -0.09614  -0.08693  -0.08641  -0.08060
 Alpha virt. eigenvalues --   -0.06877  -0.05801  -0.01041   0.05781   0.07800

  Beta  occ. eigenvalues --  -67.25517 -67.25517  -5.80404  -5.80400  -4.11446
  Beta  occ. eigenvalues --   -4.11439  -4.11372  -4.11324  -4.11229  -4.11224
  Beta  occ. eigenvalues --   -0.83524  -0.77302  -0.65103  -0.63189  -0.58475
  Beta virt. eigenvalues --   -0.31711  -0.23311  -0.17624  -0.16149  -0.14907
  Beta virt. eigenvalues --   -0.12259  -0.10640  -0.09676  -0.08660  -0.08120
  Beta virt. eigenvalues --   -0.07445  -0.06613  -0.03913  -0.02271   0.05702

 Mulliken charges and spin densities:
               1          2
     1  Si   0.432575   0.552616
     2  Si   0.432575   0.552616
     3  H    0.033713  -0.026308
     4  H    0.033713  -0.026308
     5  H    0.033712  -0.026308
     6  H    0.033712  -0.026308
 Sum of Mulliken charges =   1.00000   1.00000

 Dipole moment (field-independent basis, Debye):
    X=             -0.0000    Y=              0.0000    Z=              0.0000  Tot=              0.0000
 Quadrupole moment (field-independent basis, Debye-Ang):
   XX=            -13.7221   YY=            -23.3927   ZZ=            -23.6536
   XY=              0.0000   XZ=             -0.0000   YZ=              0.0001

 Normal termination of Gaussian 16 at Mon Apr 21 20:23:00 2025.
