 Gaussian 16, Revision A.03,
 Gaussian 16:  ES64L-G16RevA.03 25-Dec-2016

 --------------------------------------------
 #p opt UM062X/6-311+G** nosymm int=superfine
 --------------------------------------------

 -------------------
 Title Card Required
 -------------------
 Symbolic Z-matrix:
 Charge =  1 Multiplicity = 2

 SCF Done:  E(UM062X) =  -80.3306055692     A.U. after   13 cycles
 SCF Done:  E(UM062X) =  -80.3306358937     A.U. after   10 cycles
 SCF Done:  E(UM062X) =  -80.3306356675     A.U. after    8 cycles
 SCF Done:  E(UM062X) =  -80.3306359385     A.U. after    8 cycles
 Optimization completed.
    -- Stationary point found.

                          Input orientation:
 ---------------------------------------------------------------------
 Center     Atomic      Atomic             Coordinates (Angstroms)
 Number     Number       Type             X           Y           Z
 ---------------------------------------------------------------------
      1          5           0       -0.777734    0.000000    0.000000
      2          7           0        0.777734    0.000000    0.000000
      3          1           0       -1.952051   -0.000064   -0.000000
      4          1           0        1.799803    0.000265   -0.000000
 ---------------------------------------------------------------------

 Alpha  occ. eigenvalues --  -15.10613  -7.49532  -1.23771  -0.91858  -0.82257
 Alpha  occ. eigenvalues --   -0.70358  -0.66116
 Alpha virt. eigenvalues --   -0.29605  -0.28460  -0.21475  -0.13972  -0.10845
 Alpha virt. eigenvalues --   -0.10404  -0.09979  -0.08938  -0.01769  -0.01416
 Alpha virt. eigenvalues --    0.03326   0.06109   0.10575   0.17617   0.17931

  Beta  occ. eigenvalues --  -15.09550  -7.49588  -1.17081  -0.90047  -0.81845
  Beta  occ. eigenvalues --   -0.62740
  Beta virt. eigenvalues --   -0.40698  -0.28041  -0.24545  -0.20700  -0.13901
  Beta virt. eigenvalues --   -0.10817  -0.10008  -0.09758  -0.08840  -0.01630
  Beta virt. eigenvalues --   -0.01346   0.01829   0.06298   0.11100   0.16528

 Mulliken charges and spin densities:
               1          2
     1  B    0.586516   0.033662
     2  N   -0.196947   1.006773
     3  H    0.201484  -0.008934
     4  H    0.408946  -0.031501
 Sum of Mulliken charges =   1.00000   1.00000

 Dipole moment (field-independent basis, Debye):
    X=             -1.0707    Y=              0.0004    Z=              0.0000  Tot=              1.0707
 Quadrupole moment (field-independent basis, Debye-Ang):
   XX=              0.4199   YY=             -9.5983   ZZ=            -11.4549
   XY=              0.0010   XZ=              0.0000   YZ=             -0.0004

 Normal termination of Gaussian 16 at Mon Apr 21 17:54:56 2025.
