 Gaussian 16, Revision A.03,
 Gaussian 16:  ES64L-G16RevA.03 25-Dec-2016

 ---------------------------------------------------
 #p UM062X/6-311+G** force int=superfine pop=saveNBO
 ---------------------------------------------------

 -------------------
 Title Card Required
 -------------------
 Symbolic Z-matrix:
 Charge =  0 Multiplicity = 1

                         Standard orientation:
 ---------------------------------------------------------------------
 Center     Atomic      Atomic             Coordinates (Angstroms)
 Number     Number       Type             X           Y           Z
 ---------------------------------------------------------------------
      1         16           0        0.000000    0.000000    2.400200
      2         16           0        0.000000    0.000000   -2.400200
 ---------------------------------------------------------------------

 SCF Done:  E(UM062X) =  -796.002097819     A.U. after    9 cycles

 Unable to determine electronic state:  partially filled degenerate orbitals.
 Alpha  occ. eigenvalues --  -89.98323 -89.98323  -8.34178  -8.34178  -6.26202
 Alpha  occ. eigenvalues --   -6.26202  -6.26186  -6.26186  -6.25368  -6.25368
 Alpha  occ. eigenvalues --   -0.77730  -0.77434  -0.34600  -0.34476  -0.30880
 Alpha  occ. eigenvalues --   -0.30281
 Alpha virt. eigenvalues --   -0.24338  -0.23715   0.02788   0.03973   0.04581
 Alpha virt. eigenvalues --    0.04977   0.06643   0.06852   0.07299   0.11447
 Alpha virt. eigenvalues --    0.30965   0.33438   0.34254   0.34888   0.35705

  Beta  occ. eigenvalues --  -89.98323 -89.98323  -8.34178  -8.34178  -6.26202
  Beta  occ. eigenvalues --   -6.26202  -6.26186  -6.26186  -6.25368  -6.25368
  Beta  occ. eigenvalues --   -0.77730  -0.77434  -0.34600  -0.34476  -0.30880
  Beta  occ. eigenvalues --   -0.30281
  Beta virt. eigenvalues --   -0.24338  -0.23715   0.02788   0.03973   0.04581
  Beta virt. eigenvalues --    0.04977   0.06643   0.06852   0.07299   0.11447
  Beta virt. eigenvalues --    0.30965   0.33438   0.34254   0.34888   0.35705

 Mulliken charges and spin densities:
               1          2
     1  S    0.000000   0.000000
     2  S    0.000000   0.000000
 Sum of Mulliken charges =   0.00000   0.00000

 Dipole moment (field-independent basis, Debye):
    X=              0.0000    Y=             -0.0000    Z=             -0.0000  Tot=              0.0000
 Quadrupole moment (field-independent basis, Debye-Ang):
   XX=            -30.4077   YY=            -25.3106   ZZ=            -23.2897
   XY=              0.0000   XZ=             -0.0000   YZ=              0.0000

 Summary of Natural Population Analysis:

                                       Natural Population
                Natural  -----------------------------------------------
    Atom  No    Charge         Core      Valence    Rydberg      Total
 -----------------------------------------------------------------------
      S    1    0.00000      5.00000     2.99944    0.00057     8.00000
      S    2    0.00000      5.00000     2.99944    0.00057     8.00000
 =======================================================================
   * Total *    0.00000      9.99999     5.99887    0.00113    16.00000

 Normal termination of Gaussian 16 at Mon Apr 21 20:09:31 2025.
