 Gaussian 16, Revision A.03,
 Gaussian 16:  ES64L-G16RevA.03 25-Dec-2016

 --------------------------------------------
 #p opt UM062X/6-311+G** nosymm int=superfine
 --------------------------------------------

 -------------------
 Title Card Required
 -------------------
 Symbolic Z-matrix:
 Charge =  0 Multiplicity = 1

 SCF Done:  E(UM062X) =  -437.171553274     A.U. after   17 cycles
 SCF Done:  E(UM062X) =  -437.173022204     A.U. after   14 cycles
 SCF Done:  E(UM062X) =  -437.173536989     A.U. after   14 cycles
 SCF Done:  E(UM062X) =  -437.173537276     A.U. after   14 cycles
 SCF Done:  E(UM062X) =  -437.173537060     A.U. after   10 cycles
 SCF Done:  E(UM062X) =  -437.173537345     A.U. after   15 cycles
 Optimization completed.
    -- Stationary point found.

                          Input orientation:
 ---------------------------------------------------------------------
 Center     Atomic      Atomic             Coordinates (Angstroms)
 Number     Number       Type             X           Y           Z
 ---------------------------------------------------------------------
      1          6           0       -1.727140    0.000000    0.000000
      2         16           0        1.727140    0.000000    0.000000
      3          1           0       -2.388426   -0.882066    0.000185
      4          1           0       -2.389242    0.881453    0.000053
 ---------------------------------------------------------------------

 Alpha  occ. eigenvalues --  -89.92668 -10.65256  -8.28676  -6.21421  -6.19912
 Alpha  occ. eigenvalues --   -6.19907  -0.79007  -0.72866  -0.51830  -0.34876
 Alpha  occ. eigenvalues --   -0.30307  -0.30287
 Alpha virt. eigenvalues --   -0.14955  -0.11342   0.00931   0.05236   0.05327
 Alpha virt. eigenvalues --    0.06643   0.08295   0.08871   0.09319   0.14108
 Alpha virt. eigenvalues --    0.16834   0.17569   0.36548   0.36722   0.37131

  Beta  occ. eigenvalues --  -89.92668 -10.65256  -8.28676  -6.21421  -6.19912
  Beta  occ. eigenvalues --   -6.19907  -0.79007  -0.72866  -0.51830  -0.34876
  Beta  occ. eigenvalues --   -0.30307  -0.30287
  Beta virt. eigenvalues --   -0.14955  -0.11342   0.00931   0.05236   0.05327
  Beta virt. eigenvalues --    0.06643   0.08295   0.08871   0.09319   0.14108
  Beta virt. eigenvalues --    0.16834   0.17569   0.36548   0.36722   0.37131

 Mulliken charges and spin densities:
               1          2
     1  C   -0.267887  -0.000000
     2  S   -0.053173   0.000000
     3  H    0.160525  -0.000000
     4  H    0.160535  -0.000000
 Sum of Mulliken charges =  -0.00000  -0.00000

 Dipole moment (field-independent basis, Debye):
    X=             -3.5925    Y=             -0.0009    Z=              0.0003  Tot=              3.5925
 Quadrupole moment (field-independent basis, Debye-Ang):
   XX=            -11.5393   YY=            -22.3047   ZZ=            -21.9246
   XY=              0.0000   XZ=              0.0001   YZ=              0.0000

 Normal termination of Gaussian 16 at Mon Apr 21 19:45:26 2025.
