 Gaussian 16, Revision A.03,
 Gaussian 16:  ES64L-G16RevA.03 25-Dec-2016

 --------------------------------------------
 #p opt UM062X/6-311+G** nosymm int=superfine
 --------------------------------------------

 -------------------
 Title Card Required
 -------------------
 Symbolic Z-matrix:
 Charge =  0 Multiplicity = 1

 SCF Done:  E(UM062X) =  -115.441562288     A.U. after   40 cycles
 SCF Done:  E(UM062X) =  -115.457872241     A.U. after   12 cycles
 SCF Done:  E(UM062X) =  -115.467999464     A.U. after   14 cycles
 SCF Done:  E(UM062X) =  -115.468129882     A.U. after   10 cycles
 SCF Done:  E(UM062X) =  -115.468193020     A.U. after   14 cycles
 SCF Done:  E(UM062X) =  -115.468334044     A.U. after   15 cycles
 SCF Done:  E(UM062X) =  -115.468367244     A.U. after   14 cycles
 SCF Done:  E(UM062X) =  -115.468375989     A.U. after   12 cycles
 SCF Done:  E(UM062X) =  -115.468376292     A.U. after    9 cycles
 Optimization completed.
    -- Stationary point found.

                          Input orientation:
 ---------------------------------------------------------------------
 Center     Atomic      Atomic             Coordinates (Angstroms)
 Number     Number       Type             X           Y           Z
 ---------------------------------------------------------------------
      1          6           0       -1.882203    0.000000    0.000000
      2          8           0        1.882203    0.000000    0.000000
      3          1           0        1.938961   -0.964125    0.000600
      4          1           0       -1.948380   -0.534470    0.937867
      5          1           0       -1.779318    1.076658   -0.000652
      6          1           0       -1.948294   -0.535609   -0.937223
 ---------------------------------------------------------------------

 Alpha  occ. eigenvalues --  -19.58321 -10.67221  -1.00769  -0.85102  -0.57196
 Alpha  occ. eigenvalues --   -0.57013  -0.45305  -0.32265  -0.27408
 Alpha virt. eigenvalues --   -0.17578   0.00304   0.03610   0.03856   0.06854
 Alpha virt. eigenvalues --    0.13164   0.14560   0.14720   0.19039   0.22697
 Alpha virt. eigenvalues --    0.23064   0.24970   0.28195   0.38910   0.39108

  Beta  occ. eigenvalues --  -19.58321 -10.67221  -1.00769  -0.85102  -0.57196
  Beta  occ. eigenvalues --   -0.57013  -0.45305  -0.32265  -0.27408
  Beta virt. eigenvalues --   -0.17578   0.00304   0.03610   0.03856   0.06854
  Beta virt. eigenvalues --    0.13164   0.14560   0.14720   0.19039   0.22697
  Beta virt. eigenvalues --    0.23064   0.24970   0.28195   0.38910   0.39108

 Mulliken charges and spin densities:
               1          2
     1  C   -0.292151   0.000003
     2  O   -0.562894  -0.000002
     3  H    0.212584  -0.000000
     4  H    0.210369  -0.000000
     5  H    0.221719  -0.000000
     6  H    0.210372  -0.000000
 Sum of Mulliken charges =  -0.00000   0.00000

 Dipole moment (field-independent basis, Debye):
    X=             -6.4222    Y=             -1.5848    Z=              0.0010  Tot=              6.6148
 Quadrupole moment (field-independent basis, Debye-Ang):
   XX=            -13.1859   YY=            -11.5025   ZZ=            -13.9185
   XY=             -3.1624   XZ=              0.0019   YZ=             -0.0015

 Normal termination of Gaussian 16 at Mon Apr 21 18:46:46 2025.
