 Gaussian 16, Revision A.03,
 Gaussian 16:  ES64L-G16RevA.03 25-Dec-2016

 --------------------------------------------
 #p opt UM062X/6-311+G** nosymm int=superfine
 --------------------------------------------

 -------------------
 Title Card Required
 -------------------
 Symbolic Z-matrix:
 Charge =  0 Multiplicity = 1

 SCF Done:  E(UM062X) =  -579.887332803     A.U. after   10 cycles
 SCF Done:  E(UM062X) =  -579.890247738     A.U. after   10 cycles
 SCF Done:  E(UM062X) =  -579.890253640     A.U. after    7 cycles
 Optimization completed.
    -- Stationary point found.

                          Input orientation:
 ---------------------------------------------------------------------
 Center     Atomic      Atomic             Coordinates (Angstroms)
 Number     Number       Type             X           Y           Z
 ---------------------------------------------------------------------
      1         14           0       -1.978705    0.000000    0.000000
      2         14           0        1.978705    0.000000    0.000000
      3          1           0       -3.505289   -0.000025    0.000000
      4          1           0        3.505289    0.000042   -0.000000
 ---------------------------------------------------------------------

 Alpha  occ. eigenvalues --  -67.04516 -67.04516  -5.58934  -5.58932  -3.90038
 Alpha  occ. eigenvalues --   -3.90038  -3.89589  -3.89589  -3.89451  -3.89451
 Alpha  occ. eigenvalues --   -0.55038  -0.54562  -0.34192  -0.30901  -0.18271
 Alpha virt. eigenvalues --   -0.10293  -0.09431  -0.08020   0.02297   0.02934
 Alpha virt. eigenvalues --    0.04554   0.05737   0.05779   0.05976   0.07080
 Alpha virt. eigenvalues --    0.07211   0.08953   0.17720   0.29274   0.29502

  Beta  occ. eigenvalues --  -67.04516 -67.04516  -5.58934  -5.58932  -3.90038
  Beta  occ. eigenvalues --   -3.90038  -3.89589  -3.89589  -3.89451  -3.89451
  Beta  occ. eigenvalues --   -0.55038  -0.54562  -0.34192  -0.30901  -0.18271
  Beta virt. eigenvalues --   -0.10293  -0.09431  -0.08020   0.02297   0.02934
  Beta virt. eigenvalues --    0.04554   0.05737   0.05779   0.05976   0.07080
  Beta virt. eigenvalues --    0.07211   0.08953   0.17720   0.29274   0.29502

 Mulliken charges and spin densities:
               1          2
     1  Si   0.146043  -0.000000
     2  Si   0.146043   0.000000
     3  H   -0.146043   0.000000
     4  H   -0.146043  -0.000000
 Sum of Mulliken charges =  -0.00000  -0.00000

 Dipole moment (field-independent basis, Debye):
    X=             -0.0000    Y=              0.0000    Z=             -0.0000  Tot=              0.0000
 Quadrupole moment (field-independent basis, Debye-Ang):
   XX=            -30.7597   YY=            -24.2687   ZZ=            -35.6596
   XY=             -0.0002   XZ=              0.0000   YZ=             -0.0001

 Normal termination of Gaussian 16 at Mon Apr 21 21:20:31 2025.
