 Gaussian 16, Revision A.03,
 Gaussian 16:  ES64L-G16RevA.03 25-Dec-2016

 --------------------------------------------
 #p opt UM062X/6-311+G** nosymm int=superfine
 --------------------------------------------

 -------------------
 Title Card Required
 -------------------
 Symbolic Z-matrix:
 Charge =  1 Multiplicity = 2

 SCF Done:  E(UM062X) =  -76.5844923763     A.U. after   10 cycles
 SCF Done:  E(UM062X) =  -76.5848278284     A.U. after   46 cycles
 Optimization completed.
    -- Stationary point found.

                          Input orientation:
 ---------------------------------------------------------------------
 Center     Atomic      Atomic             Coordinates (Angstroms)
 Number     Number       Type             X           Y           Z
 ---------------------------------------------------------------------
      1          6           0       -1.957160    0.000000    0.000000
      2          6           0        1.957160    0.000000    0.000000
      3          1           0       -3.074747    0.000000    0.000000
      4          1           0        3.074747    0.000000    0.000000
 ---------------------------------------------------------------------

 Alpha  occ. eigenvalues --  -10.94346 -10.94346  -0.98034  -0.97917  -0.63803
 Alpha  occ. eigenvalues --   -0.62715  -0.47845
 Alpha virt. eigenvalues --   -0.40591  -0.33189  -0.32890  -0.12205  -0.11298
 Alpha virt. eigenvalues --   -0.07644  -0.07218  -0.05468  -0.04718  -0.04381
 Alpha virt. eigenvalues --   -0.01597  -0.00469   0.05787   0.26173   0.29452

  Beta  occ. eigenvalues --  -10.93934 -10.93933  -0.95640  -0.95593  -0.62465
  Beta  occ. eigenvalues --   -0.61303
  Beta virt. eigenvalues --   -0.31351  -0.30969  -0.29756  -0.29315  -0.12674
  Beta virt. eigenvalues --   -0.11224  -0.07008  -0.06213  -0.06100  -0.03968
  Beta virt. eigenvalues --   -0.03032  -0.02036   0.01089   0.07444   0.25316

 Mulliken charges and spin densities:
               1          2
     1  C    0.270726   0.516429
     2  C    0.270726   0.516429
     3  H    0.229274  -0.016429
     4  H    0.229274  -0.016429
 Sum of Mulliken charges =   1.00000   1.00000

 Dipole moment (field-independent basis, Debye):
    X=              0.0000    Y=             -0.0000    Z=             -0.0000  Tot=              0.0000
 Quadrupole moment (field-independent basis, Debye-Ang):
   XX=             23.7182   YY=            -10.0344   ZZ=            -10.9365
   XY=              0.0000   XZ=              0.0000   YZ=              0.8946

 Normal termination of Gaussian 16 at Tue Dec  3 11:33:45 2024.
