 Gaussian 16, Revision A.03,
 Gaussian 16:  ES64L-G16RevA.03 25-Dec-2016

 --------------------------------------------
 #p opt UM062X/6-311+G** nosymm int=superfine
 --------------------------------------------

 -------------------
 Title Card Required
 -------------------
 Symbolic Z-matrix:
 Charge =  0 Multiplicity = 1

 SCF Done:  E(UM062X) =  -81.9084811200     A.U. after   11 cycles
 SCF Done:  E(UM062X) =  -81.9109280601     A.U. after    9 cycles
 SCF Done:  E(UM062X) =  -81.9117003996     A.U. after   10 cycles
 SCF Done:  E(UM062X) =  -81.9014074240     A.U. after   11 cycles
 SCF Done:  E(UM062X) =  -81.9118275036     A.U. after    9 cycles
 SCF Done:  E(UM062X) =  -81.9127161161     A.U. after   11 cycles
 SCF Done:  E(UM062X) =  -81.9125371544     A.U. after   12 cycles
 SCF Done:  E(UM062X) =  -81.9144974050     A.U. after   11 cycles
 SCF Done:  E(UM062X) =  -81.9028167755     A.U. after   12 cycles
 SCF Done:  E(UM062X) =  -81.9133115367     A.U. after   11 cycles
 SCF Done:  E(UM062X) =  -81.9159419037     A.U. after    9 cycles
 SCF Done:  E(UM062X) =  -81.9166457883     A.U. after   10 cycles
 SCF Done:  E(UM062X) =  -81.9169621732     A.U. after   10 cycles
 SCF Done:  E(UM062X) =  -81.9169714314     A.U. after    9 cycles
 SCF Done:  E(UM062X) =  -81.9169714514     A.U. after    7 cycles
 SCF Done:  E(UM062X) =  -81.9169714798     A.U. after    7 cycles
 Optimization completed.
    -- Stationary point found.

                          Input orientation:
 ---------------------------------------------------------------------
 Center     Atomic      Atomic             Coordinates (Angstroms)
 Number     Number       Type             X           Y           Z
 ---------------------------------------------------------------------
      1          5           0       -0.995399    0.000000    0.000000
      2          7           0        0.995399    0.000000    0.000000
      3          1           0       -1.474092   -1.075336   -0.041300
      4          1           0        1.287711    0.826545    0.512475
      5          1           0       -1.474097    1.075317   -0.041744
      6          1           0        1.287716   -0.826545    0.512473
 ---------------------------------------------------------------------

 Alpha  occ. eigenvalues --  -14.72973  -7.12137  -0.90289  -0.58776  -0.52362
 Alpha  occ. eigenvalues --   -0.44916  -0.39064  -0.31243
 Alpha virt. eigenvalues --   -0.03848   0.01267   0.02105   0.03489   0.05737
 Alpha virt. eigenvalues --    0.10439   0.12471   0.13655   0.15480   0.16375
 Alpha virt. eigenvalues --    0.20171   0.20616   0.22370   0.26915   0.35258

  Beta  occ. eigenvalues --  -14.72973  -7.12137  -0.90289  -0.58776  -0.52362
  Beta  occ. eigenvalues --   -0.44916  -0.39064  -0.31243
  Beta virt. eigenvalues --   -0.03848   0.01267   0.02105   0.03489   0.05737
  Beta virt. eigenvalues --    0.10439   0.12471   0.13655   0.15480   0.16375
  Beta virt. eigenvalues --    0.20171   0.20616   0.22370   0.26915   0.35258

 Mulliken charges and spin densities:
               1          2
     1  B    0.193790   0.000000
     2  N   -0.731843   0.000000
     3  H    0.027202  -0.000000
     4  H    0.241828  -0.000000
     5  H    0.027200  -0.000000
     6  H    0.241823  -0.000000
 Sum of Mulliken charges =  -0.00000  -0.00000

 Dipole moment (field-independent basis, Debye):
    X=             -1.3894    Y=              0.0000    Z=              1.4176  Tot=              1.9849
 Quadrupole moment (field-independent basis, Debye-Ang):
   XX=            -14.4175   YY=            -13.2163   ZZ=            -14.7485
   XY=             -0.0001   XZ=              2.2287   YZ=              0.0002

 Normal termination of Gaussian 16 at Mon Apr 21 17:41:13 2025.
