 Gaussian 16, Revision A.03,
 Gaussian 16:  ES64L-G16RevA.03 25-Dec-2016

 ---------------------------------------------------
 #p UM062X/6-311+G** force int=superfine pop=saveNBO
 ---------------------------------------------------

 -------------------
 Title Card Required
 -------------------
 Symbolic Z-matrix:
 Charge =  0 Multiplicity = 1

                         Standard orientation:
 ---------------------------------------------------------------------
 Center     Atomic      Atomic             Coordinates (Angstroms)
 Number     Number       Type             X           Y           Z
 ---------------------------------------------------------------------
      1          6           0        0.000000    0.000000   -2.748067
      2         16           0        0.000000    0.000000    1.030525
 ---------------------------------------------------------------------

 SCF Done:  E(UM062X) =  -435.753361101     A.U. after   42 cycles

 The electronic state is 1-SG.
 Alpha  occ. eigenvalues --  -89.93630 -10.82515  -8.29449  -6.21258  -6.21258
 Alpha  occ. eigenvalues --   -6.21145  -0.73240  -0.70996  -0.29842  -0.28425
 Alpha  occ. eigenvalues --   -0.28425
 Alpha virt. eigenvalues --   -0.20516  -0.20516  -0.18630   0.02627   0.05617
 Alpha virt. eigenvalues --    0.05779   0.05779   0.08414   0.08414   0.08516
 Alpha virt. eigenvalues --    0.13624   0.35675   0.36240   0.36240   0.51619

  Beta  occ. eigenvalues --  -89.93630 -10.82515  -8.29449  -6.21258  -6.21258
  Beta  occ. eigenvalues --   -6.21145  -0.73240  -0.70996  -0.29842  -0.28425
  Beta  occ. eigenvalues --   -0.28425
  Beta virt. eigenvalues --   -0.20516  -0.20516  -0.18630   0.02627   0.05617
  Beta virt. eigenvalues --    0.05779   0.05779   0.08414   0.08414   0.08516
  Beta virt. eigenvalues --    0.13624   0.35675   0.36240   0.36240   0.51619

 Mulliken charges and spin densities:
               1          2
     1  C    0.217454  -0.000000
     2  S   -0.217454   0.000000
 Sum of Mulliken charges =  -0.00000   0.00000

 Dipole moment (field-independent basis, Debye):
    X=              0.0000    Y=              0.0000    Z=             -3.9155  Tot=              3.9155
 Quadrupole moment (field-independent basis, Debye-Ang):
   XX=            -20.9095   YY=            -20.9095   ZZ=            -11.5045
   XY=              0.0000   XZ=              0.0000   YZ=              0.0000

 Summary of Natural Population Analysis:

                                       Natural Population
                Natural  -----------------------------------------------
    Atom  No    Charge         Core      Valence    Rydberg      Total
 -----------------------------------------------------------------------
      C    1    0.12384      1.00000     1.87570    0.00046     2.87616
      S    2   -0.12384      5.00000     3.12358    0.00027     8.12384
 =======================================================================
   * Total *   -0.00000      6.00000     4.99928    0.00072    11.00000

 Normal termination of Gaussian 16 at Mon Apr 21 19:43:59 2025.
