 Gaussian 16, Revision A.03,
 Gaussian 16:  ES64L-G16RevA.03 25-Dec-2016

 ---------------------------------------------------------
 #p opt UM062X/6-311+G** nosymm int=superfine SCF=NoVarAcc
 ---------------------------------------------------------

 -------------------
 Title Card Required
 -------------------
 Symbolic Z-matrix:
 Charge =  1 Multiplicity = 2

 SCF Done:  E(UM062X) =  -77.8953888571     A.U. after   10 cycles
 SCF Done:  E(UM062X) =  -77.8993663748     A.U. after    9 cycles
 SCF Done:  E(UM062X) =  -77.9020068073     A.U. after   10 cycles
 SCF Done:  E(UM062X) =  -77.9020103262     A.U. after    8 cycles
 Optimization completed.
    -- Stationary point found.

                          Input orientation:
 ---------------------------------------------------------------------
 Center     Atomic      Atomic             Coordinates (Angstroms)
 Number     Number       Type             X           Y           Z
 ---------------------------------------------------------------------
      1          6           0       -2.256027    0.000000    0.000000
      2          6           0        2.256027    0.000000    0.000000
      3          1           0       -2.816101   -0.942276   -0.000000
      4          1           0       -2.816042    0.942310   -0.000000
      5          1           0        2.816101    0.942276    0.000000
      6          1           0        2.816042   -0.942310    0.000000
 ---------------------------------------------------------------------

 Alpha  occ. eigenvalues --  -10.87889 -10.87889  -0.99281  -0.99264  -0.73954
 Alpha  occ. eigenvalues --   -0.73942  -0.57177  -0.56607
 Alpha virt. eigenvalues --   -0.31112  -0.30955  -0.12371  -0.10683  -0.08588
 Alpha virt. eigenvalues --   -0.06716  -0.06231  -0.06124  -0.04014  -0.01093
 Alpha virt. eigenvalues --    0.00103   0.00748   0.02478   0.04637   0.27856

  Beta  occ. eigenvalues --  -10.87126 -10.87125  -0.97127  -0.97017  -0.72935
  Beta  occ. eigenvalues --   -0.72919  -0.45219
  Beta virt. eigenvalues --   -0.36846  -0.29372  -0.29165  -0.12085  -0.10847
  Beta virt. eigenvalues --   -0.08429  -0.06549  -0.06315  -0.04346  -0.04275
  Beta virt. eigenvalues --   -0.00951   0.00885   0.01045   0.02627   0.05310

 Mulliken charges and spin densities:
               1          2
     1  C    0.026708   0.486135
     2  C    0.026708   0.486136
     3  H    0.236646   0.006932
     4  H    0.236645   0.006932
     5  H    0.236646   0.006932
     6  H    0.236646   0.006932
 Sum of Mulliken charges =   1.00000   1.00000

 Dipole moment (field-independent basis, Debye):
    X=              0.0000    Y=              0.0000    Z=             -0.0000  Tot=              0.0000
 Quadrupole moment (field-independent basis, Debye-Ang):
   XX=             26.9992   YY=             -9.4599   ZZ=            -10.7248
   XY=             -0.0001   XZ=              0.0000   YZ=              0.0000

 Normal termination of Gaussian 16 at Tue Dec  3 13:37:15 2024.
