 Gaussian 16, Revision A.03,
 Gaussian 16:  ES64L-G16RevA.03 25-Dec-2016

 --------------------------------------------
 #p opt UM062X/6-311+G** nosymm int=superfine
 --------------------------------------------

 -------------------
 Title Card Required
 -------------------
 Symbolic Z-matrix:
 Charge =  0 Multiplicity = 1

 SCF Done:  E(UM062X) =  -110.178929363     A.U. after   12 cycles
 SCF Done:  E(UM062X) =  -110.181165739     A.U. after   12 cycles
 SCF Done:  E(UM062X) =  -110.185281482     A.U. after   17 cycles
 SCF Done:  E(UM062X) =  -110.186546735     A.U. after   18 cycles
 SCF Done:  E(UM062X) =  -110.186552009     A.U. after   18 cycles
 Optimization completed.
    -- Stationary point found.

                          Input orientation:
 ---------------------------------------------------------------------
 Center     Atomic      Atomic             Coordinates (Angstroms)
 Number     Number       Type             X           Y           Z
 ---------------------------------------------------------------------
      1          7           0       -1.690428    0.000000    0.000000
      2          7           0        1.690428    0.000000    0.000000
      3          1           0       -1.461141   -1.013851    0.000000
      4          1           0        1.461141    1.013851    0.000000
 ---------------------------------------------------------------------

 Alpha  occ. eigenvalues --  -14.88541 -14.88539  -0.92891  -0.92221  -0.49170
 Alpha  occ. eigenvalues --   -0.48780  -0.31507  -0.30243
 Alpha virt. eigenvalues --   -0.21421  -0.19969   0.05128   0.07061   0.10755
 Alpha virt. eigenvalues --    0.11453   0.13190   0.14670   0.15447   0.17725
 Alpha virt. eigenvalues --    0.19255   0.22724   0.52386   0.54873   0.73403

  Beta  occ. eigenvalues --  -14.88541 -14.88539  -0.92891  -0.92221  -0.49170
  Beta  occ. eigenvalues --   -0.48780  -0.31507  -0.30243
  Beta virt. eigenvalues --   -0.21421  -0.19969   0.05128   0.07061   0.10755
  Beta virt. eigenvalues --    0.11453   0.13190   0.14670   0.15447   0.17725
  Beta virt. eigenvalues --    0.19255   0.22724   0.52386   0.54873   0.73403

 Mulliken charges and spin densities:
               1          2
     1  N   -0.236627   0.000000
     2  N   -0.236627  -0.000000
     3  H    0.236627  -0.000000
     4  H    0.236627  -0.000000
 Sum of Mulliken charges =  -0.00000  -0.00000

 Dipole moment (field-independent basis, Debye):
    X=             -0.0000    Y=              0.0000    Z=              0.0000  Tot=              0.0000
 Quadrupole moment (field-independent basis, Debye-Ang):
   XX=            -14.8579   YY=            -11.2747   ZZ=            -14.2056
   XY=              5.5633   XZ=             -0.0000   YZ=             -0.0000

 Normal termination of Gaussian 16 at Thu May 15 15:41:47 2025.
