 Gaussian 16, Revision A.03,
 Gaussian 16:  ES64L-G16RevA.03 25-Dec-2016

 --------------------------------------------
 #p opt UM062X/6-311+G** nosymm int=superfine
 --------------------------------------------

 -------------------
 Title Card Required
 -------------------
 Symbolic Z-matrix:
 Charge =  0 Multiplicity = 1

 SCF Done:  E(UM062X) =  -581.196095458     A.U. after   10 cycles
 SCF Done:  E(UM062X) =  -581.196519430     A.U. after    8 cycles
 SCF Done:  E(UM062X) =  -581.196652308     A.U. after    9 cycles
 SCF Done:  E(UM062X) =  -581.196624990     A.U. after    9 cycles
 SCF Done:  E(UM062X) =  -581.196652511     A.U. after    9 cycles
 SCF Done:  E(UM062X) =  -581.196654587     A.U. after    9 cycles
 Optimization completed.
    -- Stationary point found.

                          Input orientation:
 ---------------------------------------------------------------------
 Center     Atomic      Atomic             Coordinates (Angstroms)
 Number     Number       Type             X           Y           Z
 ---------------------------------------------------------------------
      1         14           0       -1.387518    0.000000    0.000000
      2         14           0        1.387518    0.000000    0.000000
      3          1           0       -2.124608   -1.272672    0.001261
      4          1           0        2.124609    1.272672   -0.001064
      5          1           0       -2.124627    1.272661    0.000402
      6          1           0        2.124627   -1.272661   -0.000285
 ---------------------------------------------------------------------

 Alpha  occ. eigenvalues --  -67.03447 -67.03447  -5.57995  -5.57994  -3.89214
 Alpha  occ. eigenvalues --   -3.89212  -3.89055  -3.89046  -3.88979  -3.88978
 Alpha  occ. eigenvalues --   -0.61071  -0.57857  -0.44022  -0.43106  -0.33731
 Alpha  occ. eigenvalues --   -0.21684
 Alpha virt. eigenvalues --   -0.07615  -0.04264   0.02208   0.03101   0.03469
 Alpha virt. eigenvalues --    0.04610   0.04859   0.05365   0.05492   0.07014
 Alpha virt. eigenvalues --    0.07364   0.07502   0.11771   0.20152   0.27159

  Beta  occ. eigenvalues --  -67.03447 -67.03447  -5.57995  -5.57994  -3.89214
  Beta  occ. eigenvalues --   -3.89212  -3.89055  -3.89046  -3.88979  -3.88978
  Beta  occ. eigenvalues --   -0.61071  -0.57857  -0.44022  -0.43106  -0.33731
  Beta  occ. eigenvalues --   -0.21684
  Beta virt. eigenvalues --   -0.07615  -0.04264   0.02208   0.03101   0.03469
  Beta virt. eigenvalues --    0.04610   0.04859   0.05365   0.05492   0.07014
  Beta virt. eigenvalues --    0.07364   0.07502   0.11771   0.20152   0.27159

 Mulliken charges and spin densities:
               1          2
     1  Si   0.108206   0.000000
     2  Si   0.108206  -0.000000
     3  H   -0.054104  -0.000000
     4  H   -0.054104   0.000000
     5  H   -0.054103  -0.000000
     6  H   -0.054103   0.000000
 Sum of Mulliken charges =  -0.00000  -0.00000

 Dipole moment (field-independent basis, Debye):
    X=              0.0000    Y=              0.0000    Z=              0.0000  Tot=              0.0000
 Quadrupole moment (field-independent basis, Debye-Ang):
   XX=            -26.3882   YY=            -29.5496   ZZ=            -34.4142
   XY=             -0.0000   XZ=             -0.0011   YZ=             -0.0016

 Normal termination of Gaussian 16 at Mon Apr 21 20:30:23 2025.
