 Gaussian 16, Revision A.03,
 Gaussian 16:  ES64L-G16RevA.03 25-Dec-2016

 ---------------------------------------
 #p UM062X/6-311+G** force int=superfine
 ---------------------------------------

 -------------------
 Title Card Required
 -------------------
 Symbolic Z-matrix:
 Charge =  1 Multiplicity = 2

                         Standard orientation:
 ---------------------------------------------------------------------
 Center     Atomic      Atomic             Coordinates (Angstroms)
 Number     Number       Type             X           Y           Z
 ---------------------------------------------------------------------
      1          6           0        0.000000    0.000000    0.695904
      2          6           0        0.000000    0.000000   -0.695904
      3          1           0        0.000000    0.000000    1.781384
      4          1           0        0.000000    0.000000   -1.781384
 ---------------------------------------------------------------------

 SCF Done:  E(UM062X) =  -76.8715403149     A.U. after    9 cycles

 Unable to determine electronic state:  an orbital has unidentified symmetry.
 Alpha  occ. eigenvalues --  -10.96596 -10.96500  -1.17731  -0.97999  -0.88225
 Alpha  occ. eigenvalues --   -0.69136  -0.66699
 Alpha virt. eigenvalues --   -0.30996  -0.28975  -0.17923  -0.14395  -0.11247
 Alpha virt. eigenvalues --   -0.09835  -0.09598  -0.08695  -0.05060  -0.04679
 Alpha virt. eigenvalues --    0.02136   0.04423   0.12542   0.20003   0.30574

  Beta  occ. eigenvalues --  -10.96358 -10.96281  -1.13246  -0.96361  -0.87667
  Beta  occ. eigenvalues --   -0.64362
  Beta virt. eigenvalues --   -0.44078  -0.27298  -0.23881  -0.16416  -0.15541
  Beta virt. eigenvalues --   -0.11475  -0.10149  -0.09900  -0.08513  -0.04693
  Beta virt. eigenvalues --   -0.04213   0.01666   0.04599   0.13125   0.20906

 Mulliken charges and spin densities:
               1          2
     1  C    0.169267   0.519857
     2  C    0.169267   0.519857
     3  H    0.330733  -0.019857
     4  H    0.330733  -0.019857
 Sum of Mulliken charges =   1.00000   1.00000

 Dipole moment (field-independent basis, Debye):
    X=              0.0000    Y=             -0.0000    Z=              0.0000  Tot=              0.0000
 Quadrupole moment (field-independent basis, Debye-Ang):
   XX=            -10.0098   YY=            -11.9274   ZZ=              0.5877
   XY=              0.0000   XZ=             -0.0000   YZ=              0.0000

 Normal termination of Gaussian 16 at Tue Nov 19 13:32:53 2024.
