 Gaussian 16, Revision A.03,
 Gaussian 16:  ES64L-G16RevA.03 25-Dec-2016

 --------------------------------------------
 #p opt UM062X/6-311+G** nosymm int=superfine
 --------------------------------------------

 -------------------
 Title Card Required
 -------------------
 Symbolic Z-matrix:
 Charge =  0 Multiplicity = 1

 SCF Done:  E(UM062X) =  -78.5295451958     A.U. after    8 cycles
 SCF Done:  E(UM062X) =  -78.5375171579     A.U. after    8 cycles
 SCF Done:  E(UM062X) =  -78.5383031451     A.U. after    7 cycles
 SCF Done:  E(UM062X) =  -78.5383355695     A.U. after    6 cycles
 Optimization completed.
    -- Stationary point found.

                          Input orientation:
 ---------------------------------------------------------------------
 Center     Atomic      Atomic             Coordinates (Angstroms)
 Number     Number       Type             X           Y           Z
 ---------------------------------------------------------------------
      1          6           0       -0.749045    0.000000    0.000000
      2          6           0        0.749045    0.000000    0.000000
      3          1           0       -1.287562   -0.937704    0.000000
      4          1           0       -1.287650    0.937657    0.000000
      5          1           0        1.287562    0.937704   -0.000000
      6          1           0        1.287650   -0.937657   -0.000000
 ---------------------------------------------------------------------

 Alpha  occ. eigenvalues --  -10.56394 -10.56344  -0.82704  -0.67859  -0.53497
 Alpha  occ. eigenvalues --   -0.45961  -0.44524  -0.30890
 Alpha virt. eigenvalues --   -0.00044   0.03388   0.03887   0.05279   0.07927
 Alpha virt. eigenvalues --    0.08150   0.09716   0.12416   0.15933   0.17042
 Alpha virt. eigenvalues --    0.20521   0.21961   0.30249   0.30419   0.42521

  Beta  occ. eigenvalues --  -10.56394 -10.56344  -0.82704  -0.67859  -0.53497
  Beta  occ. eigenvalues --   -0.45961  -0.44524  -0.30890
  Beta virt. eigenvalues --   -0.00044   0.03388   0.03887   0.05279   0.07927
  Beta virt. eigenvalues --    0.08150   0.09716   0.12416   0.15933   0.17042
  Beta virt. eigenvalues --    0.20521   0.21961   0.30249   0.30419   0.42521

 Mulliken charges and spin densities:
               1          2
     1  C   -0.315782  -0.000000
     2  C   -0.315782   0.000000
     3  H    0.157888   0.000000
     4  H    0.157894   0.000000
     5  H    0.157888  -0.000000
     6  H    0.157894  -0.000000
 Sum of Mulliken charges =  -0.00000  -0.00000

 Dipole moment (field-independent basis, Debye):
    X=             -0.0000    Y=              0.0000    Z=             -0.0000  Tot=              0.0000
 Quadrupole moment (field-independent basis, Debye-Ang):
   XX=            -12.0661   YY=            -12.2731   ZZ=            -16.6055
   XY=             -0.0002   XZ=             -0.0000   YZ=             -0.0000

 Normal termination of Gaussian 16 at Tue Nov 19 10:41:37 2024.
