 Gaussian 16, Revision A.03,
 Gaussian 16:  ES64L-G16RevA.03 25-Dec-2016

 --------------------------------------------
 #p opt UM062X/6-311+G** nosymm int=superfine
 --------------------------------------------

 -------------------
 Title Card Required
 -------------------
 Symbolic Z-matrix:
 Charge =  0 Multiplicity = 1

 SCF Done:  E(UM062X) =  -382.244536227     A.U. after   14 cycles
 SCF Done:  E(UM062X) =  -382.254886192     A.U. after   11 cycles
 SCF Done:  E(UM062X) =  -382.260867621     A.U. after   11 cycles
 SCF Done:  E(UM062X) =  -382.260963691     A.U. after   11 cycles
 SCF Done:  E(UM062X) =  -382.261013889     A.U. after   12 cycles
 SCF Done:  E(UM062X) =  -382.261046331     A.U. after   10 cycles
 SCF Done:  E(UM062X) =  -382.261054938     A.U. after   11 cycles
 SCF Done:  E(UM062X) =  -382.261056898     A.U. after    9 cycles
 SCF Done:  E(UM062X) =  -382.261057981     A.U. after    9 cycles
 SCF Done:  E(UM062X) =  -382.261058724     A.U. after    9 cycles
 SCF Done:  E(UM062X) =  -382.261058969     A.U. after    8 cycles
 Optimization completed.
    -- Stationary point found.

                          Input orientation:
 ---------------------------------------------------------------------
 Center     Atomic      Atomic             Coordinates (Angstroms)
 Number     Number       Type             X           Y           Z
 ---------------------------------------------------------------------
      1          6           0       -1.931264    0.000000    0.000000
      2         15           0        1.931264    0.000000    0.000000
      3          1           0        1.861900   -1.417545    0.027216
      4          1           0       -1.979971    1.053128    0.235534
      5          1           0        1.861829    0.077497    1.415658
      6          1           0       -1.979895   -0.319872   -1.030653
      7          1           0       -2.009260   -0.730545    0.792155
 ---------------------------------------------------------------------

 Alpha  occ. eigenvalues --  -78.03182 -10.59575  -6.85572  -4.97099  -4.97020
 Alpha  occ. eigenvalues --   -4.96838  -0.78846  -0.69400  -0.50996  -0.50944
 Alpha  occ. eigenvalues --   -0.43565  -0.34662  -0.23918
 Alpha virt. eigenvalues --   -0.12439   0.02145   0.03876   0.03985   0.04544
 Alpha virt. eigenvalues --    0.06263   0.06794   0.07256   0.07257   0.11403
 Alpha virt. eigenvalues --    0.17118   0.18248   0.18319   0.23020   0.30325

  Beta  occ. eigenvalues --  -78.03182 -10.59575  -6.85572  -4.97099  -4.97020
  Beta  occ. eigenvalues --   -4.96838  -0.78846  -0.69400  -0.50996  -0.50944
  Beta  occ. eigenvalues --   -0.43565  -0.34662  -0.23918
  Beta virt. eigenvalues --   -0.12439   0.02145   0.03876   0.03985   0.04544
  Beta virt. eigenvalues --    0.06263   0.06794   0.07256   0.07257   0.11403
  Beta virt. eigenvalues --    0.17118   0.18248   0.18319   0.23020   0.30325

 Mulliken charges and spin densities:
               1          2
     1  C   -0.507665   0.000002
     2  P   -0.048024  -0.000002
     3  H   -0.002179   0.000000
     4  H    0.187438  -0.000000
     5  H   -0.002179   0.000000
     6  H    0.187423  -0.000000
     7  H    0.185186  -0.000000
 Sum of Mulliken charges =  -0.00000  -0.00000

 Dipole moment (field-independent basis, Debye):
    X=             -1.5218    Y=             -0.5699    Z=              0.6136  Tot=              1.7370
 Quadrupole moment (field-independent basis, Debye-Ang):
   XX=            -22.2553   YY=            -22.4045   ZZ=            -22.5086
   XY=             -1.2515   XZ=              1.3473   YZ=              0.7030

 Normal termination of Gaussian 16 at Mon Apr 21 19:08:02 2025.
