 Gaussian 16, Revision A.03,
 Gaussian 16:  ES64L-G16RevA.03 25-Dec-2016

 --------------------------------------------
 #p opt UM062X/6-311+G** nosymm int=superfine
 --------------------------------------------

 -------------------
 Title Card Required
 -------------------
 Symbolic Z-matrix:
 Charge =  0 Multiplicity = 1

 SCF Done:  E(UM062X) =  -438.459549338     A.U. after   14 cycles
 SCF Done:  E(UM062X) =  -438.473292781     A.U. after   13 cycles
 SCF Done:  E(UM062X) =  -438.480786045     A.U. after   13 cycles
 SCF Done:  E(UM062X) =  -438.480853432     A.U. after   11 cycles
 SCF Done:  E(UM062X) =  -438.480859774     A.U. after    8 cycles
 SCF Done:  E(UM062X) =  -438.480875424     A.U. after   15 cycles
 SCF Done:  E(UM062X) =  -438.480900777     A.U. after   10 cycles
 SCF Done:  E(UM062X) =  -438.480901419     A.U. after   10 cycles
 SCF Done:  E(UM062X) =  -438.480901605     A.U. after   10 cycles
 SCF Done:  E(UM062X) =  -438.480901640     A.U. after   18 cycles
 SCF Done:  E(UM062X) =  -438.480902511     A.U. after   15 cycles
 SCF Done:  E(UM062X) =  -438.480902923     A.U. after   17 cycles
 SCF Done:  E(UM062X) =  -438.480902321     A.U. after   14 cycles
 SCF Done:  E(UM062X) =  -438.480895865     A.U. after   15 cycles
 SCF Done:  E(UM062X) =  -438.480902464     A.U. after   15 cycles
 SCF Done:  E(UM062X) =  -438.480902925     A.U. after   10 cycles
 SCF Done:  E(UM062X) =  -438.480902493     A.U. after   16 cycles
 SCF Done:  E(UM062X) =  -438.480902771     A.U. after   14 cycles
 SCF Done:  E(UM062X) =  -438.480903077     A.U. after   14 cycles
 SCF Done:  E(UM062X) =  -438.480903081     A.U. after   12 cycles
 Optimization completed.
    -- Stationary point found.

                          Input orientation:
 ---------------------------------------------------------------------
 Center     Atomic      Atomic             Coordinates (Angstroms)
 Number     Number       Type             X           Y           Z
 ---------------------------------------------------------------------
      1          6           0       -2.335220    0.000000    0.000000
      2         16           0        2.335220    0.000000    0.000000
      3          1           0        2.317750   -1.342988    0.067485
      4          1           0       -2.296360    1.080239    0.019434
      5          1           0       -2.367143   -0.522031   -0.946188
      6          1           0       -2.369423   -0.555606    0.926783
 ---------------------------------------------------------------------

 Alpha  occ. eigenvalues --  -89.87231 -10.65147  -8.23569  -6.15606  -6.15553
 Alpha  occ. eigenvalues --   -6.14998  -0.83739  -0.75210  -0.55798  -0.55744
 Alpha  occ. eigenvalues --   -0.41759  -0.27701  -0.25359
 Alpha virt. eigenvalues --   -0.17818   0.00723   0.03534   0.03764   0.05401
 Alpha virt. eigenvalues --    0.07397   0.08198   0.08391   0.10610   0.13117
 Alpha virt. eigenvalues --    0.15210   0.15246   0.19636   0.35145   0.37882

  Beta  occ. eigenvalues --  -89.87231 -10.65147  -8.23569  -6.15606  -6.15553
  Beta  occ. eigenvalues --   -6.14998  -0.83739  -0.75210  -0.55798  -0.55744
  Beta  occ. eigenvalues --   -0.41759  -0.27701  -0.25359
  Beta virt. eigenvalues --   -0.17818   0.00723   0.03534   0.03764   0.05401
  Beta virt. eigenvalues --    0.07397   0.08198   0.08391   0.10610   0.13117
  Beta virt. eigenvalues --    0.15210   0.15246   0.19636   0.35145   0.37882

 Mulliken charges and spin densities:
               1          2
     1  C   -0.358311   0.000000
     2  S   -0.298746  -0.000000
     3  H    0.050221   0.000000
     4  H    0.204105  -0.000000
     5  H    0.201528  -0.000000
     6  H    0.201203   0.000000
 Sum of Mulliken charges =  -0.00000  -0.00000

 Dipole moment (field-independent basis, Debye):
    X=             -5.8686    Y=             -0.9608    Z=              0.0486  Tot=              5.9470
 Quadrupole moment (field-independent basis, Debye-Ang):
   XX=            -21.2137   YY=            -19.6245   ZZ=            -23.6554
   XY=             -2.2708   XZ=              0.1181   YZ=             -0.2030

 Normal termination of Gaussian 16 at Mon Apr 21 19:43:52 2025.
