 Gaussian 16, Revision A.03,
 Gaussian 16:  ES64L-G16RevA.03 25-Dec-2016

 --------------------------------------------
 #p opt UM062X/6-311+G** nosymm int=superfine
 --------------------------------------------

 -------------------
 Title Card Required
 -------------------
 Symbolic Z-matrix:
 Charge =  0 Multiplicity = 1

 SCF Done:  E(UM062X) =  -111.747730210     A.U. after   13 cycles
 SCF Done:  E(UM062X) =  -111.766220040     A.U. after   14 cycles
 SCF Done:  E(UM062X) =  -111.771546064     A.U. after   13 cycles
 SCF Done:  E(UM062X) =  -111.772467110     A.U. after   11 cycles
 SCF Done:  E(UM062X) =  -111.773756147     A.U. after   13 cycles
 SCF Done:  E(UM062X) =  -111.773954963     A.U. after   11 cycles
 SCF Done:  E(UM062X) =  -111.774029879     A.U. after   10 cycles
 SCF Done:  E(UM062X) =  -111.774030241     A.U. after    8 cycles
 SCF Done:  E(UM062X) =  -111.774030261     A.U. after    7 cycles
 Optimization completed.
    -- Stationary point found.

                          Input orientation:
 ---------------------------------------------------------------------
 Center     Atomic      Atomic             Coordinates (Angstroms)
 Number     Number       Type             X           Y           Z
 ---------------------------------------------------------------------
      1          7           0       -1.036540    0.000000    0.000000
      2          7           0        1.036540    0.000000    0.000000
      3          1           0       -1.079239   -0.818930   -0.612431
      4          1           0        1.079256    0.414450   -0.934856
      5          1           0       -1.079220   -0.413746    0.935169
      6          1           0        1.079204    0.818466    0.613056
 ---------------------------------------------------------------------

 Alpha  occ. eigenvalues --  -14.78903 -14.78897  -0.97265  -0.90771  -0.56007
 Alpha  occ. eigenvalues --   -0.52000  -0.41587  -0.40355  -0.34057
 Alpha virt. eigenvalues --   -0.04841   0.04535   0.07881   0.08849   0.11792
 Alpha virt. eigenvalues --    0.13467   0.13473   0.15493   0.16047   0.21255
 Alpha virt. eigenvalues --    0.22579   0.27205   0.27921   0.51461   0.52204

  Beta  occ. eigenvalues --  -14.78903 -14.78897  -0.97265  -0.90771  -0.56007
  Beta  occ. eigenvalues --   -0.52000  -0.41587  -0.40355  -0.34057
  Beta virt. eigenvalues --   -0.04841   0.04535   0.07881   0.08849   0.11792
  Beta virt. eigenvalues --    0.13467   0.13473   0.15493   0.16047   0.21255
  Beta virt. eigenvalues --    0.22579   0.27205   0.27921   0.51461   0.52204

 Mulliken charges and spin densities:
               1          2
     1  N   -0.520533   0.000000
     2  N   -0.520532  -0.000000
     3  H    0.260288   0.000000
     4  H    0.260289   0.000000
     5  H    0.260244   0.000000
     6  H    0.260244   0.000000
 Sum of Mulliken charges =  -0.00000  -0.00000

 Dipole moment (field-independent basis, Debye):
    X=              0.0000    Y=              0.0003    Z=              0.0014  Tot=              0.0014
 Quadrupole moment (field-independent basis, Debye-Ang):
   XX=            -15.3562   YY=            -13.9839   ZZ=            -11.2222
   XY=              4.9563   XZ=             -1.2957   YZ=              0.7749

 Normal termination of Gaussian 16 at Thu May 15 14:29:50 2025.
