 Gaussian 16, Revision A.03,
 Gaussian 16:  ES64L-G16RevA.03 25-Dec-2016

 --------------------------------------------
 #p opt UM062X/6-311+G** nosymm int=superfine
 --------------------------------------------

 -------------------
 Title Card Required
 -------------------
 Symbolic Z-matrix:
 Charge =  0 Multiplicity = 1

 SCF Done:  E(UM062X) =  -797.555377210     A.U. after   10 cycles
 SCF Done:  E(UM062X) =  -797.555361694     A.U. after   10 cycles
 SCF Done:  E(UM062X) =  -797.555207006     A.U. after   10 cycles
 SCF Done:  E(UM062X) =  -797.555198665     A.U. after   10 cycles
 SCF Done:  E(UM062X) =  -797.555391828     A.U. after    8 cycles
 SCF Done:  E(UM062X) =  -797.555415049     A.U. after   10 cycles
 Optimization completed.
    -- Stationary point found.

                          Input orientation:
 ---------------------------------------------------------------------
 Center     Atomic      Atomic             Coordinates (Angstroms)
 Number     Number       Type             X           Y           Z
 ---------------------------------------------------------------------
      1         16           0       -1.068191    0.000000    0.000000
      2         16           0        1.068191    0.000000    0.000000
      3          1           0       -1.232454   -1.333658    0.001396
      4          1           0        1.232456    0.029762    1.333319
 ---------------------------------------------------------------------

 Alpha  occ. eigenvalues --  -89.92910 -89.92909  -8.29349  -8.29344  -6.21514
 Alpha  occ. eigenvalues --   -6.21498  -6.21230  -6.21228  -6.20759  -6.20758
 Alpha  occ. eigenvalues --   -0.89318  -0.76348  -0.51364  -0.47323  -0.41307
 Alpha  occ. eigenvalues --   -0.32542  -0.32492
 Alpha virt. eigenvalues --   -0.02985   0.01501   0.03552   0.04931   0.05140
 Alpha virt. eigenvalues --    0.05945   0.07753   0.07819   0.07917   0.12763
 Alpha virt. eigenvalues --    0.13858   0.29207   0.32273   0.33138   0.33536

  Beta  occ. eigenvalues --  -89.92910 -89.92909  -8.29349  -8.29344  -6.21514
  Beta  occ. eigenvalues --   -6.21498  -6.21230  -6.21228  -6.20759  -6.20758
  Beta  occ. eigenvalues --   -0.89318  -0.76348  -0.51364  -0.47323  -0.41307
  Beta  occ. eigenvalues --   -0.32542  -0.32492
  Beta virt. eigenvalues --   -0.02985   0.01501   0.03552   0.04931   0.05140
  Beta virt. eigenvalues --    0.05945   0.07753   0.07819   0.07917   0.12763
  Beta virt. eigenvalues --    0.13858   0.29207   0.32273   0.33138   0.33536

 Mulliken charges and spin densities:
               1          2
     1  S   -0.085888  -0.000000
     2  S   -0.085889   0.000000
     3  H    0.085888   0.000000
     4  H    0.085889  -0.000000
 Sum of Mulliken charges =  -0.00000  -0.00000

 Dipole moment (field-independent basis, Debye):
    X=              0.0000    Y=             -1.0600    Z=              1.0850  Tot=              1.5168
 Quadrupole moment (field-independent basis, Debye-Ang):
   XX=            -26.8479   YY=            -27.2522   ZZ=            -27.2566
   XY=              1.8134   XZ=              1.7716   YZ=              0.0922

 Normal termination of Gaussian 16 at Mon Apr 21 21:14:25 2025.
