 Gaussian 16, Revision A.03,
 Gaussian 16:  ES64L-G16RevA.03 25-Dec-2016

 ---------------------------------------
 #p UM062X/6-311+G** force int=superfine
 ---------------------------------------

 -------------------
 Title Card Required
 -------------------
 Symbolic Z-matrix:
 Charge =  1 Multiplicity = 2

                         Standard orientation:
 ---------------------------------------------------------------------
 Center     Atomic      Atomic             Coordinates (Angstroms)
 Number     Number       Type             X           Y           Z
 ---------------------------------------------------------------------
      1          6           0       -0.000000    0.466549    0.000000
      2          6           0       -0.000000   -0.466549    0.000000
      3          1           0       -0.809463    1.260777    0.000000
      4          1           0        0.817132    1.254872    0.000000
      5          1           0        0.809463   -1.260777    0.000000
      6          1           0       -0.817132   -1.254872    0.000000
 ---------------------------------------------------------------------

 SCF Done:  E(UM062X) =  -77.7871299870     A.U. after    9 cycles

 The electronic state is 2-AG.
 Alpha  occ. eigenvalues --  -10.81181 -10.78814  -1.25204  -0.96563  -0.88209
 Alpha  occ. eigenvalues --   -0.88179  -0.73865  -0.63836
 Alpha virt. eigenvalues --   -0.17849  -0.15278  -0.14831  -0.13777  -0.10912
 Alpha virt. eigenvalues --   -0.08943  -0.07524  -0.06556  -0.02361  -0.01606
 Alpha virt. eigenvalues --   -0.00005   0.02863   0.14572   0.18494   0.18558

  Beta  occ. eigenvalues --  -10.81219 -10.78830  -1.24347  -0.91793  -0.85159
  Beta  occ. eigenvalues --   -0.83671  -0.73643
  Beta virt. eigenvalues --   -0.43094  -0.16406  -0.15127  -0.14694  -0.13472
  Beta virt. eigenvalues --   -0.10683  -0.08820  -0.04939  -0.04226  -0.02106
  Beta virt. eigenvalues --   -0.00637   0.00516   0.03686   0.14358   0.18168

 Mulliken charges and spin densities:
               1          2
     1  C   -0.147925   0.098742
     2  C   -0.147925   0.098742
     3  H    0.323858   0.199116
     4  H    0.324067   0.202142
     5  H    0.323858   0.199116
     6  H    0.324067   0.202142
 Sum of Mulliken charges =   1.00000   1.00000

 Dipole moment (field-independent basis, Debye):
    X=             -0.0000    Y=             -0.0000    Z=              0.0000  Tot=              0.0000
 Quadrupole moment (field-independent basis, Debye-Ang):
   XX=             -7.4907   YY=             -2.5907   ZZ=            -12.1420
   XY=              0.0190   XZ=              0.0000   YZ=              0.0000

 Normal termination of Gaussian 16 at Tue Nov 19 11:52:11 2024.
