 Gaussian 16, Revision A.03,
 Gaussian 16:  ES64L-G16RevA.03 25-Dec-2016

 ---------------------------------------
 #p UM062X/6-311+G** force int=superfine
 ---------------------------------------

 -------------------
 Title Card Required
 -------------------
 Symbolic Z-matrix:
 Charge =  0 Multiplicity = 1

                         Standard orientation:
 ---------------------------------------------------------------------
 Center     Atomic      Atomic             Coordinates (Angstroms)
 Number     Number       Type             X           Y           Z
 ---------------------------------------------------------------------
      1          6           0       -0.000000    0.510411    0.000000
      2          6           0       -0.000000   -0.510411    0.000000
      3          1           0       -0.891292    1.145380    0.000000
      4          1           0        0.891383    1.145337    0.000000
      5          1           0        0.891292   -1.145380    0.000000
      6          1           0       -0.891383   -1.145337    0.000000
 ---------------------------------------------------------------------

 SCF Done:  E(UM062X) =  -78.3685964174     A.U. after    9 cycles

 The electronic state is 1-AG.
 Alpha  occ. eigenvalues --  -10.49381 -10.48266  -0.93677  -0.63159  -0.57668
 Alpha  occ. eigenvalues --   -0.52628  -0.41005  -0.35375
 Alpha virt. eigenvalues --    0.03327   0.04259   0.04448   0.06765   0.06803
 Alpha virt. eigenvalues --    0.08768   0.09820   0.16117   0.18147   0.18182
 Alpha virt. eigenvalues --    0.18393   0.24766   0.34104   0.41327   0.43289

  Beta  occ. eigenvalues --  -10.49381 -10.48266  -0.93677  -0.63159  -0.57668
  Beta  occ. eigenvalues --   -0.52628  -0.41005  -0.35375
  Beta virt. eigenvalues --    0.03327   0.04259   0.04448   0.06765   0.06803
  Beta virt. eigenvalues --    0.08768   0.09820   0.16117   0.18147   0.18182
  Beta virt. eigenvalues --    0.18393   0.24766   0.34104   0.41327   0.43289

 Mulliken charges and spin densities:
               1          2
     1  C   -0.259793   0.000000
     2  C   -0.259793   0.000000
     3  H    0.129903  -0.000000
     4  H    0.129890  -0.000000
     5  H    0.129903  -0.000000
     6  H    0.129890  -0.000000
 Sum of Mulliken charges =  -0.00000  -0.00000

 Dipole moment (field-independent basis, Debye):
    X=             -0.0000    Y=              0.0000    Z=              0.0000  Tot=              0.0000
 Quadrupole moment (field-independent basis, Debye-Ang):
   XX=            -12.3750   YY=            -12.5031   ZZ=            -14.4557
   XY=             -0.0002   XZ=              0.0000   YZ=              0.0000

 Normal termination of Gaussian 16 at Tue Nov 19 11:41:42 2024.
