 Gaussian 16, Revision A.03,
 Gaussian 16:  ES64L-G16RevA.03 25-Dec-2016

 --------------------------------------------
 #p opt UM062X/6-311+G** nosymm int=superfine
 --------------------------------------------

 -------------------
 Title Card Required
 -------------------
 Symbolic Z-matrix:
 Charge =  0 Multiplicity = 1

 SCF Done:  E(UM062X) =  -83.1198495098     A.U. after   10 cycles
 SCF Done:  E(UM062X) =  -83.1358914371     A.U. after    9 cycles
 SCF Done:  E(UM062X) =  -83.1396354871     A.U. after    8 cycles
 SCF Done:  E(UM062X) =  -83.1396667851     A.U. after    7 cycles
 Optimization completed.
    -- Stationary point found.

                          Input orientation:
 ---------------------------------------------------------------------
 Center     Atomic      Atomic             Coordinates (Angstroms)
 Number     Number       Type             X           Y           Z
 ---------------------------------------------------------------------
      1          5           0       -2.177429    0.000000    0.000000
      2          7           0        2.177429    0.000000    0.000000
      3          1           0        2.542024   -0.945072    0.000002
      4          1           0       -2.185743   -0.593884    1.028607
      5          1           0        2.541919    0.472585   -0.818478
      6          1           0        2.541906    0.472584    0.818485
      7          1           0       -2.185736    1.187740    0.000014
      8          1           0       -2.185760   -0.593863   -1.028618
 ---------------------------------------------------------------------

 Alpha  occ. eigenvalues --  -14.72677  -7.04527  -0.95980  -0.57796  -0.53811
 Alpha  occ. eigenvalues --   -0.53811  -0.40197  -0.40197  -0.34015
 Alpha virt. eigenvalues --   -0.02468   0.02709   0.04731   0.04731   0.04825
 Alpha virt. eigenvalues --    0.08551   0.10567   0.10567   0.16625   0.18073
 Alpha virt. eigenvalues --    0.18074   0.18905   0.18905   0.21714   0.27407

  Beta  occ. eigenvalues --  -14.72677  -7.04527  -0.95980  -0.57796  -0.53811
  Beta  occ. eigenvalues --   -0.53811  -0.40197  -0.40197  -0.34015
  Beta virt. eigenvalues --   -0.02468   0.02709   0.04731   0.04731   0.04825
  Beta virt. eigenvalues --    0.08551   0.10567   0.10567   0.16625   0.18073
  Beta virt. eigenvalues --    0.18074   0.18905   0.18905   0.21714   0.27407

 Mulliken charges and spin densities:
               1          2
     1  B    0.024218   0.000000
     2  N   -0.730772   0.000000
     3  H    0.244197   0.000000
     4  H   -0.008683  -0.000000
     5  H    0.244195  -0.000000
     6  H    0.244195   0.000000
     7  H   -0.008668  -0.000000
     8  H   -0.008683   0.000000
 Sum of Mulliken charges =  -0.00000   0.00000

 Dipole moment (field-independent basis, Debye):
    X=              1.8722    Y=              0.0002    Z=              0.0000  Tot=              1.8722
 Quadrupole moment (field-independent basis, Debye-Ang):
   XX=             -9.1243   YY=            -15.6167   ZZ=            -15.6168
   XY=              0.0000   XZ=             -0.0000   YZ=              0.0000

 Normal termination of Gaussian 16 at Mon Apr 21 17:40:35 2025.
