 Gaussian 16, Revision A.03,
 Gaussian 16:  ES64L-G16RevA.03 25-Dec-2016

 --------------------------------------------
 #p opt UM062X/6-311+G** nosymm int=superfine
 --------------------------------------------

 -------------------
 Title Card Required
 -------------------
 Symbolic Z-matrix:
 Charge =  0 Multiplicity = 1

 SCF Done:  E(UM062X) =  -110.145799774     A.U. after   12 cycles
 SCF Done:  E(UM062X) =  -110.146322498     A.U. after   14 cycles
 SCF Done:  E(UM062X) =  -110.147764422     A.U. after   18 cycles
 SCF Done:  E(UM062X) =  -110.148932902     A.U. after   20 cycles
 SCF Done:  E(UM062X) =  -110.149198520     A.U. after   17 cycles
 SCF Done:  E(UM062X) =  -110.427705046     A.U. after   52 cycles
 SCF Done:  E(UM062X) =  -110.427726025     A.U. after   13 cycles
 SCF Done:  E(UM062X) =  -110.427726683     A.U. after    9 cycles
 SCF Done:  E(UM062X) =  -110.427726748     A.U. after    8 cycles
 SCF Done:  E(UM062X) =  -110.427726753     A.U. after    8 cycles
 Optimization completed.
    -- Stationary point found.

                          Input orientation:
 ---------------------------------------------------------------------
 Center     Atomic      Atomic             Coordinates (Angstroms)
 Number     Number       Type             X           Y           Z
 ---------------------------------------------------------------------
      1          7           0       -2.065428    0.000000    0.000000
      2          7           0        2.065428    0.000000    0.000000
      3          1           0       -1.865114   -1.018471    0.000000
      4          1           0        1.865114    1.018471    0.000000
 ---------------------------------------------------------------------

 Alpha  occ. eigenvalues --  -14.81902 -14.79408  -0.95293  -0.82505  -0.48614
 Alpha  occ. eigenvalues --   -0.42630  -0.41508  -0.41506
 Alpha virt. eigenvalues --   -0.06679  -0.06673   0.03677   0.07321   0.11104
 Alpha virt. eigenvalues --    0.11763   0.13544   0.14587   0.15826   0.17889
 Alpha virt. eigenvalues --    0.19375   0.23073   0.55076   0.56456   0.75658

  Beta  occ. eigenvalues --  -14.81902 -14.79408  -0.95293  -0.82505  -0.48614
  Beta  occ. eigenvalues --   -0.42630  -0.41508  -0.41506
  Beta virt. eigenvalues --   -0.06679  -0.06673   0.03677   0.07321   0.11104
  Beta virt. eigenvalues --    0.11763   0.13544   0.14587   0.15826   0.17889
  Beta virt. eigenvalues --    0.19375   0.23073   0.55076   0.56456   0.75658

 Mulliken charges and spin densities:
               1          2
     1  N   -0.199874   2.056060
     2  N   -0.199874  -2.056060
     3  H    0.199874  -0.061307
     4  H    0.199874   0.061307
 Sum of Mulliken charges =   0.00000  -0.00000

 Dipole moment (field-independent basis, Debye):
    X=             -0.0000    Y=             -0.0000    Z=              0.0000  Tot=              0.0000
 Quadrupole moment (field-independent basis, Debye-Ang):
   XX=            -15.3514   YY=            -11.2364   ZZ=            -12.8299
   XY=              6.7456   XZ=             -0.0000   YZ=             -0.0000

 Normal termination of Gaussian 16 at Thu May 15 15:49:20 2025.
