 Gaussian 16, Revision A.03,
 Gaussian 16:  ES64L-G16RevA.03 25-Dec-2016

 --------------------------------------------
 #p opt UM062X/6-311+G** nosymm int=superfine
 --------------------------------------------

 -------------------
 Title Card Required
 -------------------
 Symbolic Z-matrix:
 Charge =  0 Multiplicity = 1

 SCF Done:  E(UM062X) =  -93.3740589714     A.U. after   10 cycles
 SCF Done:  E(UM062X) =  -93.3740802065     A.U. after    7 cycles
 Optimization completed.
    -- Stationary point found.

                          Input orientation:
 ---------------------------------------------------------------------
 Center     Atomic      Atomic             Coordinates (Angstroms)
 Number     Number       Type             X           Y           Z
 ---------------------------------------------------------------------
      1          6           0       -0.647395    0.000000    0.000000
      2          7           0        0.647395    0.000000    0.000000
      3          1           0       -1.720895   -0.000000    0.000000
 ---------------------------------------------------------------------

 Alpha  occ. eigenvalues --  -14.82155 -10.63820  -0.98452  -0.70379  -0.47567
 Alpha  occ. eigenvalues --   -0.40482  -0.40482
 Alpha virt. eigenvalues --   -0.00241  -0.00241   0.01704   0.03475   0.07268
 Alpha virt. eigenvalues --    0.07268   0.12932   0.17772   0.18634   0.18634
 Alpha virt. eigenvalues --    0.25581   0.37715   0.55929   0.55929   0.61752

  Beta  occ. eigenvalues --  -14.82155 -10.63820  -0.98452  -0.70379  -0.47567
  Beta  occ. eigenvalues --   -0.40482  -0.40482
  Beta virt. eigenvalues --   -0.00241  -0.00241   0.01704   0.03475   0.07268
  Beta virt. eigenvalues --    0.07268   0.12932   0.17772   0.18634   0.18634
  Beta virt. eigenvalues --    0.25581   0.37715   0.55929   0.55929   0.61752

 Mulliken charges and spin densities:
               1          2
     1  C   -0.060866   0.000000
     2  N   -0.161725  -0.000000
     3  H    0.222592   0.000000
 Sum of Mulliken charges =  -0.00000   0.00000

 Dipole moment (field-independent basis, Debye):
    X=             -3.0903    Y=             -0.0000    Z=              0.0000  Tot=              3.0903
 Quadrupole moment (field-independent basis, Debye-Ang):
   XX=             -9.1016   YY=            -12.3923   ZZ=            -12.3923
   XY=              0.0000   XZ=              0.0000   YZ=             -0.0000

 Normal termination of Gaussian 16 at Mon Apr 21 18:35:11 2025.
