 Gaussian 16, Revision A.03,
 Gaussian 16:  ES64L-G16RevA.03 25-Dec-2016

 --------------------------------------------
 #p opt UM062X/6-311+G** nosymm int=superfine
 --------------------------------------------

 -------------------
 Title Card Required
 -------------------
 Symbolic Z-matrix:
 Charge =  0 Multiplicity = 1

 SCF Done:  E(UM062X) =  -474.367416245     A.U. after   22 cycles
 SCF Done:  E(UM062X) =  -474.368101938     A.U. after   24 cycles
 SCF Done:  E(UM062X) =  -474.369426163     A.U. after   29 cycles
 SCF Done:  E(UM062X) =  -474.370068762     A.U. after   28 cycles
 SCF Done:  E(UM062X) =  -474.370262408     A.U. after   24 cycles
 SCF Done:  E(UM062X) =  -474.370325035     A.U. after   20 cycles
 SCF Done:  E(UM062X) =  -474.370338124     A.U. after   28 cycles
 SCF Done:  E(UM062X) =  -474.370339313     A.U. after   27 cycles
 SCF Done:  E(UM062X) =  -474.370341586     A.U. after   22 cycles
 SCF Done:  E(UM062X) =  -474.370342019     A.U. after   17 cycles
 SCF Done:  E(UM062X) =  -474.370342801     A.U. after   21 cycles
 SCF Done:  E(UM062X) =  -474.370343232     A.U. after   11 cycles
 SCF Done:  E(UM062X) =  -474.370343589     A.U. after   19 cycles
 Optimization completed.
    -- Stationary point found.

                          Input orientation:
 ---------------------------------------------------------------------
 Center     Atomic      Atomic             Coordinates (Angstroms)
 Number     Number       Type             X           Y           Z
 ---------------------------------------------------------------------
      1          8           0       -1.789392    0.000000    0.000000
      2         16           0        1.789392    0.000000    0.000000
      3          1           0       -1.757277   -0.711307   -0.658967
      4          1           0        1.532687    0.790906    1.059847
 ---------------------------------------------------------------------

 Alpha  occ. eigenvalues --  -89.97832 -19.67197  -8.34002  -6.26212  -6.25848
 Alpha  occ. eigenvalues --   -6.25280  -1.08415  -0.83888  -0.52505  -0.49754
 Alpha  occ. eigenvalues --   -0.39727  -0.35796  -0.33744
 Alpha virt. eigenvalues --   -0.22834   0.01583   0.03857   0.04703   0.05389
 Alpha virt. eigenvalues --    0.06809   0.13237   0.19227   0.19852   0.21089
 Alpha virt. eigenvalues --    0.25111   0.30785   0.33972   0.34522   0.39014

  Beta  occ. eigenvalues --  -89.97832 -19.67197  -8.34002  -6.26212  -6.25848
  Beta  occ. eigenvalues --   -6.25280  -1.08415  -0.83888  -0.52505  -0.49754
  Beta  occ. eigenvalues --   -0.39727  -0.35796  -0.33744
  Beta virt. eigenvalues --   -0.22834   0.01583   0.03857   0.04703   0.05389
  Beta virt. eigenvalues --    0.06809   0.13237   0.19227   0.19852   0.21089
  Beta virt. eigenvalues --    0.25111   0.30785   0.33972   0.34522   0.39014

 Mulliken charges and spin densities:
               1          2
     1  O   -0.391117  -0.000000
     2  S    0.036200   0.000000
     3  H    0.245367   0.000000
     4  H    0.109550   0.000000
 Sum of Mulliken charges =   0.00000  -0.00000

 Dipole moment (field-independent basis, Debye):
    X=              2.3347    Y=             -0.5773    Z=             -0.2378  Tot=              2.4168
 Quadrupole moment (field-independent basis, Debye-Ang):
   XX=            -18.5529   YY=            -19.9265   ZZ=            -18.9434
   XY=              3.5972   XZ=              3.8398   YZ=              3.2179

 Normal termination of Gaussian 16 at Thu May 15 13:25:07 2025.
