 Gaussian 16, Revision A.03,
 Gaussian 16:  ES64L-G16RevA.03 25-Dec-2016

 --------------------------------------------
 #p opt UM062X/6-311+G** nosymm int=superfine
 --------------------------------------------

 -------------------
 Title Card Required
 -------------------
 Symbolic Z-matrix:
 Charge =  0 Multiplicity = 3

 SCF Done:  E(UM062X) =  -50.6658889615     A.U. after   10 cycles
 SCF Done:  E(UM062X) =  -50.6658942372     A.U. after    7 cycles
 Optimization completed.
    -- Stationary point found.

                          Input orientation:
 ---------------------------------------------------------------------
 Center     Atomic      Atomic             Coordinates (Angstroms)
 Number     Number       Type             X           Y           Z
 ---------------------------------------------------------------------
      1          5           0       -1.003410    0.000000    0.000000
      2          5           0        1.003410    0.000000    0.000000
      3          1           0       -2.178340   -0.000080    0.000000
      4          1           0        2.178340    0.000080   -0.000000
 ---------------------------------------------------------------------

 Alpha  occ. eigenvalues --   -7.12443  -7.12418  -0.58946  -0.54723  -0.41509
 Alpha  occ. eigenvalues --   -0.24145  -0.24145
 Alpha virt. eigenvalues --   -0.03114  -0.03114   0.01414   0.02480   0.04299
 Alpha virt. eigenvalues --    0.06086   0.06086   0.07311   0.07832   0.07832
 Alpha virt. eigenvalues --    0.13751   0.22173   0.26805   0.37244   0.39494

  Beta  occ. eigenvalues --   -7.12198  -7.12176  -0.54735  -0.52837  -0.39766
  Beta virt. eigenvalues --   -0.06530  -0.06530   0.00820   0.00888   0.00888
  Beta virt. eigenvalues --    0.02957   0.05381   0.06582   0.09151   0.09151
  Beta virt. eigenvalues --    0.12249   0.12249   0.14448   0.23332   0.29988

 Mulliken charges and spin densities:
               1          2
     1  B   -0.098940   1.034510
     2  B   -0.098940   1.034510
     3  H    0.098940  -0.034510
     4  H    0.098940  -0.034510
 Sum of Mulliken charges =  -0.00000   2.00000

 Dipole moment (field-independent basis, Debye):
    X=             -0.0000    Y=             -0.0000    Z=              0.0000  Tot=              0.0000
 Quadrupole moment (field-independent basis, Debye-Ang):
   XX=            -11.2507   YY=            -15.6899   ZZ=            -15.6899
   XY=              0.0001   XZ=             -0.0000   YZ=             -0.0000

 1\1\GINC-NODE06\FOpt\UM062X\6-311+G(d,p)\B2H2(3)\SZHAO\21-Apr-2025\0\\
 #p opt UM062X/6-311+G** nosymm int=superfine\\Title Card Required\\0,3
 \B,-1.00341047,0.,0.\B,1.00341047,0.,0.\H,-2.1783400592,-0.0000804069,
 0.\H,2.1783400592,0.0000804069,0.\\Version=ES64L-G16RevA.03\HF=-50.665
 8942\S2=2.007629\S2-1=0.\S2A=2.000019\RMSD=4.949e-09\RMSF=1.489e-05\Di
 pole=0.,0.,0.\Quadrupole=2.2002708,-1.1001354,-1.1001354,0.0000985,0.,
 0.\PG=C*V [C*(H1B1B1H1)]\\@

 Normal termination of Gaussian 16 at Mon Apr 21 17:27:39 2025.
