 Gaussian 16, Revision A.03,
 Gaussian 16:  ES64L-G16RevA.03 25-Dec-2016

 --------------------------------------------
 #p opt UM062X/6-311+G** nosymm int=superfine
 --------------------------------------------

 -------------------
 Title Card Required
 -------------------
 Symbolic Z-matrix:
 Charge =  0 Multiplicity = 1

 SCF Done:  E(UM062X) =  -437.294144320     A.U. after   12 cycles
 SCF Done:  E(UM062X) =  -437.295326257     A.U. after   10 cycles
 SCF Done:  E(UM062X) =  -437.295832590     A.U. after   12 cycles
 SCF Done:  E(UM062X) =  -437.295675710     A.U. after   11 cycles
 SCF Done:  E(UM062X) =  -437.295835492     A.U. after    8 cycles
 Optimization completed.
    -- Stationary point found.

                          Input orientation:
 ---------------------------------------------------------------------
 Center     Atomic      Atomic             Coordinates (Angstroms)
 Number     Number       Type             X           Y           Z
 ---------------------------------------------------------------------
      1          6           0       -1.152140    0.000000    0.000000
      2         16           0        1.152140    0.000000    0.000000
      3          1           0       -1.640266   -0.966934    0.000115
      4          1           0       -1.640478    0.966827   -0.000188
 ---------------------------------------------------------------------

 Alpha  occ. eigenvalues --  -89.92560 -10.68330  -8.28294  -6.20456  -6.20158
 Alpha  occ. eigenvalues --   -6.19616  -0.81266  -0.72191  -0.56419  -0.39187
 Alpha  occ. eigenvalues --   -0.30757  -0.29892
 Alpha virt. eigenvalues --   -0.13413  -0.05334   0.02075   0.04984   0.06060
 Alpha virt. eigenvalues --    0.06469   0.08379   0.08476   0.09395   0.14118
 Alpha virt. eigenvalues --    0.16167   0.20157   0.35226   0.36087   0.37000

  Beta  occ. eigenvalues --  -89.92560 -10.68330  -8.28294  -6.20456  -6.20158
  Beta  occ. eigenvalues --   -6.19616  -0.81266  -0.72191  -0.56419  -0.39187
  Beta  occ. eigenvalues --   -0.30757  -0.29892
  Beta virt. eigenvalues --   -0.13413  -0.05334   0.02075   0.04984   0.06060
  Beta virt. eigenvalues --    0.06469   0.08379   0.08476   0.09395   0.14118
  Beta virt. eigenvalues --    0.16167   0.20157   0.35226   0.36087   0.37000

 Mulliken charges and spin densities:
               1          2
     1  C   -0.322841  -0.000000
     2  S   -0.100755   0.000000
     3  H    0.211799   0.000000
     4  H    0.211797   0.000000
 Sum of Mulliken charges =  -0.00000   0.00000

 Dipole moment (field-independent basis, Debye):
    X=             -3.0786    Y=             -0.0001    Z=             -0.0001  Tot=              3.0786
 Quadrupole moment (field-independent basis, Debye-Ang):
   XX=            -16.2955   YY=            -21.1745   ZZ=            -21.8037
   XY=             -0.0002   XZ=              0.0000   YZ=             -0.0001

 Normal termination of Gaussian 16 at Mon Apr 21 19:42:33 2025.
