 Gaussian 16, Revision A.03,
 Gaussian 16:  ES64L-G16RevA.03 25-Dec-2016

 --------------------------------------------
 #p opt UM062X/6-311+G** nosymm int=superfine
 --------------------------------------------

 -------------------
 Title Card Required
 -------------------
 Symbolic Z-matrix:
 Charge =  0 Multiplicity = 1

 SCF Done:  E(UM062X) =  -151.508987638     A.U. after   13 cycles
 SCF Done:  E(UM062X) =  -151.511638612     A.U. after   14 cycles
 SCF Done:  E(UM062X) =  -151.511809584     A.U. after   13 cycles
 SCF Done:  E(UM062X) =  -151.511865088     A.U. after   13 cycles
 SCF Done:  E(UM062X) =  -151.511865486     A.U. after   10 cycles
 SCF Done:  E(UM062X) =  -151.511865498     A.U. after    9 cycles
 Optimization completed.
    -- Stationary point found.

                          Input orientation:
 ---------------------------------------------------------------------
 Center     Atomic      Atomic             Coordinates (Angstroms)
 Number     Number       Type             X           Y           Z
 ---------------------------------------------------------------------
      1          8           0       -0.836938    0.000000    0.000000
      2          8           0        0.836938    0.000000    0.000000
      3          1           0       -0.908548   -0.938652   -0.221688
      4          1           0        0.908511    0.567847    0.779594
 ---------------------------------------------------------------------

 Alpha  occ. eigenvalues --  -19.70626 -19.70616  -1.19965  -1.06024  -0.58831
 Alpha  occ. eigenvalues --   -0.56601  -0.48591  -0.45038  -0.39176
 Alpha virt. eigenvalues --   -0.05014   0.05781   0.10337   0.15432   0.16400
 Alpha virt. eigenvalues --    0.18037   0.20412   0.21293   0.22136   0.26071
 Alpha virt. eigenvalues --    0.33362   0.49819   0.53144   0.95341   0.99611

  Beta  occ. eigenvalues --  -19.70626 -19.70616  -1.19965  -1.06024  -0.58831
  Beta  occ. eigenvalues --   -0.56601  -0.48591  -0.45038  -0.39176
  Beta virt. eigenvalues --   -0.05014   0.05781   0.10337   0.15432   0.16400
  Beta virt. eigenvalues --    0.18037   0.20412   0.21293   0.22136   0.26071
  Beta virt. eigenvalues --    0.33362   0.49819   0.53144   0.95341   0.99611

 Mulliken charges and spin densities:
               1          2
     1  O   -0.273657   0.000000
     2  O   -0.273648  -0.000000
     3  H    0.273653  -0.000000
     4  H    0.273652   0.000000
 Sum of Mulliken charges =  -0.00000   0.00000

 Dipole moment (field-independent basis, Debye):
    X=             -0.0000    Y=             -0.6950    Z=              1.0457  Tot=              1.2557
 Quadrupole moment (field-independent basis, Debye-Ang):
   XX=            -11.7874   YY=            -10.0698   ZZ=            -11.5780
   XY=              2.9632   XZ=              1.9694   YZ=              1.7956

 Normal termination of Gaussian 16 at Mon Apr 21 21:34:04 2025.
