 Gaussian 16, Revision A.03,
 Gaussian 16:  ES64L-G16RevA.03 25-Dec-2016

 --------------------------------------------
 #p opt UM062X/6-311+G** nosymm int=superfine
 --------------------------------------------

 -------------------
 Title Card Required
 -------------------
 Symbolic Z-matrix:
 Charge =  0 Multiplicity = 1

 SCF Done:  E(UM062X) =  -151.326691244     A.U. after   21 cycles
 SCF Done:  E(UM062X) =  -151.327970747     A.U. after   28 cycles
 SCF Done:  E(UM062X) =  -151.330635317     A.U. after   28 cycles
 SCF Done:  E(UM062X) =  -151.331316800     A.U. after   21 cycles
 SCF Done:  E(UM062X) =  -151.331470425     A.U. after   24 cycles
 SCF Done:  E(UM062X) =  -151.331487566     A.U. after   17 cycles
 SCF Done:  E(UM062X) =  -151.331489313     A.U. after   17 cycles
 SCF Done:  E(UM062X) =  -151.331489462     A.U. after   18 cycles
 Optimization completed.
    -- Stationary point found.

                          Input orientation:
 ---------------------------------------------------------------------
 Center     Atomic      Atomic             Coordinates (Angstroms)
 Number     Number       Type             X           Y           Z
 ---------------------------------------------------------------------
      1          8           0       -1.586938    0.000000    0.000000
      2          8           0        1.586938    0.000000    0.000000
      3          1           0       -1.387169   -0.772478   -0.558865
      4          1           0        1.387256    0.772122    0.559388
 ---------------------------------------------------------------------

 Alpha  occ. eigenvalues --  -19.72678 -19.72677  -1.13199  -1.12715  -0.56988
 Alpha  occ. eigenvalues --   -0.56610  -0.44427  -0.44010  -0.37625
 Alpha virt. eigenvalues --   -0.25808   0.05203   0.08105   0.14789   0.15024
 Alpha virt. eigenvalues --    0.17656   0.18836   0.20500   0.21194   0.22262
 Alpha virt. eigenvalues --    0.31293   0.48591   0.52386   0.99578   1.00574

  Beta  occ. eigenvalues --  -19.72678 -19.72677  -1.13199  -1.12715  -0.56988
  Beta  occ. eigenvalues --   -0.56610  -0.44427  -0.44010  -0.37625
  Beta virt. eigenvalues --   -0.25808   0.05203   0.08105   0.14789   0.15024
  Beta virt. eigenvalues --    0.17656   0.18836   0.20500   0.21194   0.22262
  Beta virt. eigenvalues --    0.31293   0.48591   0.52386   0.99578   1.00574

 Mulliken charges and spin densities:
               1          2
     1  O   -0.268792   0.000000
     2  O   -0.268801  -0.000000
     3  H    0.268797   0.000000
     4  H    0.268796   0.000000
 Sum of Mulliken charges =  -0.00000   0.00000

 Dipole moment (field-independent basis, Debye):
    X=              0.0001    Y=             -0.0007    Z=              0.0010  Tot=              0.0013
 Quadrupole moment (field-independent basis, Debye-Ang):
   XX=            -13.0082   YY=            -10.4405   ZZ=            -12.0194
   XY=              4.4215   XZ=              3.2011   YZ=              2.4021

 Normal termination of Gaussian 16 at Mon Apr 21 21:37:38 2025.
