 Gaussian 16, Revision A.03,
 Gaussian 16:  ES64L-G16RevA.03 25-Dec-2016

 ---------------------------------------------------
 #p UM062X/6-311+G** force int=superfine pop=saveNBO
 ---------------------------------------------------

 -------------------
 Title Card Required
 -------------------
 Symbolic Z-matrix:
 Charge =  0 Multiplicity = 1

                         Standard orientation:
 ---------------------------------------------------------------------
 Center     Atomic      Atomic             Coordinates (Angstroms)
 Number     Number       Type             X           Y           Z
 ---------------------------------------------------------------------
      1          8           0        0.000000    0.000000   -1.726757
      2         16           0        0.000000    0.000000    0.863379
 ---------------------------------------------------------------------

 SCF Done:  E(UM062X) =  -473.036607618     A.U. after   17 cycles

 Unable to determine electronic state:  an orbital has unidentified symmetry.
 Alpha  occ. eigenvalues --  -90.03827 -19.75321  -8.39356  -6.31475  -6.31310
 Alpha  occ. eigenvalues --   -6.30476  -1.04167  -0.81317  -0.42593  -0.40466
 Alpha  occ. eigenvalues --   -0.37488  -0.36961
 Alpha virt. eigenvalues --   -0.24025  -0.18808   0.02600   0.04650   0.05181
 Alpha virt. eigenvalues --    0.05649   0.18020   0.20047   0.20288   0.26279
 Alpha virt. eigenvalues --    0.32434   0.33431   0.34393   0.58386   0.74016

  Beta  occ. eigenvalues --  -90.03827 -19.75321  -8.39356  -6.31475  -6.31310
  Beta  occ. eigenvalues --   -6.30476  -1.04167  -0.81317  -0.42593  -0.40466
  Beta  occ. eigenvalues --   -0.37488  -0.36961
  Beta virt. eigenvalues --   -0.24025  -0.18808   0.02600   0.04650   0.05181
  Beta virt. eigenvalues --    0.05649   0.18020   0.20047   0.20288   0.26279
  Beta virt. eigenvalues --    0.32434   0.33431   0.34393   0.58386   0.74016

 Mulliken charges and spin densities:
               1          2
     1  O   -0.222860  -0.000000
     2  S    0.222860   0.000000
 Sum of Mulliken charges =  -0.00000  -0.00000

 Dipole moment (field-independent basis, Debye):
    X=              0.0000    Y=              0.0000    Z=              2.7900  Tot=              2.7900
 Quadrupole moment (field-independent basis, Debye-Ang):
   XX=            -17.1101   YY=            -20.7193   ZZ=            -18.5981
   XY=              0.0000   XZ=              0.0000   YZ=              0.0000

 Summary of Natural Population Analysis:

                                       Natural Population
                Natural  -----------------------------------------------
    Atom  No    Charge         Core      Valence    Rydberg      Total
 -----------------------------------------------------------------------
      O    1   -0.14619      1.00000     3.14521    0.00099     4.14619
      S    2    0.14619      4.99999     2.85270    0.00112     7.85381
 =======================================================================
   * Total *   -0.00000      5.99999     5.99790    0.00211    12.00000

 Normal termination of Gaussian 16 at Mon Apr 21 19:55:18 2025.
