 Gaussian 16, Revision A.03,
 Gaussian 16:  ES64L-G16RevA.03 25-Dec-2016

 --------------------------------------------
 #p opt UM062X/6-311+G** nosymm int=superfine
 --------------------------------------------

 -------------------
 Title Card Required
 -------------------
 Symbolic Z-matrix:
 Charge = -1 Multiplicity = 2

 SCF Done:  E(UM062X) =  -51.8496152228     A.U. after   11 cycles
 SCF Done:  E(UM062X) =  -51.8496301464     A.U. after   14 cycles
 SCF Done:  E(UM062X) =  -51.8496333242     A.U. after   16 cycles
 Optimization completed.
    -- Stationary point found.

                          Input orientation:
 ---------------------------------------------------------------------
 Center     Atomic      Atomic             Coordinates (Angstroms)
 Number     Number       Type             X           Y           Z
 ---------------------------------------------------------------------
      1          5           0       -1.847274    0.000000    0.000000
      2          5           0        1.847274    0.000000    0.000000
      3          1           0       -2.521794   -1.011146    0.000661
      4          1           0        2.521794    1.011146    0.000187
      5          1           0       -2.521797    1.011144    0.000691
      6          1           0        2.521797   -1.011144    0.001164
 ---------------------------------------------------------------------

 Alpha  occ. eigenvalues --   -6.87118  -6.87117  -0.37362  -0.37162  -0.21383
 Alpha  occ. eigenvalues --   -0.21256  -0.05718  -0.00495
 Alpha virt. eigenvalues --    0.12017   0.13750   0.15404   0.16042   0.16258
 Alpha virt. eigenvalues --    0.17838   0.20322   0.21182   0.21384   0.23403
 Alpha virt. eigenvalues --    0.32457   0.33869   0.34625   0.38348   0.50313

  Beta  occ. eigenvalues --   -6.86503  -6.86502  -0.36062  -0.35794  -0.20725
  Beta  occ. eigenvalues --   -0.20578   0.01107
  Beta virt. eigenvalues --    0.13234   0.13241   0.14449   0.14586   0.17797
  Beta virt. eigenvalues --    0.18138   0.18163   0.22588   0.22827   0.23829
  Beta virt. eigenvalues --    0.25174   0.32508   0.33934   0.34669   0.39127

 Mulliken charges and spin densities:
               1          2
     1  B   -0.337774   0.491499
     2  B   -0.337774   0.491499
     3  H   -0.081113   0.004250
     4  H   -0.081113   0.004250
     5  H   -0.081113   0.004250
     6  H   -0.081113   0.004250
 Sum of Mulliken charges =  -1.00000   1.00000

 Dipole moment (field-independent basis, Debye):
    X=              0.0000    Y=              0.0000    Z=              0.0051  Tot=              0.0051
 Quadrupole moment (field-independent basis, Debye-Ang):
   XX=            -41.4254   YY=            -24.6549   ZZ=            -19.0179
   XY=             -0.0000   XZ=              0.0000   YZ=              0.0013

 Normal termination of Gaussian 16 at Mon Apr 21 17:20:44 2025.
