 Gaussian 16, Revision A.03,
 Gaussian 16:  ES64L-G16RevA.03 25-Dec-2016

 ---------------------------------------
 #p UM062X/6-311+G** force int=superfine
 ---------------------------------------

 -------------------
 Title Card Required
 -------------------
 Symbolic Z-matrix:
 Charge =  0 Multiplicity = 1

                         Standard orientation:
 ---------------------------------------------------------------------
 Center     Atomic      Atomic             Coordinates (Angstroms)
 Number     Number       Type             X           Y           Z
 ---------------------------------------------------------------------
      1          6           0       -1.039281    0.027983   -0.171749
      2          6           0        1.039281   -0.027983    0.171749
      3          1           0        1.441579   -0.564555   -0.679946
      4          1           0       -1.145511    0.554809   -1.113186
      5          1           0        1.145513   -0.554808    1.113187
      6          1           0        1.336207    1.013690    0.215113
      7          1           0       -1.441578    0.564555    0.679946
      8          1           0       -1.336209   -1.013690   -0.215114
 ---------------------------------------------------------------------

 SCF Done:  E(UM062X) =  -79.7281707603     A.U. after    8 cycles

 The electronic state is 1-A.
 Alpha  occ. eigenvalues --  -10.54840 -10.54831  -0.78591  -0.72941  -0.48328
 Alpha  occ. eigenvalues --   -0.48328  -0.44819  -0.44819  -0.32059
 Alpha virt. eigenvalues --    0.01967   0.02371   0.05622   0.05622   0.08440
 Alpha virt. eigenvalues --    0.08440   0.09624   0.09794   0.13500   0.18188
 Alpha virt. eigenvalues --    0.18189   0.22082   0.22082   0.24332   0.26826

  Beta  occ. eigenvalues --  -10.54840 -10.54831  -0.78591  -0.72941  -0.48328
  Beta  occ. eigenvalues --   -0.48328  -0.44819  -0.44819  -0.32059
  Beta virt. eigenvalues --    0.01967   0.02371   0.05622   0.05622   0.08440
  Beta virt. eigenvalues --    0.08440   0.09624   0.09794   0.13500   0.18188
  Beta virt. eigenvalues --    0.18189   0.22082   0.22082   0.24332   0.26826

 Mulliken charges and spin densities:
               1          2
     1  C   -0.500681   0.000000
     2  C   -0.500681  -0.000000
     3  H    0.166894   0.000000
     4  H    0.166894  -0.000000
     5  H    0.166894   0.000000
     6  H    0.166894   0.000000
     7  H    0.166894  -0.000000
     8  H    0.166894  -0.000000
 Sum of Mulliken charges =  -0.00000   0.00000

 Dipole moment (field-independent basis, Debye):
    X=             -0.0000    Y=              0.0000    Z=             -0.0000  Tot=              0.0000
 Quadrupole moment (field-independent basis, Debye-Ang):
   XX=            -15.5499   YY=            -14.8607   ZZ=            -14.8791
   XY=              0.0187   XZ=             -0.1140   YZ=              0.0031

 Normal termination of Gaussian 16 at Tue Nov 19 12:52:18 2024.
