 Gaussian 16, Revision A.03,
 Gaussian 16:  ES64L-G16RevA.03 25-Dec-2016

 --------------------------------------------
 #p opt UM062X/6-311+G** nosymm int=superfine
 --------------------------------------------

 -------------------
 Title Card Required
 -------------------
 Symbolic Z-matrix:
 Charge =  0 Multiplicity = 1

 SCF Done:  E(UM062X) =  -79.5884905184     A.U. after    9 cycles
 SCF Done:  E(UM062X) =  -79.6292847371     A.U. after    8 cycles
 SCF Done:  E(UM062X) =  -79.6727917165     A.U. after   10 cycles
 SCF Done:  E(UM062X) =  -79.6872083597     A.U. after   10 cycles
 SCF Done:  E(UM062X) =  -79.6880045719     A.U. after    8 cycles
 SCF Done:  E(UM062X) =  -79.6880074402     A.U. after    7 cycles
 Optimization completed.
    -- Stationary point found.

                          Input orientation:
 ---------------------------------------------------------------------
 Center     Atomic      Atomic             Coordinates (Angstroms)
 Number     Number       Type             X           Y           Z
 ---------------------------------------------------------------------
      1          6           0       -1.198769    0.000000    0.000000
      2          6           0        1.198891    0.000000    0.000000
      3          1           0        1.416907   -0.917575    0.530953
      4          1           0       -1.416773   -0.918614   -0.529162
      5          1           0        1.416899    0.918613    0.529160
      6          1           0        1.416882   -0.001033   -1.060129
      7          1           0       -1.416784    0.917575   -0.530953
      8          1           0       -1.416763    0.001032    1.060127
 ---------------------------------------------------------------------

 Alpha  occ. eigenvalues --  -10.55642 -10.55637  -0.77539  -0.74035  -0.48273
 Alpha  occ. eigenvalues --   -0.48272  -0.46182  -0.46182  -0.28686
 Alpha virt. eigenvalues --   -0.01226   0.02522   0.05536   0.05536   0.07145
 Alpha virt. eigenvalues --    0.08260   0.08260   0.10061   0.13029   0.18163
 Alpha virt. eigenvalues --    0.18163   0.22047   0.22047   0.24364   0.26215

  Beta  occ. eigenvalues --  -10.55642 -10.55637  -0.77539  -0.74035  -0.48273
  Beta  occ. eigenvalues --   -0.48272  -0.46182  -0.46182  -0.28686
  Beta virt. eigenvalues --   -0.01226   0.02522   0.05536   0.05536   0.07145
  Beta virt. eigenvalues --    0.08260   0.08260   0.10061   0.13029   0.18163
  Beta virt. eigenvalues --    0.18163   0.22047   0.22047   0.24364   0.26215

 Mulliken charges and spin densities:
               1          2
     1  C   -0.509541   0.000000
     2  C   -0.509541  -0.000000
     3  H    0.169847  -0.000000
     4  H    0.169847  -0.000000
     5  H    0.169847  -0.000000
     6  H    0.169847  -0.000000
     7  H    0.169847  -0.000000
     8  H    0.169847  -0.000000
 Sum of Mulliken charges =  -0.00000  -0.00000

 Dipole moment (field-independent basis, Debye):
    X=              0.0000    Y=             -0.0000    Z=             -0.0000  Tot=              0.0000
 Quadrupole moment (field-independent basis, Debye-Ang):
   XX=            -15.5345   YY=            -14.8096   ZZ=            -14.8097
   XY=             -0.0000   XZ=              0.0000   YZ=             -0.0000

 Normal termination of Gaussian 16 at Tue Nov 19 12:22:03 2024.
