 Gaussian 16, Revision A.03,
 Gaussian 16:  ES64L-G16RevA.03 25-Dec-2016

 -------------------------------------------------------------------
 #p opt UM062X/6-311+G** nosymm int=superfine SCF=NoVarAcc SCF=tight
 -------------------------------------------------------------------

 -------------------
 Title Card Required
 -------------------
 Symbolic Z-matrix:
 Charge =  1 Multiplicity = 2

 SCF Done:  E(UM062X) =  -79.3114566670     A.U. after   10 cycles
 SCF Done:  E(UM062X) =  -79.3114848623     A.U. after    9 cycles
 SCF Done:  E(UM062X) =  -79.3114927370     A.U. after    8 cycles
 SCF Done:  E(UM062X) =  -79.3114969346     A.U. after    8 cycles
 Optimization completed.
    -- Stationary point found.

                          Input orientation:
 ---------------------------------------------------------------------
 Center     Atomic      Atomic             Coordinates (Angstroms)
 Number     Number       Type             X           Y           Z
 ---------------------------------------------------------------------
      1          6           0       -3.282675    0.000000    0.000000
      2          6           0        3.282675    0.000000    0.000000
      3          1           0        3.291841   -0.936899    0.542375
      4          1           0       -3.290458   -0.938004   -0.540508
      5          1           0        3.293642    0.938154    0.540167
      6          1           0        3.292443   -0.001273   -1.082560
      7          1           0       -3.292018    0.937147   -0.541941
      8          1           0       -3.291205    0.000575    1.082584
 ---------------------------------------------------------------------

 Alpha  occ. eigenvalues --  -10.80768 -10.80763  -0.99524  -0.99484  -0.70741
 Alpha  occ. eigenvalues --   -0.70736  -0.70735  -0.70735  -0.42317
 Alpha virt. eigenvalues --   -0.37789  -0.11495  -0.09489  -0.07418  -0.07418
 Alpha virt. eigenvalues --   -0.06151  -0.06151  -0.05873  -0.01906   0.02129
 Alpha virt. eigenvalues --    0.02568   0.02571   0.02692   0.02694   0.05763

  Beta  occ. eigenvalues --  -10.80528 -10.80523  -0.96846  -0.96843  -0.70172
  Beta  occ. eigenvalues --   -0.70167  -0.70166  -0.70166
  Beta virt. eigenvalues --   -0.25951  -0.25790  -0.11584  -0.10241  -0.06759
  Beta virt. eigenvalues --   -0.06757  -0.05868  -0.05868  -0.03870  -0.00851
  Beta virt. eigenvalues --    0.02924   0.02926   0.02958   0.02960   0.03621

 Mulliken charges and spin densities:
               1          2
     1  C   -0.197827   0.566531
     2  C   -0.197941   0.566659
     3  H    0.232618  -0.022199
     4  H    0.232617  -0.022199
     5  H    0.232637  -0.022198
     6  H    0.232624  -0.022199
     7  H    0.232646  -0.022197
     8  H    0.232626  -0.022198
 Sum of Mulliken charges =   1.00000   1.00000

 Dipole moment (field-independent basis, Debye):
    X=              0.0009    Y=             -0.0002    Z=              0.0001  Tot=              0.0009
 Quadrupole moment (field-independent basis, Debye-Ang):
   XX=             39.0176   YY=            -11.1253   ZZ=            -11.1260
   XY=              0.0007   XZ=              0.0000   YZ=             -0.0006

 Normal termination of Gaussian 16 at Tue Dec  3 16:11:48 2024.
