 Gaussian 16, Revision A.03,
 Gaussian 16:  ES64L-G16RevA.03 25-Dec-2016

 --------------------------------------------
 #p opt UM062X/6-311+G** nosymm int=superfine
 --------------------------------------------

 -------------------
 Title Card Required
 -------------------
 Symbolic Z-matrix:
 Charge =  1 Multiplicity = 2

 SCF Done:  E(UM062X) =  -580.902853661     A.U. after   15 cycles
 SCF Done:  E(UM062X) =  -580.902519587     A.U. after   15 cycles
 SCF Done:  E(UM062X) =  -580.902955693     A.U. after   15 cycles
 SCF Done:  E(UM062X) =  -580.902957055     A.U. after   12 cycles
 SCF Done:  E(UM062X) =  -580.902957530     A.U. after   11 cycles
 SCF Done:  E(UM062X) =  -580.902957689     A.U. after   11 cycles
 Optimization completed.
    -- Stationary point found.

                          Input orientation:
 ---------------------------------------------------------------------
 Center     Atomic      Atomic             Coordinates (Angstroms)
 Number     Number       Type             X           Y           Z
 ---------------------------------------------------------------------
      1         14           0       -1.766295    0.000000    0.000000
      2         14           0        1.766295    0.000000    0.000000
      3          1           0       -2.665138   -1.182378    0.032915
      4          1           0        2.001814    1.257133   -0.740501
      5          1           0       -2.665275    1.182310    0.031659
      6          1           0        2.001733   -1.255651   -0.743040
 ---------------------------------------------------------------------

 Alpha  occ. eigenvalues --  -67.27579 -67.23555  -5.81907  -5.78089  -4.13315
 Alpha  occ. eigenvalues --   -4.13060  -4.12522  -4.09487  -4.08807  -4.08781
 Alpha  occ. eigenvalues --   -0.81493  -0.77202  -0.63912  -0.59263  -0.52214
 Alpha  occ. eigenvalues --   -0.47461
 Alpha virt. eigenvalues --   -0.27972  -0.26413  -0.12941  -0.12399  -0.10241
 Alpha virt. eigenvalues --   -0.09008  -0.08992  -0.08095  -0.07448  -0.06294
 Alpha virt. eigenvalues --   -0.06065  -0.05726  -0.05263  -0.02384   0.12485

  Beta  occ. eigenvalues --  -67.26978 -67.23531  -5.81474  -5.78070  -4.12858
  Beta  occ. eigenvalues --   -4.12322  -4.11906  -4.09478  -4.08799  -4.08734
  Beta  occ. eigenvalues --   -0.78240  -0.76886  -0.62341  -0.59186  -0.48234
  Beta virt. eigenvalues --   -0.30733  -0.26567  -0.25984  -0.13175  -0.12757
  Beta virt. eigenvalues --   -0.10487  -0.09087  -0.08099  -0.07251  -0.07124
  Beta virt. eigenvalues --   -0.06109  -0.06023  -0.05382  -0.04550  -0.02718

 Mulliken charges and spin densities:
               1          2
     1  Si   0.445513   0.025796
     2  Si   0.596883   0.843861
     3  H   -0.026448   0.003788
     4  H    0.005249   0.061379
     5  H   -0.026445   0.003802
     6  H    0.005248   0.061374
 Sum of Mulliken charges =   1.00000   1.00000

 Dipole moment (field-independent basis, Debye):
    X=              1.2066    Y=              0.0001    Z=             -0.1277  Tot=              1.2134
 Quadrupole moment (field-independent basis, Debye-Ang):
   XX=             -4.5120   YY=            -25.1791   ZZ=            -23.1568
   XY=              0.0000   XZ=              0.0282   YZ=              0.0018

 Normal termination of Gaussian 16 at Mon Apr 21 22:47:39 2025.
