 Gaussian 16, Revision A.03,
 Gaussian 16:  ES64L-G16RevA.03 25-Dec-2016

 --------------------------------------------
 #p opt UM062X/6-311+G** nosymm int=superfine
 --------------------------------------------

 -------------------
 Title Card Required
 -------------------
 Symbolic Z-matrix:
 Charge = -1 Multiplicity = 2

 SCF Done:  E(UM062X) =  -50.5579638753     A.U. after   16 cycles
 SCF Done:  E(UM062X) =  -50.5621646286     A.U. after   11 cycles
 SCF Done:  E(UM062X) =  -50.5624420690     A.U. after   20 cycles
 Optimization completed.
    -- Stationary point found.

                          Input orientation:
 ---------------------------------------------------------------------
 Center     Atomic      Atomic             Coordinates (Angstroms)
 Number     Number       Type             X           Y           Z
 ---------------------------------------------------------------------
      1          5           0       -1.916404    0.000000    0.000000
      2          5           0        1.916404    0.000000    0.000000
      3          1           0       -3.183511   -0.000960   -0.000001
      4          1           0        3.183511    0.000960    0.000000
 ---------------------------------------------------------------------

 Alpha  occ. eigenvalues --   -6.91166  -6.91166  -0.34710  -0.34535  -0.09790
 Alpha  occ. eigenvalues --   -0.06425   0.02632
 Alpha virt. eigenvalues --    0.10543   0.12382   0.13758   0.15493   0.16176
 Alpha virt. eigenvalues --    0.21669   0.21853   0.22034   0.22622   0.23312
 Alpha virt. eigenvalues --    0.25566   0.33079   0.37268   0.50700   0.57688

  Beta  occ. eigenvalues --   -6.91083  -6.91082  -0.33654  -0.33570  -0.08673
  Beta  occ. eigenvalues --   -0.05415
  Beta virt. eigenvalues --    0.10561   0.11449   0.12357   0.12830   0.13447
  Beta virt. eigenvalues --    0.13760   0.19188   0.20170   0.20449   0.21409
  Beta virt. eigenvalues --    0.21417   0.22005   0.32916   0.37336   0.50409

 Mulliken charges and spin densities:
               1          2
     1  B   -0.408564   0.511167
     2  B   -0.408564   0.511167
     3  H   -0.091436  -0.011167
     4  H   -0.091436  -0.011167
 Sum of Mulliken charges =  -1.00000   1.00000

 Dipole moment (field-independent basis, Debye):
    X=              0.0000    Y=             -0.0000    Z=              0.0000  Tot=              0.0000
 Quadrupole moment (field-independent basis, Debye-Ang):
   XX=            -38.5772   YY=            -19.1724   ZZ=            -26.6337
   XY=             -0.0006   XZ=             -0.0000   YZ=              0.0051

 Normal termination of Gaussian 16 at Mon Apr 21 17:31:32 2025.
