 Gaussian 16, Revision A.03,
 Gaussian 16:  ES64L-G16RevA.03 25-Dec-2016

 ---------------------------------------------------
 #p UM062X/6-311+G** force int=superfine pop=saveNBO
 ---------------------------------------------------

 -------------------
 Title Card Required
 -------------------
 Symbolic Z-matrix:
 Charge =  0 Multiplicity = 1

                         Standard orientation:
 ---------------------------------------------------------------------
 Center     Atomic      Atomic             Coordinates (Angstroms)
 Number     Number       Type             X           Y           Z
 ---------------------------------------------------------------------
      1          8           0        0.000000    0.000000    0.918562
      2          8           0        0.000000    0.000000   -0.918562
 ---------------------------------------------------------------------

 SCF Done:  E(UM062X) =  -150.035743305     A.U. after    9 cycles

 Unable to determine electronic state:  partially filled degenerate orbitals.
 Alpha  occ. eigenvalues --  -19.83827 -19.83815  -1.16922  -1.05829  -0.52251
 Alpha  occ. eigenvalues --   -0.51917  -0.46274  -0.45994
 Alpha virt. eigenvalues --   -0.25534  -0.15761   0.10400   0.13171   0.15248
 Alpha virt. eigenvalues --    0.15530   0.20757   0.21107   0.21326   0.33124
 Alpha virt. eigenvalues --    0.95439   0.96291   1.01205   1.06760   1.08139

  Beta  occ. eigenvalues --  -19.83827 -19.83815  -1.16922  -1.05829  -0.52251
  Beta  occ. eigenvalues --   -0.51917  -0.46274  -0.45994
  Beta virt. eigenvalues --   -0.25534  -0.15761   0.10400   0.13171   0.15248
  Beta virt. eigenvalues --    0.15530   0.20757   0.21107   0.21326   0.33124
  Beta virt. eigenvalues --    0.95439   0.96291   1.01205   1.06760   1.08139

 Mulliken charges and spin densities:
               1          2
     1  O   -0.000000  -0.000000
     2  O   -0.000000  -0.000000
 Sum of Mulliken charges =  -0.00000  -0.00000

 Dipole moment (field-independent basis, Debye):
    X=             -0.0000    Y=              0.0000    Z=              0.0000  Tot=              0.0000
 Quadrupole moment (field-independent basis, Debye-Ang):
   XX=            -11.7686   YY=            -10.0435   ZZ=             -9.7081
   XY=              0.0000   XZ=             -0.0000   YZ=              0.0000

 Summary of Natural Population Analysis:

                                       Natural Population
                Natural  -----------------------------------------------
    Atom  No    Charge         Core      Valence    Rydberg      Total
 -----------------------------------------------------------------------
      O    1   -0.00000      1.00000     2.99845    0.00155     4.00000
      O    2    0.00000      1.00000     2.99845    0.00155     4.00000
 =======================================================================
   * Total *   -0.00000      2.00000     5.99690    0.00310     8.00000

 Normal termination of Gaussian 16 at Mon Apr 21 19:53:51 2025.
