 Gaussian 16, Revision A.03,
 Gaussian 16:  ES64L-G16RevA.03 25-Dec-2016

 --------------------------------------------
 #p opt UM062X/6-311+G** nosymm int=superfine
 --------------------------------------------

 -------------------
 Title Card Required
 -------------------
 Symbolic Z-matrix:
 Charge = -1 Multiplicity = 2

 SCF Done:  E(UM062X) =  -51.8505293872     A.U. after   11 cycles
 SCF Done:  E(UM062X) =  -51.8505483858     A.U. after   14 cycles
 SCF Done:  E(UM062X) =  -51.8505553345     A.U. after   14 cycles
 SCF Done:  E(UM062X) =  -51.8505559512     A.U. after   13 cycles
 Optimization completed.
    -- Stationary point found.

                          Input orientation:
 ---------------------------------------------------------------------
 Center     Atomic      Atomic             Coordinates (Angstroms)
 Number     Number       Type             X           Y           Z
 ---------------------------------------------------------------------
      1          5           0       -1.772274    0.000000    0.000000
      2          5           0        1.772274    0.000000    0.000000
      3          1           0       -2.450292   -1.009952    0.000183
      4          1           0        2.450292    1.009952   -0.000281
      5          1           0       -2.450295    1.009951    0.000235
      6          1           0        2.450295   -1.009950    0.000716
 ---------------------------------------------------------------------

 Alpha  occ. eigenvalues --   -6.86848  -6.86848  -0.37143  -0.36879  -0.21102
 Alpha  occ. eigenvalues --   -0.20932  -0.05889   0.00288
 Alpha virt. eigenvalues --    0.12088   0.14034   0.15539   0.16189   0.16513
 Alpha virt. eigenvalues --    0.18006   0.20483   0.21297   0.21624   0.23546
 Alpha virt. eigenvalues --    0.32577   0.34023   0.34886   0.38783   0.50238

  Beta  occ. eigenvalues --   -6.86227  -6.86227  -0.35857  -0.35532  -0.20458
  Beta  occ. eigenvalues --   -0.20268   0.00759
  Beta virt. eigenvalues --    0.13241   0.13261   0.14345   0.14713   0.18112
  Beta virt. eigenvalues --    0.18205   0.18464   0.22731   0.22914   0.23728
  Beta virt. eigenvalues --    0.25049   0.32632   0.34021   0.34873   0.39517

 Mulliken charges and spin densities:
               1          2
     1  B   -0.336186   0.490997
     2  B   -0.336186   0.490997
     3  H   -0.081907   0.004502
     4  H   -0.081907   0.004502
     5  H   -0.081907   0.004502
     6  H   -0.081907   0.004502
 Sum of Mulliken charges =  -1.00000   1.00000

 Dipole moment (field-independent basis, Debye):
    X=             -0.0000    Y=              0.0000    Z=              0.0015  Tot=              0.0015
 Quadrupole moment (field-independent basis, Debye-Ang):
   XX=            -41.4752   YY=            -24.6809   ZZ=            -18.9733
   XY=             -0.0000   XZ=             -0.0000   YZ=              0.0013

 Normal termination of Gaussian 16 at Mon Apr 21 17:25:14 2025.
