 Gaussian 16, Revision A.03,
 Gaussian 16:  ES64L-G16RevA.03 25-Dec-2016

 ---------------------------------------
 #p UM062X/6-311+G** force int=superfine
 ---------------------------------------

 -------------------
 Title Card Required
 -------------------
 Symbolic Z-matrix:
 Charge =  1 Multiplicity = 2

                         Standard orientation:
 ---------------------------------------------------------------------
 Center     Atomic      Atomic             Coordinates (Angstroms)
 Number     Number       Type             X           Y           Z
 ---------------------------------------------------------------------
      1          6           0        0.000000    1.081545    0.000000
      2          6           0       -0.000000   -1.081545    0.000000
      3          1           0        0.989757    1.526089    0.000000
      4          1           0       -0.989750    1.526043    0.000000
      5          1           0       -0.989757   -1.526089    0.000000
      6          1           0        0.989750   -1.526043    0.000000
 ---------------------------------------------------------------------

 SCF Done:  E(UM062X) =  -78.0301781726     A.U. after    9 cycles

 The electronic state is 2-AU.
 Alpha  occ. eigenvalues --  -10.92341 -10.92329  -1.05661  -1.00364  -0.80378
 Alpha  occ. eigenvalues --   -0.77935  -0.64994  -0.55062
 Alpha virt. eigenvalues --   -0.37271  -0.27280  -0.13981  -0.10953  -0.10295
 Alpha virt. eigenvalues --   -0.08229  -0.07517  -0.07074  -0.04751  -0.03958
 Alpha virt. eigenvalues --   -0.03180  -0.00126   0.01968   0.09276   0.17912

  Beta  occ. eigenvalues --  -10.92101 -10.92093  -1.02672  -0.98086  -0.79891
  Beta  occ. eigenvalues --   -0.77577  -0.63362
  Beta virt. eigenvalues --   -0.34630  -0.28300  -0.25004  -0.15223  -0.11242
  Beta virt. eigenvalues --   -0.10417  -0.07616  -0.07397  -0.07384  -0.04075
  Beta virt. eigenvalues --   -0.03846  -0.02682   0.00415   0.01074   0.10094

 Mulliken charges and spin densities:
               1          2
     1  C   -0.067956   0.541573
     2  C   -0.067956   0.541573
     3  H    0.283980  -0.020786
     4  H    0.283975  -0.020786
     5  H    0.283980  -0.020786
     6  H    0.283975  -0.020786
 Sum of Mulliken charges =   1.00000   1.00000

 Dipole moment (field-independent basis, Debye):
    X=             -0.0000    Y=              0.0000    Z=              0.0000  Tot=              0.0000
 Quadrupole moment (field-independent basis, Debye-Ang):
   XX=             -8.0640   YY=             -1.0742   ZZ=            -12.6438
   XY=              0.0002   XZ=              0.0000   YZ=              0.0000

 Normal termination of Gaussian 16 at Tue Nov 19 11:57:06 2024.
