 Gaussian 16, Revision A.03,
 Gaussian 16:  ES64L-G16RevA.03 25-Dec-2016

 --------------------------------------------
 #p opt UM062X/6-311+G** nosymm int=superfine
 --------------------------------------------

 -------------------
 Title Card Required
 -------------------
 Symbolic Z-matrix:
 Charge =  0 Multiplicity = 1

 SCF Done:  E(UM062X) =  -77.2970782191     A.U. after    9 cycles
 SCF Done:  E(UM062X) =  -77.3038486936     A.U. after    9 cycles
 SCF Done:  E(UM062X) =  -77.3039086225     A.U. after    8 cycles
 Optimization completed.
    -- Stationary point found.

                          Input orientation:
 ---------------------------------------------------------------------
 Center     Atomic      Atomic             Coordinates (Angstroms)
 Number     Number       Type             X           Y           Z
 ---------------------------------------------------------------------
      1          6           0       -0.640412    0.000000    0.000000
      2          6           0        0.640412    0.000000    0.000000
      3          1           0       -1.706607   -0.000000   -0.000000
      4          1           0        1.706607   -0.000000    0.000000
 ---------------------------------------------------------------------

 Alpha  occ. eigenvalues --  -10.57171 -10.57011  -0.83677  -0.65770  -0.56566
 Alpha  occ. eigenvalues --   -0.34533  -0.34533
 Alpha virt. eigenvalues --    0.02550   0.02636   0.03186   0.03186   0.07780
 Alpha virt. eigenvalues --    0.07780   0.09301   0.13594   0.13594   0.14986
 Alpha virt. eigenvalues --    0.19288   0.24129   0.37724   0.45104   0.57562

  Beta  occ. eigenvalues --  -10.57171 -10.57011  -0.83677  -0.65770  -0.56566
  Beta  occ. eigenvalues --   -0.34533  -0.34533
  Beta virt. eigenvalues --    0.02550   0.02636   0.03186   0.03186   0.07780
  Beta virt. eigenvalues --    0.07780   0.09301   0.13594   0.13594   0.14986
  Beta virt. eigenvalues --    0.19288   0.24129   0.37724   0.45104   0.57562

 Mulliken charges and spin densities:
               1          2
     1  C   -0.189846  -0.000000
     2  C   -0.189846   0.000000
     3  H    0.189846  -0.000000
     4  H    0.189846  -0.000000
 Sum of Mulliken charges =  -0.00000  -0.00000

 Dipole moment (field-independent basis, Debye):
    X=             -0.0000    Y=             -0.0000    Z=             -0.0000  Tot=              0.0000
 Quadrupole moment (field-independent basis, Debye-Ang):
   XX=             -6.5977   YY=            -14.1895   ZZ=            -14.1895
   XY=             -0.0000   XZ=              0.0000   YZ=              0.0000

 Normal termination of Gaussian 16 at Tue Dec  3 20:04:30 2024.
