 Gaussian 16, Revision A.03,
 Gaussian 16:  ES64L-G16RevA.03 25-Dec-2016

 --------------------------------------------
 #p opt UM062X/6-311+G** nosymm int=superfine
 --------------------------------------------

 -------------------
 Title Card Required
 -------------------
 Symbolic Z-matrix:
 Charge =  0 Multiplicity = 1

 SCF Done:  E(UM062X) =  -77.3158331107     A.U. after    9 cycles
 SCF Done:  E(UM062X) =  -77.3159876605     A.U. after    8 cycles
 SCF Done:  E(UM062X) =  -77.3159892357     A.U. after    6 cycles
 Optimization completed.
    -- Stationary point found.

                          Input orientation:
 ---------------------------------------------------------------------
 Center     Atomic      Atomic             Coordinates (Angstroms)
 Number     Number       Type             X           Y           Z
 ---------------------------------------------------------------------
      1          6           0       -0.604501    0.000000    0.000000
      2          6           0        0.604501    0.000000    0.000000
      3          1           0       -1.669177   -0.000000    0.000000
      4          1           0        1.669177   -0.000000    0.000000
 ---------------------------------------------------------------------

 Alpha  occ. eigenvalues --  -10.55142 -10.54883  -0.85181  -0.64862  -0.56769
 Alpha  occ. eigenvalues --   -0.35638  -0.35638
 Alpha virt. eigenvalues --    0.02611   0.02826   0.04464   0.04464   0.07644
 Alpha virt. eigenvalues --    0.07644   0.09301   0.14680   0.14680   0.15721
 Alpha virt. eigenvalues --    0.19862   0.24378   0.39809   0.44773   0.56898

  Beta  occ. eigenvalues --  -10.55142 -10.54883  -0.85181  -0.64862  -0.56769
  Beta  occ. eigenvalues --   -0.35638  -0.35638
  Beta virt. eigenvalues --    0.02611   0.02826   0.04464   0.04464   0.07644
  Beta virt. eigenvalues --    0.07644   0.09301   0.14680   0.14680   0.15721
  Beta virt. eigenvalues --    0.19862   0.24378   0.39809   0.44773   0.56898

 Mulliken charges and spin densities:
               1          2
     1  C   -0.176473   0.000000
     2  C   -0.176473  -0.000000
     3  H    0.176473  -0.000000
     4  H    0.176473   0.000000
 Sum of Mulliken charges =  -0.00000  -0.00000

 Dipole moment (field-independent basis, Debye):
    X=              0.0000    Y=             -0.0000    Z=              0.0000  Tot=              0.0000
 Quadrupole moment (field-independent basis, Debye-Ang):
   XX=             -6.8460   YY=            -13.8512   ZZ=            -13.8512
   XY=             -0.0000   XZ=              0.0000   YZ=             -0.0000

 Normal termination of Gaussian 16 at Tue Dec  3 20:03:13 2024.
