 Gaussian 16, Revision A.03,
 Gaussian 16:  ES64L-G16RevA.03 25-Dec-2016

 --------------------------------------------
 #p opt UM062X/6-311+G** nosymm int=superfine
 --------------------------------------------

 -------------------
 Title Card Required
 -------------------
 Symbolic Z-matrix:
 Charge =  0 Multiplicity = 1

 SCF Done:  E(UM062X) =  -95.5661543267     A.U. after   20 cycles
 SCF Done:  E(UM062X) =  -95.5806121407     A.U. after   13 cycles
 SCF Done:  E(UM062X) =  -95.5903570967     A.U. after   14 cycles
 SCF Done:  E(UM062X) =  -95.5906625350     A.U. after   12 cycles
 SCF Done:  E(UM062X) =  -95.5910052061     A.U. after   13 cycles
 SCF Done:  E(UM062X) =  -95.5914078632     A.U. after   14 cycles
 SCF Done:  E(UM062X) =  -95.5915847719     A.U. after   12 cycles
 SCF Done:  E(UM062X) =  -95.5916768779     A.U. after   12 cycles
 SCF Done:  E(UM062X) =  -95.5916900190     A.U. after   11 cycles
 SCF Done:  E(UM062X) =  -95.5916902802     A.U. after   10 cycles
 SCF Done:  E(UM062X) =  -95.5916905158     A.U. after   10 cycles
 SCF Done:  E(UM062X) =  -95.5916908755     A.U. after   10 cycles
 SCF Done:  E(UM062X) =  -95.5916912797     A.U. after   11 cycles
 SCF Done:  E(UM062X) =  -95.5916915752     A.U. after   11 cycles
 SCF Done:  E(UM062X) =  -95.5916917548     A.U. after   10 cycles
 Optimization completed.
    -- Stationary point found.

                          Input orientation:
 ---------------------------------------------------------------------
 Center     Atomic      Atomic             Coordinates (Angstroms)
 Number     Number       Type             X           Y           Z
 ---------------------------------------------------------------------
      1          6           0       -2.205542    0.000000    0.000000
      2          7           0        2.205542    0.000000    0.000000
      3          1           0        2.155763   -1.014796    0.142254
      4          1           0       -2.167836    1.079758    0.015798
      5          1           0        2.156703    0.372157    0.954800
      6          1           0       -2.166909   -0.526222   -0.942946
      7          1           0       -2.328307   -0.550414    0.921868
 ---------------------------------------------------------------------

 Alpha  occ. eigenvalues --  -14.74610 -10.62157  -0.90118  -0.81260  -0.53430
 Alpha  occ. eigenvalues --   -0.53326  -0.50646  -0.35851  -0.23713
 Alpha virt. eigenvalues --   -0.15811   0.01740   0.04494   0.04737   0.06860
 Alpha virt. eigenvalues --    0.09950   0.12914   0.15722   0.16524   0.16695
 Alpha virt. eigenvalues --    0.17087   0.20332   0.21440   0.27188   0.40958

  Beta  occ. eigenvalues --  -14.74610 -10.62157  -0.90118  -0.81260  -0.53430
  Beta  occ. eigenvalues --   -0.53326  -0.50646  -0.35851  -0.23713
  Beta virt. eigenvalues --   -0.15811   0.01740   0.04494   0.04737   0.06860
  Beta virt. eigenvalues --    0.09950   0.12914   0.15722   0.16524   0.16695
  Beta virt. eigenvalues --    0.17087   0.20332   0.21440   0.27188   0.40958

 Mulliken charges and spin densities:
               1          2
     1  C   -0.415671   0.000000
     2  N   -0.581651  -0.000000
     3  H    0.210012   0.000000
     4  H    0.194958  -0.000000
     5  H    0.210018   0.000000
     6  H    0.195041  -0.000000
     7  H    0.187293  -0.000000
 Sum of Mulliken charges =  -0.00000  -0.00000

 Dipole moment (field-independent basis, Debye):
    X=             -3.7919    Y=             -1.0087    Z=              1.7219  Tot=              4.2850
 Quadrupole moment (field-independent basis, Debye-Ang):
   XX=            -16.0642   YY=            -13.4583   ZZ=            -14.2761
   XY=             -2.2212   XZ=              3.7956   YZ=              0.7299

 Normal termination of Gaussian 16 at Mon Apr 21 18:21:23 2025.
