 Gaussian 16, Revision A.03,
 Gaussian 16:  ES64L-G16RevA.03 25-Dec-2016

 --------------------------------------------
 #p opt UM062X/6-311+G** nosymm int=superfine
 --------------------------------------------

 -------------------
 Title Card Required
 -------------------
 Symbolic Z-matrix:
 Charge =  0 Multiplicity = 1

 SCF Done:  E(UM062X) =  -78.1925288113     A.U. after    9 cycles
 SCF Done:  E(UM062X) =  -78.2100780068     A.U. after    9 cycles
 SCF Done:  E(UM062X) =  -78.2268400347     A.U. after    8 cycles
 SCF Done:  E(UM062X) =  -78.2272700648     A.U. after    8 cycles
 SCF Done:  E(UM062X) =  -78.2272719820     A.U. after    7 cycles
 Optimization completed.
    -- Stationary point found.

                          Input orientation:
 ---------------------------------------------------------------------
 Center     Atomic      Atomic             Coordinates (Angstroms)
 Number     Number       Type             X           Y           Z
 ---------------------------------------------------------------------
      1          6           0       -1.610595    0.000000    0.000000
      2          6           0        1.610595    0.000000    0.000000
      3          1           0       -2.323823   -0.855453   -0.000000
      4          1           0       -2.323784    0.855488   -0.000000
      5          1           0        2.323823    0.855453    0.000000
      6          1           0        2.323784   -0.855488    0.000000
 ---------------------------------------------------------------------

 Alpha  occ. eigenvalues --  -10.58762 -10.58761  -0.73968  -0.73752  -0.45502
 Alpha  occ. eigenvalues --   -0.45317  -0.31740  -0.26891
 Alpha virt. eigenvalues --   -0.07226  -0.05979   0.02588   0.03652   0.06711
 Alpha virt. eigenvalues --    0.08553   0.08937   0.10513   0.12521   0.15427
 Alpha virt. eigenvalues --    0.17660   0.20032   0.21273   0.23681   0.44310

  Beta  occ. eigenvalues --  -10.58762 -10.58761  -0.73968  -0.73752  -0.45502
  Beta  occ. eigenvalues --   -0.45317  -0.31740  -0.26891
  Beta virt. eigenvalues --   -0.07226  -0.05979   0.02588   0.03652   0.06711
  Beta virt. eigenvalues --    0.08553   0.08937   0.10513   0.12521   0.15427
  Beta virt. eigenvalues --    0.17660   0.20032   0.21273   0.23681   0.44310

 Mulliken charges and spin densities:
               1          2
     1  C   -0.236661   0.000000
     2  C   -0.236661   0.000000
     3  H    0.118331  -0.000000
     4  H    0.118330  -0.000000
     5  H    0.118331   0.000000
     6  H    0.118330   0.000000
 Sum of Mulliken charges =  -0.00000   0.00000

 Dipole moment (field-independent basis, Debye):
    X=              0.0000    Y=              0.0000    Z=              0.0000  Tot=              0.0000
 Quadrupole moment (field-independent basis, Debye-Ang):
   XX=             -7.5610   YY=            -14.8423   ZZ=            -13.0160
   XY=             -0.0001   XZ=              0.0000   YZ=              0.0000

 Normal termination of Gaussian 16 at Tue Dec  3 11:11:31 2024.
