 Gaussian 16, Revision A.03,
 Gaussian 16:  ES64L-G16RevA.03 25-Dec-2016

 --------------------------------------------
 #p opt UM062X/6-311+G** nosymm int=superfine
 --------------------------------------------

 -------------------
 Title Card Required
 -------------------
 Symbolic Z-matrix:
 Charge =  0 Multiplicity = 1

 SCF Done:  E(UM062X) =  -114.109584999     A.U. after   15 cycles
 SCF Done:  E(UM062X) =  -114.110604081     A.U. after   10 cycles
 SCF Done:  E(UM062X) =  -114.110886526     A.U. after    9 cycles
 SCF Done:  E(UM062X) =  -114.110893537     A.U. after   13 cycles
 Optimization completed.
    -- Stationary point found.

                          Input orientation:
 ---------------------------------------------------------------------
 Center     Atomic      Atomic             Coordinates (Angstroms)
 Number     Number       Type             X           Y           Z
 ---------------------------------------------------------------------
      1          6           0       -1.398311    0.000000    0.000000
      2          8           0        1.398311    0.000000    0.000000
      3          1           0       -2.040797   -0.892568   -0.000028
      4          1           0       -2.040802    0.892565   -0.000028
 ---------------------------------------------------------------------

 Alpha  occ. eigenvalues --  -19.69402 -10.66742  -0.99745  -0.79855  -0.53177
 Alpha  occ. eigenvalues --   -0.38483  -0.38473  -0.35372
 Alpha virt. eigenvalues --   -0.12948  -0.11971   0.00950   0.05376   0.07167
 Alpha virt. eigenvalues --    0.07647   0.15518   0.16631   0.18892   0.21793
 Alpha virt. eigenvalues --    0.24627   0.30010   0.42096   0.44733   0.55474

  Beta  occ. eigenvalues --  -19.69402 -10.66742  -0.99745  -0.79855  -0.53177
  Beta  occ. eigenvalues --   -0.38483  -0.38473  -0.35372
  Beta virt. eigenvalues --   -0.12948  -0.11971   0.00950   0.05376   0.07167
  Beta virt. eigenvalues --    0.07647   0.15518   0.16631   0.18892   0.21793
  Beta virt. eigenvalues --    0.24627   0.30010   0.42096   0.44733   0.55474

 Mulliken charges and spin densities:
               1          2
     1  C   -0.214947  -0.000000
     2  O   -0.123528   0.000000
     3  H    0.169237   0.000000
     4  H    0.169237   0.000000
 Sum of Mulliken charges =  -0.00000  -0.00000

 Dipole moment (field-independent basis, Debye):
    X=             -4.1894    Y=             -0.0000    Z=             -0.0001  Tot=              4.1894
 Quadrupole moment (field-independent basis, Debye-Ang):
   XX=             -7.0026   YY=            -12.7357   ZZ=            -12.5095
   XY=             -0.0000   XZ=             -0.0000   YZ=             -0.0000

 Normal termination of Gaussian 16 at Mon Apr 21 18:49:44 2025.
