 Gaussian 16, Revision A.03,
 Gaussian 16:  ES64L-G16RevA.03 25-Dec-2016

 --------------------------------------------
 #p opt UM062X/6-311+G** nosymm int=superfine
 --------------------------------------------

 -------------------
 Title Card Required
 -------------------
 Symbolic Z-matrix:
 Charge =  0 Multiplicity = 3

 SCF Done:  E(UM062X) =  -50.4715115496     A.U. after   11 cycles
 SCF Done:  E(UM062X) =  -50.4724416802     A.U. after   10 cycles
 SCF Done:  E(UM062X) =  -50.4724492206     A.U. after   10 cycles
 Optimization completed.
    -- Stationary point found.

                          Input orientation:
 ---------------------------------------------------------------------
 Center     Atomic      Atomic             Coordinates (Angstroms)
 Number     Number       Type             X           Y           Z
 ---------------------------------------------------------------------
      1          5           0       -2.078410    0.000000    0.000000
      2          5           0        2.078410    0.000000    0.000000
      3          1           0       -3.284185   -0.000082   -0.000000
      4          1           0        3.284185    0.000082   -0.000000
 ---------------------------------------------------------------------

 Alpha  occ. eigenvalues --   -7.14484  -7.14483  -0.56937  -0.56803  -0.33252
 Alpha  occ. eigenvalues --   -0.31312  -0.17610
 Alpha virt. eigenvalues --   -0.10490  -0.06384  -0.05640   0.02714   0.02898
 Alpha virt. eigenvalues --    0.05591   0.06882   0.07085   0.07783   0.08083
 Alpha virt. eigenvalues --    0.11323   0.16221   0.21845   0.33087   0.39537

  Beta  occ. eigenvalues --   -7.13584  -7.13584  -0.53641  -0.53527  -0.23316
  Beta virt. eigenvalues --   -0.12274  -0.04482  -0.03963  -0.03360  -0.02803
  Beta virt. eigenvalues --    0.01916   0.02404   0.07043   0.07341   0.08019
  Beta virt. eigenvalues --    0.08068   0.08830   0.09618   0.16242   0.23216

 Mulliken charges and spin densities:
               1          2
     1  B   -0.059412   0.929526
     2  B   -0.059412   0.929526
     3  H    0.059412   0.070474
     4  H    0.059412   0.070474
 Sum of Mulliken charges =  -0.00000   2.00000

 Dipole moment (field-independent basis, Debye):
    X=             -0.0000    Y=             -0.0000    Z=             -0.0000  Tot=              0.0000
 Quadrupole moment (field-independent basis, Debye-Ang):
   XX=             -7.1396   YY=            -13.6839   ZZ=            -17.6704
   XY=              0.0000   XZ=             -0.0000   YZ=             -0.0010

 1\1\GINC-NODE03\FOpt\UM062X\6-311+G(d,p)\B2H2(3)\SZHAO\21-Apr-2025\0\\
 #p opt UM062X/6-311+G** nosymm int=superfine\\Title Card Required\\0,3
 \B,-2.07841047,0.,0.\B,2.07841047,0.,0.\H,-3.2841851435,-0.0000822749,
 -0.0000000012\H,3.2841851897,0.0000822709,-0.0000000409\\Version=ES64L
 -G16RevA.03\HF=-50.4724492\S2=2.023641\S2-1=0.\S2A=2.000019\RMSD=2.172
 e-09\RMSF=4.479e-07\Dipole=0.,0.,0.\Quadrupole=4.231656,-0.6338906,-3.
 5977654,0.0000222,0.,-0.0007148\PG=C*V [C*(H1B1B1H1)]\\@

 Normal termination of Gaussian 16 at Mon Apr 21 17:25:07 2025.
