 Gaussian 16, Revision A.03,
 Gaussian 16:  ES64L-G16RevA.03 25-Dec-2016

 --------------------------------------------
 #p opt UM062X/6-311+G** nosymm int=superfine
 --------------------------------------------

 -------------------
 Title Card Required
 -------------------
 Symbolic Z-matrix:
 Charge =  1 Multiplicity = 2

 SCF Done:  E(UM062X) =  -76.8918683009     A.U. after    9 cycles
 SCF Done:  E(UM062X) =  -76.8951642662     A.U. after    9 cycles
 SCF Done:  E(UM062X) =  -76.8951751499     A.U. after    7 cycles
 Optimization completed.
    -- Stationary point found.

                          Input orientation:
 ---------------------------------------------------------------------
 Center     Atomic      Atomic             Coordinates (Angstroms)
 Number     Number       Type             X           Y           Z
 ---------------------------------------------------------------------
      1          6           0       -0.652410    0.000000    0.000000
      2          6           0        0.652410    0.000000    0.000000
      3          1           0       -1.735371    0.000000    0.000000
      4          1           0        1.735371   -0.000000    0.000000
 ---------------------------------------------------------------------

 Alpha  occ. eigenvalues --  -10.95228 -10.95078  -1.20648  -0.97503  -0.89065
 Alpha  occ. eigenvalues --   -0.71264  -0.68676
 Alpha virt. eigenvalues --   -0.28954  -0.26936  -0.16282  -0.14460  -0.11433
 Alpha virt. eigenvalues --   -0.10120  -0.09872  -0.07302  -0.04909  -0.04495
 Alpha virt. eigenvalues --    0.02233   0.04519   0.14463   0.19211   0.29849

  Beta  occ. eigenvalues --  -10.94985 -10.94857  -1.15981  -0.95896  -0.88527
  Beta  occ. eigenvalues --   -0.66236
  Beta virt. eigenvalues --   -0.45317  -0.25296  -0.22258  -0.15601  -0.15179
  Beta virt. eigenvalues --   -0.11594  -0.10401  -0.10119  -0.06887  -0.04409
  Beta virt. eigenvalues --   -0.03847   0.01909   0.04734   0.15040   0.20083

 Mulliken charges and spin densities:
               1          2
     1  C    0.181535   0.519487
     2  C    0.181535   0.519487
     3  H    0.318465  -0.019487
     4  H    0.318465  -0.019487
 Sum of Mulliken charges =   1.00000   1.00000

 Dipole moment (field-independent basis, Debye):
    X=             -0.0000    Y=             -0.0000    Z=              0.0000  Tot=              0.0000
 Quadrupole moment (field-independent basis, Debye-Ang):
   XX=             -0.0704   YY=            -10.3028   ZZ=            -11.1177
   XY=             -0.0000   XZ=              0.0000   YZ=              0.8326

 Normal termination of Gaussian 16 at Tue Nov 19 13:02:27 2024.
