 Gaussian 16, Revision A.03,
 Gaussian 16:  ES64L-G16RevA.03 25-Dec-2016

 --------------------------------------------
 #p opt UM062X/6-311+G** nosymm int=superfine
 --------------------------------------------

 -------------------
 Title Card Required
 -------------------
 Symbolic Z-matrix:
 Charge =  0 Multiplicity = 1

 SCF Done:  E(UM062X) =  -151.364419605     A.U. after   15 cycles
 SCF Done:  E(UM062X) =  -151.367733849     A.U. after   19 cycles
 SCF Done:  E(UM062X) =  -151.371477497     A.U. after   22 cycles
 SCF Done:  E(UM062X) =  -151.371655476     A.U. after   21 cycles
 SCF Done:  E(UM062X) =  -151.371695851     A.U. after   20 cycles
 SCF Done:  E(UM062X) =  -151.371696465     A.U. after   14 cycles
 Optimization completed.
    -- Stationary point found.

                          Input orientation:
 ---------------------------------------------------------------------
 Center     Atomic      Atomic             Coordinates (Angstroms)
 Number     Number       Type             X           Y           Z
 ---------------------------------------------------------------------
      1          8           0       -1.311938    0.000000    0.000000
      2          8           0        1.311938    0.000000    0.000000
      3          1           0       -1.159989   -0.775284   -0.569280
      4          1           0        1.159944    0.774163    0.570794
 ---------------------------------------------------------------------

 Alpha  occ. eigenvalues --  -19.72731 -19.72729  -1.13544  -1.12043  -0.57256
 Alpha  occ. eigenvalues --   -0.56090  -0.44656  -0.43428  -0.40048
 Alpha virt. eigenvalues --   -0.22935   0.05498   0.08943   0.14702   0.15478
 Alpha virt. eigenvalues --    0.17638   0.19308   0.21158   0.22179   0.24796
 Alpha virt. eigenvalues --    0.32488   0.48900   0.53078   0.92688   0.98534

  Beta  occ. eigenvalues --  -19.72731 -19.72729  -1.13544  -1.12043  -0.57256
  Beta  occ. eigenvalues --   -0.56090  -0.44656  -0.43428  -0.40048
  Beta virt. eigenvalues --   -0.22935   0.05498   0.08943   0.14702   0.15478
  Beta virt. eigenvalues --    0.17638   0.19308   0.21158   0.22179   0.24796
  Beta virt. eigenvalues --    0.32488   0.48900   0.53078   0.92688   0.98534

 Mulliken charges and spin densities:
               1          2
     1  O   -0.271378   0.000000
     2  O   -0.271372  -0.000000
     3  H    0.271374   0.000000
     4  H    0.271376  -0.000000
 Sum of Mulliken charges =   0.00000  -0.00000

 Dipole moment (field-independent basis, Debye):
    X=             -0.0001    Y=             -0.0022    Z=              0.0030  Tot=              0.0037
 Quadrupole moment (field-independent basis, Debye-Ang):
   XX=            -12.2533   YY=            -10.3711   ZZ=            -11.8978
   XY=              3.7266   XZ=              2.7420   YZ=              2.4496

 Normal termination of Gaussian 16 at Mon Apr 21 21:33:42 2025.
