 Gaussian 16, Revision A.03,
 Gaussian 16:  ES64L-G16RevA.03 25-Dec-2016

 --------------------------------------------
 #p opt UM062X/6-311+G** nosymm int=superfine
 --------------------------------------------

 -------------------
 Title Card Required
 -------------------
 Symbolic Z-matrix:
 Charge =  0 Multiplicity = 3

 SCF Done:  E(UM062X) =  -50.4880420253     A.U. after   13 cycles
 SCF Done:  E(UM062X) =  -50.4889464035     A.U. after   10 cycles
 SCF Done:  E(UM062X) =  -50.4889531507     A.U. after   10 cycles
 Optimization completed.
    -- Stationary point found.

                          Input orientation:
 ---------------------------------------------------------------------
 Center     Atomic      Atomic             Coordinates (Angstroms)
 Number     Number       Type             X           Y           Z
 ---------------------------------------------------------------------
      1          5           0       -1.803410    0.000000    0.000000
      2          5           0        1.803410    0.000000    0.000000
      3          1           0       -3.008636   -0.000082   -0.000000
      4          1           0        3.008636    0.000082    0.000000
 ---------------------------------------------------------------------

 Alpha  occ. eigenvalues --   -7.14293  -7.14292  -0.56842  -0.56567  -0.33936
 Alpha  occ. eigenvalues --   -0.29839  -0.18104
 Alpha virt. eigenvalues --   -0.09552  -0.06508  -0.05156   0.02662   0.02825
 Alpha virt. eigenvalues --    0.05862   0.07134   0.07143   0.08136   0.08185
 Alpha virt. eigenvalues --    0.11712   0.17497   0.22359   0.33898   0.39230

  Beta  occ. eigenvalues --   -7.13378  -7.13377  -0.53521  -0.53328  -0.24653
  Beta virt. eigenvalues --   -0.10205  -0.04651  -0.04147  -0.02825  -0.02329
  Beta virt. eigenvalues --    0.01801   0.02485   0.07013   0.07295   0.07626
  Beta virt. eigenvalues --    0.08148   0.09063   0.09587   0.18305   0.23687

 Mulliken charges and spin densities:
               1          2
     1  B   -0.065392   0.923145
     2  B   -0.065392   0.923145
     3  H    0.065392   0.076855
     4  H    0.065392   0.076855
 Sum of Mulliken charges =  -0.00000   2.00000

 Dipole moment (field-independent basis, Debye):
    X=             -0.0000    Y=             -0.0000    Z=             -0.0000  Tot=              0.0000
 Quadrupole moment (field-independent basis, Debye-Ang):
   XX=             -8.5404   YY=            -13.6504   ZZ=            -17.6820
   XY=              0.0000   XZ=              0.0000   YZ=              0.0002

 1\1\GINC-NODE06\FOpt\UM062X\6-311+G(d,p)\B2H2(3)\SZHAO\21-Apr-2025\0\\
 #p opt UM062X/6-311+G** nosymm int=superfine\\Title Card Required\\0,3
 \B,-1.80341047,0.,0.\B,1.80341047,0.,0.\H,-3.0086359981,-0.0000822173,
 -0.0000000039\H,3.0086360075,0.0000822164,0.0000000039\\Version=ES64L-
 G16RevA.03\HF=-50.4889532\S2=2.018141\S2-1=0.\S2A=2.000016\RMSD=5.393e
 -09\RMSF=4.448e-07\Dipole=0.,0.,0.\Quadrupole=3.5318977,-0.2672529,-3.
 2646448,0.0000086,0.,0.0001429\PG=C*V [C*(H1B1B1H1)]\\@

 Normal termination of Gaussian 16 at Mon Apr 21 17:29:16 2025.
