 Gaussian 16, Revision A.03,
 Gaussian 16:  ES64L-G16RevA.03 25-Dec-2016

 --------------------------------------------
 #p opt UM062X/6-311+G** nosymm int=superfine
 --------------------------------------------

 -------------------
 Title Card Required
 -------------------
 Symbolic Z-matrix:
 Charge =  0 Multiplicity = 1

 SCF Done:  E(UM062X) =  -683.598476416     A.U. after   11 cycles
 SCF Done:  E(UM062X) =  -683.598868581     A.U. after   10 cycles
 SCF Done:  E(UM062X) =  -683.599400731     A.U. after   11 cycles
 SCF Done:  E(UM062X) =  -683.599453473     A.U. after   15 cycles
 Optimization completed.
    -- Stationary point found.

                          Input orientation:
 ---------------------------------------------------------------------
 Center     Atomic      Atomic             Coordinates (Angstroms)
 Number     Number       Type             X           Y           Z
 ---------------------------------------------------------------------
      1         15           0       -2.084490    0.000000    0.000000
      2         15           0        2.084490    0.000000    0.000000
      3          1           0       -1.954219   -1.417581   -0.000000
      4          1           0        1.954219    1.417581   -0.000000
 ---------------------------------------------------------------------

 Alpha  occ. eigenvalues --  -78.08452 -78.08452  -6.90483  -6.90482  -5.01893
 Alpha  occ. eigenvalues --   -5.01893  -5.01876  -5.01876  -5.01694  -5.01694
 Alpha  occ. eigenvalues --   -0.68697  -0.68044  -0.40583  -0.40438  -0.25793
 Alpha  occ. eigenvalues --   -0.24149
 Alpha virt. eigenvalues --   -0.16938  -0.15208   0.01945   0.03059   0.03729
 Alpha virt. eigenvalues --    0.04520   0.05563   0.05963   0.06442   0.07630
 Alpha virt. eigenvalues --    0.08462   0.11614   0.28266   0.29710   0.30359

  Beta  occ. eigenvalues --  -78.08452 -78.08452  -6.90483  -6.90482  -5.01893
  Beta  occ. eigenvalues --   -5.01893  -5.01876  -5.01876  -5.01694  -5.01694
  Beta  occ. eigenvalues --   -0.68697  -0.68044  -0.40583  -0.40438  -0.25793
  Beta  occ. eigenvalues --   -0.24149
  Beta virt. eigenvalues --   -0.16938  -0.15208   0.01945   0.03059   0.03729
  Beta virt. eigenvalues --    0.04520   0.05563   0.05963   0.06442   0.07630
  Beta virt. eigenvalues --    0.08462   0.11614   0.28266   0.29710   0.30359

 Mulliken charges and spin densities:
               1          2
     1  P    0.009460  -0.000002
     2  P    0.009460   0.000002
     3  H   -0.009460   0.000000
     4  H   -0.009460  -0.000000
 Sum of Mulliken charges =  -0.00000  -0.00000

 Dipole moment (field-independent basis, Debye):
    X=              0.0000    Y=              0.0000    Z=             -0.0000  Tot=              0.0000
 Quadrupole moment (field-independent basis, Debye-Ang):
   XX=            -26.7924   YY=            -28.4937   ZZ=            -30.8221
   XY=              3.2607   XZ=              0.0000   YZ=              0.0000

 Normal termination of Gaussian 16 at Mon Apr 21 20:19:22 2025.
