 Gaussian 16, Revision A.03,
 Gaussian 16:  ES64L-G16RevA.03 25-Dec-2016

 --------------------------------------------
 #p opt UM062X/6-311+G** nosymm int=superfine
 --------------------------------------------

 -------------------
 Title Card Required
 -------------------
 Symbolic Z-matrix:
 Charge =  1 Multiplicity = 2

 SCF Done:  E(UM062X) =  -79.3268468880     A.U. after   10 cycles
 SCF Done:  E(UM062X) =  -79.3273125270     A.U. after    9 cycles
 SCF Done:  E(UM062X) =  -79.3273132690     A.U. after    8 cycles
 Optimization completed.
    -- Stationary point found.

                          Input orientation:
 ---------------------------------------------------------------------
 Center     Atomic      Atomic             Coordinates (Angstroms)
 Number     Number       Type             X           Y           Z
 ---------------------------------------------------------------------
      1          6           0       -1.726273    0.000000    0.000000
      2          6           0        1.726273    0.000000    0.000000
      3          1           0        1.763897   -0.937624    0.542668
      4          1           0       -1.762492   -0.938728   -0.540850
      5          1           0        1.763309    0.938818    0.540639
      6          1           0        1.762496   -0.001161   -1.083386
      7          1           0       -1.763941    0.937721   -0.542498
      8          1           0       -1.763267    0.000937    1.083361
 ---------------------------------------------------------------------

 Alpha  occ. eigenvalues --  -10.84426 -10.84424  -1.03054  -1.02306  -0.73950
 Alpha  occ. eigenvalues --   -0.73949  -0.73630  -0.73629  -0.50023
 Alpha virt. eigenvalues --   -0.36770  -0.13383  -0.10215  -0.09955  -0.09955
 Alpha virt. eigenvalues --   -0.06246  -0.06246  -0.04675  -0.03236  -0.01115
 Alpha virt. eigenvalues --   -0.01112   0.01271   0.01273   0.03834   0.08043

  Beta  occ. eigenvalues --  -10.84219 -10.84219  -1.00342  -0.99846  -0.73443
  Beta  occ. eigenvalues --   -0.73442  -0.73111  -0.73111
  Beta virt. eigenvalues --   -0.32706  -0.26314  -0.15672  -0.11135  -0.11134
  Beta virt. eigenvalues --   -0.10116  -0.06323  -0.06323  -0.05057  -0.02316
  Beta virt. eigenvalues --   -0.01464  -0.01461   0.01558   0.01560   0.04286

 Mulliken charges and spin densities:
               1          2
     1  C   -0.265094   0.561243
     2  C   -0.265094   0.561243
     3  H    0.255050  -0.020414
     4  H    0.255007  -0.020419
     5  H    0.255030  -0.020418
     6  H    0.255013  -0.020411
     7  H    0.255051  -0.020414
     8  H    0.255036  -0.020410
 Sum of Mulliken charges =   1.00000   1.00000

 Dipole moment (field-independent basis, Debye):
    X=             -0.0000    Y=             -0.0000    Z=             -0.0001  Tot=              0.0001
 Quadrupole moment (field-independent basis, Debye-Ang):
   XX=              3.2078   YY=            -11.0800   ZZ=            -11.0802
   XY=             -0.0015   XZ=              0.0009   YZ=             -0.0000

 Normal termination of Gaussian 16 at Wed Nov 13 12:47:40 2024.
