 Gaussian 16, Revision A.03,
 Gaussian 16:  ES64L-G16RevA.03 25-Dec-2016

 ---------------------------------------------------
 #p UM062X/6-311+G** force int=superfine pop=saveNBO
 ---------------------------------------------------

 -------------------
 Title Card Required
 -------------------
 Symbolic Z-matrix:
 Charge =  0 Multiplicity = 1

                         Standard orientation:
 ---------------------------------------------------------------------
 Center     Atomic      Atomic             Coordinates (Angstroms)
 Number     Number       Type             X           Y           Z
 ---------------------------------------------------------------------
      1          8           0        0.000000    0.000000   -2.393424
      2         16           0        0.000000    0.000000    1.196712
 ---------------------------------------------------------------------

 SCF Done:  E(UM062X) =  -473.004776234     A.U. after   19 cycles

 Unable to determine electronic state:  an orbital has unidentified symmetry.
 Alpha  occ. eigenvalues --  -89.96119 -19.79168  -8.32172  -6.24968  -6.23374
 Alpha  occ. eigenvalues --   -6.23365  -1.08780  -0.76255  -0.47736  -0.47595
 Alpha  occ. eigenvalues --   -0.33510  -0.33485
 Alpha virt. eigenvalues --   -0.21632  -0.18577   0.04023   0.05276   0.05821
 Alpha virt. eigenvalues --    0.05914   0.14589   0.16304   0.17132   0.21745
 Alpha virt. eigenvalues --    0.35131   0.35245   0.35338   0.59619   0.78420

  Beta  occ. eigenvalues --  -89.96119 -19.79168  -8.32172  -6.24968  -6.23374
  Beta  occ. eigenvalues --   -6.23365  -1.08780  -0.76255  -0.47736  -0.47595
  Beta  occ. eigenvalues --   -0.33510  -0.33485
  Beta virt. eigenvalues --   -0.21632  -0.18577   0.04023   0.05276   0.05821
  Beta virt. eigenvalues --    0.05914   0.14589   0.16304   0.17132   0.21745
  Beta virt. eigenvalues --    0.35131   0.35245   0.35338   0.59619   0.78420

 Mulliken charges and spin densities:
               1          2
     1  O    0.002350  -0.000000
     2  S   -0.002350   0.000000
 Sum of Mulliken charges =  -0.00000   0.00000

 Dipole moment (field-independent basis, Debye):
    X=              0.0000    Y=              0.0000    Z=             -0.0246  Tot=              0.0246
 Quadrupole moment (field-independent basis, Debye-Ang):
   XX=            -18.9609   YY=            -21.1738   ZZ=            -15.5280
   XY=              0.0000   XZ=              0.0000   YZ=              0.0000

 Summary of Natural Population Analysis:

                                       Natural Population
                Natural  -----------------------------------------------
    Atom  No    Charge         Core      Valence    Rydberg      Total
 -----------------------------------------------------------------------
      O    1    0.00042      1.00000     2.99940    0.00018     3.99958
      S    2   -0.00042      4.99999     3.00001    0.00042     8.00042
 =======================================================================
   * Total *    0.00000      5.99999     5.99941    0.00060    12.00000

 Normal termination of Gaussian 16 at Mon Apr 21 19:55:36 2025.
