 Gaussian 16, Revision A.03,
 Gaussian 16:  ES64L-G16RevA.03 25-Dec-2016

 --------------------------------------------
 #p opt UM062X/6-311+G** nosymm int=superfine
 --------------------------------------------

 -------------------
 Title Card Required
 -------------------
 Symbolic Z-matrix:
 Charge =  1 Multiplicity = 2

 SCF Done:  E(UM062X) =  -76.8895515331     A.U. after   10 cycles
 SCF Done:  E(UM062X) =  -76.8936481314     A.U. after    9 cycles
 Optimization completed.
    -- Stationary point found.

                          Input orientation:
 ---------------------------------------------------------------------
 Center     Atomic      Atomic             Coordinates (Angstroms)
 Number     Number       Type             X           Y           Z
 ---------------------------------------------------------------------
      1          6           0       -0.590275    0.000000    0.000000
      2          6           0        0.590275    0.000000    0.000000
      3          1           0       -1.669643   -0.000000    0.000000
      4          1           0        1.669642    0.000000   -0.000000
 ---------------------------------------------------------------------

 Alpha  occ. eigenvalues --  -10.93112 -10.92775  -1.25213  -0.96689  -0.90067
 Alpha  occ. eigenvalues --   -0.74845  -0.71980
 Alpha virt. eigenvalues --   -0.25616  -0.23635  -0.14897  -0.14553  -0.11679
 Alpha virt. eigenvalues --   -0.10565  -0.10306  -0.05173  -0.04570  -0.04088
 Alpha virt. eigenvalues --    0.02321   0.04552   0.17155   0.18185   0.28492

  Beta  occ. eigenvalues --  -10.92849 -10.92541  -1.20217  -0.95121  -0.89477
  Beta  occ. eigenvalues --   -0.69426
  Beta virt. eigenvalues --   -0.47424  -0.22107  -0.19689  -0.15643  -0.14196
  Beta virt. eigenvalues --   -0.11747  -0.10819  -0.10483  -0.04613  -0.03853
  Beta virt. eigenvalues --   -0.03138   0.02205   0.04836   0.17651   0.18971

 Mulliken charges and spin densities:
               1          2
     1  C    0.201363   0.519382
     2  C    0.201363   0.519382
     3  H    0.298637  -0.019382
     4  H    0.298637  -0.019382
 Sum of Mulliken charges =   1.00000   1.00000

 Dipole moment (field-independent basis, Debye):
    X=             -0.0000    Y=             -0.0000    Z=             -0.0000  Tot=              0.0000
 Quadrupole moment (field-independent basis, Debye-Ang):
   XX=             -0.9382   YY=             -9.4559   ZZ=            -11.1638
   XY=              0.0000   XZ=             -0.0000   YZ=              0.1878

 Normal termination of Gaussian 16 at Tue Nov 19 13:00:10 2024.
