 Gaussian 16, Revision A.03,
 Gaussian 16:  ES64L-G16RevA.03 25-Dec-2016

 --------------------------------------------
 #p opt UM062X/6-311+G** nosymm int=superfine
 --------------------------------------------

 -------------------
 Title Card Required
 -------------------
 Symbolic Z-matrix:
 Charge =  0 Multiplicity = 1

 SCF Done:  E(UM062X) =  -797.504787064     A.U. after   12 cycles
 SCF Done:  E(UM062X) =  -797.506325852     A.U. after   11 cycles
 SCF Done:  E(UM062X) =  -797.506491733     A.U. after   12 cycles
 SCF Done:  E(UM062X) =  -797.506624240     A.U. after   12 cycles
 SCF Done:  E(UM062X) =  -797.506627019     A.U. after   10 cycles
 SCF Done:  E(UM062X) =  -797.506627333     A.U. after   10 cycles
 Optimization completed.
    -- Stationary point found.

                          Input orientation:
 ---------------------------------------------------------------------
 Center     Atomic      Atomic             Coordinates (Angstroms)
 Number     Number       Type             X           Y           Z
 ---------------------------------------------------------------------
      1         16           0       -1.343191    0.000000    0.000000
      2         16           0        1.343191    0.000000    0.000000
      3          1           0       -1.348809   -1.343193   -0.056050
      4          1           0        1.348891    0.093678    1.341018
 ---------------------------------------------------------------------

 Alpha  occ. eigenvalues --  -89.94252 -89.94252  -8.30417  -8.30415  -6.22571
 Alpha  occ. eigenvalues --   -6.22570  -6.22312  -6.22312  -6.21775  -6.21775
 Alpha  occ. eigenvalues --   -0.83792  -0.79141  -0.47823  -0.47190  -0.37755
 Alpha  occ. eigenvalues --   -0.33336  -0.32900
 Alpha virt. eigenvalues --   -0.12710   0.01821   0.03314   0.04786   0.05057
 Alpha virt. eigenvalues --    0.06122   0.07469   0.07495   0.07629   0.12059
 Alpha virt. eigenvalues --    0.13393   0.30861   0.31105   0.32312   0.35089

  Beta  occ. eigenvalues --  -89.94252 -89.94252  -8.30417  -8.30415  -6.22571
  Beta  occ. eigenvalues --   -6.22570  -6.22312  -6.22312  -6.21775  -6.21775
  Beta  occ. eigenvalues --   -0.83792  -0.79141  -0.47823  -0.47190  -0.37755
  Beta  occ. eigenvalues --   -0.33336  -0.32900
  Beta virt. eigenvalues --   -0.12710   0.01821   0.03314   0.04786   0.05057
  Beta virt. eigenvalues --    0.06122   0.07469   0.07495   0.07629   0.12059
  Beta virt. eigenvalues --    0.13393   0.30861   0.31105   0.32312   0.35089

 Mulliken charges and spin densities:
               1          2
     1  S   -0.089736  -0.000000
     2  S   -0.089763  -0.000000
     3  H    0.089755   0.000000
     4  H    0.089745   0.000000
 Sum of Mulliken charges =  -0.00000  -0.00000

 Dipole moment (field-independent basis, Debye):
    X=             -0.0001    Y=             -0.9839    Z=              1.0118  Tot=              1.4113
 Quadrupole moment (field-independent basis, Debye-Ang):
   XX=            -25.9064   YY=            -27.7513   ZZ=            -27.7773
   XY=              1.9059   XZ=              1.8534   YZ=              0.4618

 Normal termination of Gaussian 16 at Mon Apr 21 21:15:56 2025.
