 Gaussian 16, Revision A.03,
 Gaussian 16:  ES64L-G16RevA.03 25-Dec-2016

 ---------------------------------------------------
 #p UM062X/6-311+G** force int=superfine pop=saveNBO
 ---------------------------------------------------

 -------------------
 Title Card Required
 -------------------
 Symbolic Z-matrix:
 Charge =  0 Multiplicity = 1

                         Standard orientation:
 ---------------------------------------------------------------------
 Center     Atomic      Atomic             Coordinates (Angstroms)
 Number     Number       Type             X           Y           Z
 ---------------------------------------------------------------------
      1          8           0        0.000000    0.000000    1.243562
      2          8           0        0.000000    0.000000   -1.243562
 ---------------------------------------------------------------------

 SCF Done:  E(UM062X) =  -149.874792860     A.U. after   10 cycles

 Unable to determine electronic state:  partially filled degenerate orbitals.
 Alpha  occ. eigenvalues --  -19.83630 -19.83625  -1.11701  -1.09397  -0.49536
 Alpha  occ. eigenvalues --   -0.48173  -0.44834  -0.41999
 Alpha virt. eigenvalues --   -0.29413  -0.26203   0.10137   0.12752   0.14837
 Alpha virt. eigenvalues --    0.14906   0.20191   0.20482   0.21364   0.30887
 Alpha virt. eigenvalues --    0.90426   0.97662   0.98763   1.03893   1.05226

  Beta  occ. eigenvalues --  -19.83630 -19.83625  -1.11701  -1.09397  -0.49536
  Beta  occ. eigenvalues --   -0.48173  -0.44834  -0.41999
  Beta virt. eigenvalues --   -0.29413  -0.26203   0.10137   0.12752   0.14837
  Beta virt. eigenvalues --    0.14906   0.20191   0.20482   0.21364   0.30887
  Beta virt. eigenvalues --    0.90426   0.97662   0.98763   1.03893   1.05226

 Mulliken charges and spin densities:
               1          2
     1  O   -0.000000   0.000000
     2  O   -0.000000   0.000000
 Sum of Mulliken charges =  -0.00000   0.00000

 Dipole moment (field-independent basis, Debye):
    X=              0.0000    Y=             -0.0000    Z=             -0.0000  Tot=              0.0000
 Quadrupole moment (field-independent basis, Debye-Ang):
   XX=            -11.9654   YY=            -10.1864   ZZ=             -9.1221
   XY=              0.0000   XZ=             -0.0000   YZ=              0.0000

 Summary of Natural Population Analysis:

                                       Natural Population
                Natural  -----------------------------------------------
    Atom  No    Charge         Core      Valence    Rydberg      Total
 -----------------------------------------------------------------------
      O    1    0.00000      1.00000     2.99914    0.00086     4.00000
      O    2    0.00000      1.00000     2.99914    0.00086     4.00000
 =======================================================================
   * Total *    0.00000      2.00000     5.99827    0.00173     8.00000

 Normal termination of Gaussian 16 at Mon Apr 21 19:53:22 2025.
