 Gaussian 16, Revision A.03,
 Gaussian 16:  ES64L-G16RevA.03 25-Dec-2016

 --------------------------------------------
 #p opt UM062X/6-311+G** nosymm int=superfine
 --------------------------------------------

 -------------------
 Title Card Required
 -------------------
 Symbolic Z-matrix:
 Charge =  0 Multiplicity = 1

 SCF Done:  E(UM062X) =  -579.894753789     A.U. after    9 cycles
 SCF Done:  E(UM062X) =  -579.897973115     A.U. after    9 cycles
 SCF Done:  E(UM062X) =  -579.897982464     A.U. after    8 cycles
 Optimization completed.
    -- Stationary point found.

                          Input orientation:
 ---------------------------------------------------------------------
 Center     Atomic      Atomic             Coordinates (Angstroms)
 Number     Number       Type             X           Y           Z
 ---------------------------------------------------------------------
      1         14           0       -1.778705    0.000000    0.000000
      2         14           0        1.778705    0.000000    0.000000
      3          1           0       -3.309151   -0.000015    0.000000
      4          1           0        3.309151    0.000053    0.000000
 ---------------------------------------------------------------------

 Alpha  occ. eigenvalues --  -67.04416 -67.04416  -5.58833  -5.58832  -3.89925
 Alpha  occ. eigenvalues --   -3.89925  -3.89479  -3.89479  -3.89352  -3.89351
 Alpha  occ. eigenvalues --   -0.55132  -0.54258  -0.35139  -0.29759  -0.18898
 Alpha virt. eigenvalues --   -0.09798  -0.09576  -0.07621   0.02291   0.02976
 Alpha virt. eigenvalues --    0.04539   0.05322   0.05739   0.06048   0.07099
 Alpha virt. eigenvalues --    0.08346   0.09541   0.19531   0.29218   0.29559

  Beta  occ. eigenvalues --  -67.04416 -67.04416  -5.58833  -5.58832  -3.89925
  Beta  occ. eigenvalues --   -3.89925  -3.89479  -3.89479  -3.89352  -3.89351
  Beta  occ. eigenvalues --   -0.55132  -0.54258  -0.35139  -0.29759  -0.18898
  Beta virt. eigenvalues --   -0.09798  -0.09576  -0.07621   0.02291   0.02976
  Beta virt. eigenvalues --    0.04539   0.05322   0.05739   0.06048   0.07099
  Beta virt. eigenvalues --    0.08346   0.09541   0.19531   0.29218   0.29559

 Mulliken charges and spin densities:
               1          2
     1  Si   0.143252  -0.000000
     2  Si   0.143252   0.000000
     3  H   -0.143252   0.000000
     4  H   -0.143252  -0.000000
 Sum of Mulliken charges =  -0.00000   0.00000

 Dipole moment (field-independent basis, Debye):
    X=              0.0000    Y=              0.0000    Z=              0.0000  Tot=              0.0000
 Quadrupole moment (field-independent basis, Debye-Ang):
   XX=            -31.4240   YY=            -24.2147   ZZ=            -35.5240
   XY=             -0.0002   XZ=              0.0000   YZ=             -0.0031

 Normal termination of Gaussian 16 at Mon Apr 21 21:25:16 2025.
