 Gaussian 16, Revision A.03,
 Gaussian 16:  ES64L-G16RevA.03 25-Dec-2016

 --------------------------------------------
 #p opt UM062X/6-311+G** nosymm int=superfine
 --------------------------------------------

 -------------------
 Title Card Required
 -------------------
 Symbolic Z-matrix:
 Charge =  0 Multiplicity = 1

 SCF Done:  E(UM062X) =  -683.839637951     A.U. after    9 cycles
 SCF Done:  E(UM062X) =  -683.839684110     A.U. after    8 cycles
 SCF Done:  E(UM062X) =  -683.839695979     A.U. after    7 cycles
 Optimization completed.
    -- Stationary point found.

                          Input orientation:
 ---------------------------------------------------------------------
 Center     Atomic      Atomic             Coordinates (Angstroms)
 Number     Number       Type             X           Y           Z
 ---------------------------------------------------------------------
      1         15           0       -1.059490    0.000000    0.000000
      2         15           0        1.059490    0.000000    0.000000
      3          1           0       -1.139985   -1.418338   -0.000000
      4          1           0        1.139985    1.418338   -0.000000
 ---------------------------------------------------------------------

 Alpha  occ. eigenvalues --  -78.04718 -78.04718  -6.87167  -6.87155  -4.98677
 Alpha  occ. eigenvalues --   -4.98671  -4.98606  -4.98580  -4.98437  -4.98415
 Alpha  occ. eigenvalues --   -0.76455  -0.62496  -0.42107  -0.40989  -0.31595
 Alpha  occ. eigenvalues --   -0.31405
 Alpha virt. eigenvalues --   -0.08924   0.01272   0.01833   0.03416   0.04172
 Alpha virt. eigenvalues --    0.04726   0.06251   0.06556   0.07105   0.08381
 Alpha virt. eigenvalues --    0.11951   0.13210   0.25713   0.29442   0.31201

  Beta  occ. eigenvalues --  -78.04718 -78.04718  -6.87167  -6.87155  -4.98677
  Beta  occ. eigenvalues --   -4.98671  -4.98606  -4.98580  -4.98437  -4.98415
  Beta  occ. eigenvalues --   -0.76455  -0.62496  -0.42107  -0.40989  -0.31595
  Beta  occ. eigenvalues --   -0.31405
  Beta virt. eigenvalues --   -0.08924   0.01272   0.01833   0.03416   0.04172
  Beta virt. eigenvalues --    0.04726   0.06251   0.06556   0.07105   0.08381
  Beta virt. eigenvalues --    0.11951   0.13210   0.25713   0.29442   0.31201

 Mulliken charges and spin densities:
               1          2
     1  P    0.018547  -0.000000
     2  P    0.018547   0.000000
     3  H   -0.018547  -0.000000
     4  H   -0.018547  -0.000000
 Sum of Mulliken charges =  -0.00000  -0.00000

 Dipole moment (field-independent basis, Debye):
    X=              0.0000    Y=             -0.0000    Z=              0.0000  Tot=              0.0000
 Quadrupole moment (field-independent basis, Debye-Ang):
   XX=            -29.3424   YY=            -27.3128   ZZ=            -28.5738
   XY=              2.5728   XZ=             -0.0000   YZ=             -0.0000

 Normal termination of Gaussian 16 at Mon Apr 21 21:00:08 2025.
