 Gaussian 16, Revision A.03,
 Gaussian 16:  ES64L-G16RevA.03 25-Dec-2016

 ---------------------------------------------------
 #p UM062X/6-311+G** force int=superfine pop=saveNBO
 ---------------------------------------------------

 -------------------
 Title Card Required
 -------------------
 Symbolic Z-matrix:
 Charge =  0 Multiplicity = 1

                         Standard orientation:
 ---------------------------------------------------------------------
 Center     Atomic      Atomic             Coordinates (Angstroms)
 Number     Number       Type             X           Y           Z
 ---------------------------------------------------------------------
      1         15           0        0.000000    0.000000    0.988495
      2         15           0        0.000000    0.000000   -0.988495
 ---------------------------------------------------------------------

 SCF Done:  E(UM062X) =  -682.655161530     A.U. after   10 cycles

 The electronic state is 1-SGG.
 Alpha  occ. eigenvalues --  -78.05889 -78.05889  -6.88258  -6.88228  -4.99672
 Alpha  occ. eigenvalues --   -4.99672  -4.99660  -4.99660  -4.99550  -4.99433
 Alpha  occ. eigenvalues --   -0.75465  -0.53731  -0.34746  -0.32702  -0.32702
 Alpha virt. eigenvalues --   -0.07657  -0.07657   0.02134   0.02736   0.04155
 Alpha virt. eigenvalues --    0.04155   0.05882   0.07148   0.07148   0.09924
 Alpha virt. eigenvalues --    0.13526   0.25603   0.30756   0.30756   0.34470

  Beta  occ. eigenvalues --  -78.05889 -78.05889  -6.88258  -6.88228  -4.99672
  Beta  occ. eigenvalues --   -4.99672  -4.99660  -4.99660  -4.99550  -4.99433
  Beta  occ. eigenvalues --   -0.75465  -0.53731  -0.34746  -0.32702  -0.32702
  Beta virt. eigenvalues --   -0.07657  -0.07657   0.02134   0.02736   0.04155
  Beta virt. eigenvalues --    0.04155   0.05882   0.07148   0.07148   0.09924
  Beta virt. eigenvalues --    0.13526   0.25603   0.30756   0.30756   0.34470

 Mulliken charges and spin densities:
               1          2
     1  P   -0.000000   0.000000
     2  P   -0.000000   0.000000
 Sum of Mulliken charges =  -0.00000   0.00000

 Dipole moment (field-independent basis, Debye):
    X=             -0.0000    Y=              0.0000    Z=             -0.0000  Tot=              0.0000
 Quadrupole moment (field-independent basis, Debye-Ang):
   XX=            -26.6611   YY=            -26.6611   ZZ=            -26.4461
   XY=              0.0000   XZ=             -0.0000   YZ=             -0.0000

 Summary of Natural Population Analysis:

                                       Natural Population
                Natural  -----------------------------------------------
    Atom  No    Charge         Core      Valence    Rydberg      Total
 -----------------------------------------------------------------------
      P    1   -0.00000      4.99965     2.48070    0.01965     7.50000
      P    2   -0.00000      4.99965     2.48070    0.01965     7.50000
 =======================================================================
   * Total *   -0.00000      9.99930     4.96140    0.03929    15.00000

 Normal termination of Gaussian 16 at Mon Apr 21 21:19:34 2025.
