 Gaussian 16, Revision A.03,
 Gaussian 16:  ES64L-G16RevA.03 25-Dec-2016

 --------------------------------------------
 #p opt UM062X/6-311+G** nosymm int=superfine
 --------------------------------------------

 -------------------
 Title Card Required
 -------------------
 Symbolic Z-matrix:
 Charge =  1 Multiplicity = 2

 SCF Done:  E(UM062X) =  -579.695397490     A.U. after   14 cycles
 SCF Done:  E(UM062X) =  -579.702205677     A.U. after   13 cycles
 SCF Done:  E(UM062X) =  -579.706656089     A.U. after   14 cycles
 SCF Done:  E(UM062X) =  -579.706729136     A.U. after   12 cycles
 SCF Done:  E(UM062X) =  -579.706864196     A.U. after   12 cycles
 SCF Done:  E(UM062X) =  -579.706980312     A.U. after   13 cycles
 SCF Done:  E(UM062X) =  -579.706980573     A.U. after   11 cycles
 Optimization completed.
    -- Stationary point found.

                          Input orientation:
 ---------------------------------------------------------------------
 Center     Atomic      Atomic             Coordinates (Angstroms)
 Number     Number       Type             X           Y           Z
 ---------------------------------------------------------------------
      1         14           0       -1.602975    0.000000    0.000000
      2         14           0        1.602975    0.000000    0.000000
      3          1           0       -1.833307   -1.486016    0.000009
      4          1           0        1.833745    1.485938    0.000009
 ---------------------------------------------------------------------

 Alpha  occ. eigenvalues --  -67.27402 -67.27402  -5.81580  -5.81579  -4.12703
 Alpha  occ. eigenvalues --   -4.12702  -4.12638  -4.12638  -4.11972  -4.11972
 Alpha  occ. eigenvalues --   -0.78079  -0.75409  -0.54308  -0.53482  -0.45030
 Alpha virt. eigenvalues --   -0.30112  -0.26738  -0.24743  -0.12254  -0.10629
 Alpha virt. eigenvalues --   -0.09093  -0.08751  -0.08460  -0.07671  -0.06099
 Alpha virt. eigenvalues --   -0.05815  -0.05808  -0.02986   0.12359   0.13763

  Beta  occ. eigenvalues --  -67.27115 -67.27115  -5.81474  -5.81472  -4.12563
  Beta  occ. eigenvalues --   -4.12562  -4.12017  -4.12017  -4.11771  -4.11770
  Beta  occ. eigenvalues --   -0.76169  -0.73493  -0.54071  -0.51489
  Beta virt. eigenvalues --   -0.30056  -0.29483  -0.26015  -0.20539  -0.12870
  Beta virt. eigenvalues --   -0.10372  -0.09033  -0.08771  -0.08179  -0.07105
  Beta virt. eigenvalues --   -0.05689  -0.05596  -0.05271  -0.02353   0.11313

 Mulliken charges and spin densities:
               1          2
     1  Si   0.564469   0.507837
     2  Si   0.564417   0.507950
     3  H   -0.064452  -0.007894
     4  H   -0.064435  -0.007893
 Sum of Mulliken charges =   1.00000   1.00000

 Dipole moment (field-independent basis, Debye):
    X=              0.0001    Y=             -0.0000    Z=              0.0000  Tot=              0.0001
 Quadrupole moment (field-independent basis, Debye-Ang):
   XX=             -7.6699   YY=            -26.9717   ZZ=            -19.5223
   XY=              1.5755   XZ=             -0.0000   YZ=              0.0000

 Normal termination of Gaussian 16 at Mon Apr 21 20:39:08 2025.
