 Gaussian 16, Revision A.03,
 Gaussian 16:  ES64L-G16RevA.03 25-Dec-2016

 --------------------------------------------
 #p opt UM062X/6-311+G** nosymm int=superfine
 --------------------------------------------

 -------------------
 Title Card Required
 -------------------
 Symbolic Z-matrix:
 Charge =  1 Multiplicity = 2

 SCF Done:  E(UM062X) =  -1615.54305813     A.U. after   29 cycles
 SCF Done:  E(UM062X) =  -1615.54597745     A.U. after   25 cycles
 SCF Done:  E(UM062X) =  -1615.54591432     A.U. after   23 cycles
 SCF Done:  E(UM062X) =  -1615.54605528     A.U. after   26 cycles
 SCF Done:  E(UM062X) =  -1615.54505418     A.U. after   27 cycles
 SCF Done:  E(UM062X) =  -1615.54608645     A.U. after   23 cycles
 SCF Done:  E(UM062X) =  -1615.54609743     A.U. after   20 cycles
 SCF Done:  E(UM062X) =  -1615.54610068     A.U. after   21 cycles
 SCF Done:  E(UM062X) =  -1615.54610107     A.U. after   19 cycles
 SCF Done:  E(UM062X) =  -1615.54610129     A.U. after   19 cycles
 SCF Done:  E(UM062X) =  -1615.54610138     A.U. after   19 cycles
 SCF Done:  E(UM062X) =  -1615.54610140     A.U. after   19 cycles
 Optimization completed.
    -- Stationary point found.

                          Input orientation:
 ---------------------------------------------------------------------
 Center     Atomic      Atomic             Coordinates (Angstroms)
 Number     Number       Type             X           Y           Z
 ---------------------------------------------------------------------
      1          6           0       -1.883148    0.000000    0.000000
      2          6           0        1.883148    0.000000    0.000000
      3          6           0       -0.000032   -1.978079   -0.006260
      4          6           0        0.000008   -3.389417   -0.010784
      5          6           0       -1.116735   -4.238103    0.235753
      6          6           0       -1.351915   -1.416780    0.186622
      7          6           0        0.656871   -5.629141   -0.169360
      8          1           0        1.287508   -6.493391   -0.321264
      9          6           0       -1.906022    0.796372    1.196117
     10          6           0       -0.656788   -5.630132    0.133296
     11          1           0       -1.287399   -6.495363    0.279627
     12          6           0        1.116773   -4.236467   -0.262837
     13          6           0        1.351816   -1.415530   -0.195680
     14          6           0        2.440421    2.129069   -1.324819
     15          6           0       -2.171696    0.338266   -1.367367
     16          6           0       -2.401610    2.746200    2.597297
     17          1           0       -2.826610    3.739074    2.685019
     18          6           0       -2.326556   -3.676573    0.514501
     19          1           0       -3.209915   -4.265326    0.731673
     20          6           0       -2.660834    1.598329   -1.848527
     21          6           0        2.407433   -2.263578   -0.479405
     22          1           0        3.383289   -1.810188   -0.621158
     23          6           0        2.171735    0.329485    1.369459
     24          6           0        2.661080    1.586393    1.858645
     25          6           0        2.326539   -3.673116   -0.538123
     26          1           0        3.209896   -4.260419   -0.759191
     27          6           0       -2.439797    2.120745    1.338389
     28          6           0       -1.337514    0.216447    2.370795
     29          1           0       -0.928639   -0.780996    2.318944
     30          6           0        1.925695   -0.677316    2.354619
     31          1           0        1.608233   -1.660456    2.041319
     32          6           0       -1.836874    2.149895    3.705473
     33          1           0       -1.822566    2.667510    4.656608
     34          6           0       -2.407508   -2.266690    0.464798
     35          1           0       -3.383394   -1.814247    0.609329
     36          6           0       -2.801590    1.797369   -3.234393
     37          1           0       -3.166516    2.759095   -3.575015
     38          6           0        1.906165    0.803997   -1.190970
     39          6           0       -3.017635    2.918427    0.289443
     40          1           0       -3.423717    3.865003    0.631739
     41          6           0       -2.512748    0.816477   -4.158900
     42          1           0       -2.641712    1.007980   -5.217174
     43          6           0       -3.086322    2.711112   -1.039896
     44          1           0       -3.534488    3.518173   -1.610657
     45          6           0        2.801711    1.776587    3.245782
     46          1           0        3.166756    2.736060    3.592567
     47          6           0       -1.290560    0.869637    3.580184
     48          1           0       -0.837362    0.379980    4.433509
     49          6           0       -1.925923   -0.662264   -2.358953
     50          1           0       -1.608614   -1.647447   -2.051978
     51          6           0        2.512577    0.789879    4.163963
     52          1           0        2.641432    0.974629    5.223450
     53          6           0        2.402422    2.762530   -2.579741
     54          1           0        2.827833    3.755760   -2.661189
     55          6           0        2.087600   -0.459634    3.702517
     56          1           0        1.890304   -1.264303    4.400650
     57          6           0        1.837306    2.173527   -3.691600
     58          1           0        1.823114    2.697201   -4.639416
     59          6           0        3.018484    2.919879   -0.270863
     60          1           0        3.424880    3.868477   -0.607134
     61          6           0       -2.087933   -0.435993   -3.705443
     62          1           0       -1.890864   -1.236256   -4.408689
     63          6           0        3.086944    2.704142    1.057171
     64          1           0        3.535240    3.507456    1.633090
     65          6           0        1.337240    0.231814   -2.369254
     66          1           0        0.927921   -0.765752   -2.323694
     67          6           0        1.290391    0.892743   -3.574417
     68          1           0        0.836807    0.408781   -4.430778
 ---------------------------------------------------------------------

 Alpha  occ. eigenvalues --  -10.70673 -10.70660 -10.68525 -10.68517 -10.68365
 Alpha  occ. eigenvalues --  -10.68357 -10.68267 -10.68110 -10.68100 -10.67897
 Alpha  occ. eigenvalues --  -10.67887 -10.67740 -10.67735 -10.66353 -10.66344
 Alpha  occ. eigenvalues --  -10.66245 -10.66236 -10.65830 -10.65822 -10.65750
 Alpha  occ. eigenvalues --  -10.65743 -10.65605 -10.65597 -10.65495 -10.65488
 Alpha  occ. eigenvalues --  -10.65426 -10.65418 -10.65321 -10.65314 -10.65246
 Alpha  occ. eigenvalues --  -10.65239 -10.65158 -10.65152 -10.65135 -10.65133
 Alpha  occ. eigenvalues --  -10.65048 -10.65046 -10.64734 -10.64732 -10.64050
 Alpha  occ. eigenvalues --  -10.63600 -10.63498  -1.11391  -1.10378  -1.09725
 Alpha  occ. eigenvalues --   -1.07937  -1.07781  -1.04960  -1.04814  -1.02163
 Alpha  occ. eigenvalues --   -1.02036  -1.00951  -0.99925  -0.97715  -0.97501
 Alpha  occ. eigenvalues --   -0.96389  -0.96219  -0.94721  -0.93465  -0.93312
 Alpha  occ. eigenvalues --   -0.92727  -0.91530  -0.87069  -0.86859  -0.84739
 Alpha  occ. eigenvalues --   -0.84608  -0.82945  -0.81346  -0.80583  -0.79642
 Alpha  occ. eigenvalues --   -0.79455  -0.79335  -0.76966  -0.76101  -0.75934
 Alpha  occ. eigenvalues --   -0.75735  -0.75114  -0.73078  -0.69753  -0.69420
 Alpha  occ. eigenvalues --   -0.68497  -0.68457  -0.67662  -0.67464  -0.66651
 Alpha  occ. eigenvalues --   -0.66645  -0.65667  -0.65222  -0.65024  -0.64410
 Alpha  occ. eigenvalues --   -0.63181  -0.62724  -0.62344  -0.61812  -0.60695
 Alpha  occ. eigenvalues --   -0.60592  -0.60323  -0.60018  -0.59777  -0.59526
 Alpha  occ. eigenvalues --   -0.59220  -0.58483  -0.58220  -0.57904  -0.57618
 Alpha  occ. eigenvalues --   -0.57337  -0.56129  -0.55861  -0.55510  -0.55480
 Alpha  occ. eigenvalues --   -0.54835  -0.54764  -0.52825  -0.52653  -0.52543
 Alpha  occ. eigenvalues --   -0.52272  -0.52124  -0.51777  -0.50808  -0.50799
 Alpha  occ. eigenvalues --   -0.50608  -0.49734  -0.49677  -0.49465  -0.48647
 Alpha  occ. eigenvalues --   -0.48582  -0.47985  -0.47922  -0.46339  -0.44126
 Alpha  occ. eigenvalues --   -0.43097  -0.42784  -0.41184  -0.40273  -0.38752
 Alpha  occ. eigenvalues --   -0.37956  -0.37811  -0.36923  -0.28800
 Alpha virt. eigenvalues --   -0.22217  -0.15246  -0.15142  -0.14727  -0.10282
 Alpha virt. eigenvalues --   -0.09118  -0.08709  -0.08533  -0.08218  -0.07732
 Alpha virt. eigenvalues --   -0.07284  -0.07175  -0.06635  -0.06209  -0.06135

  Beta  occ. eigenvalues --  -10.70511 -10.70497 -10.68570 -10.68562 -10.68411
  Beta  occ. eigenvalues --  -10.68403 -10.68239 -10.68069 -10.68059 -10.67850
  Beta  occ. eigenvalues --  -10.67841 -10.67758 -10.67753 -10.66346 -10.66337
  Beta  occ. eigenvalues --  -10.66238 -10.66228 -10.65794 -10.65786 -10.65718
  Beta  occ. eigenvalues --  -10.65710 -10.65562 -10.65553 -10.65455 -10.65447
  Beta  occ. eigenvalues --  -10.65443 -10.65435 -10.65337 -10.65330 -10.65267
  Beta  occ. eigenvalues --  -10.65260 -10.65177 -10.65170 -10.65129 -10.65127
  Beta  occ. eigenvalues --  -10.65037 -10.65034 -10.64733 -10.64731 -10.64048
  Beta  occ. eigenvalues --  -10.63600 -10.63498  -1.11259  -1.10199  -1.09646
  Beta  occ. eigenvalues --   -1.07833  -1.07681  -1.04808  -1.04649  -1.02048
  Beta  occ. eigenvalues --   -1.01926  -1.00772  -0.99762  -0.97611  -0.97396
  Beta  occ. eigenvalues --   -0.96282  -0.96125  -0.94681  -0.93395  -0.93210
  Beta  occ. eigenvalues --   -0.92646  -0.91449  -0.86756  -0.86510  -0.84671
  Beta  occ. eigenvalues --   -0.84543  -0.82869  -0.81255  -0.80485  -0.79565
  Beta  occ. eigenvalues --   -0.79378  -0.79256  -0.76861  -0.75979  -0.75762
  Beta  occ. eigenvalues --   -0.75567  -0.75055  -0.72973  -0.69631  -0.69271
  Beta  occ. eigenvalues --   -0.68390  -0.68368  -0.67615  -0.67417  -0.66533
  Beta  occ. eigenvalues --   -0.66525  -0.65551  -0.65071  -0.64875  -0.64318
  Beta  occ. eigenvalues --   -0.63010  -0.62665  -0.62240  -0.61738  -0.60565
  Beta  occ. eigenvalues --   -0.60461  -0.60207  -0.59931  -0.59716  -0.59341
  Beta  occ. eigenvalues --   -0.59014  -0.58419  -0.58017  -0.57803  -0.57394
  Beta  occ. eigenvalues --   -0.57260  -0.55773  -0.55629  -0.55433  -0.55425
  Beta  occ. eigenvalues --   -0.54779  -0.54458  -0.52723  -0.52551  -0.52489
  Beta  occ. eigenvalues --   -0.52160  -0.52008  -0.51758  -0.50750  -0.50705
  Beta  occ. eigenvalues --   -0.50516  -0.49578  -0.49482  -0.49184  -0.48334
  Beta  occ. eigenvalues --   -0.48224  -0.47944  -0.46898  -0.45592  -0.43738
  Beta  occ. eigenvalues --   -0.42672  -0.42114  -0.40904  -0.40185  -0.38252
  Beta  occ. eigenvalues --   -0.37784  -0.37355  -0.36917
  Beta virt. eigenvalues --   -0.19634  -0.18612  -0.15237  -0.15183  -0.14804
  Beta virt. eigenvalues --   -0.10061  -0.08706  -0.08305  -0.08245  -0.08123
  Beta virt. eigenvalues --   -0.07406  -0.07333  -0.07156  -0.06614  -0.06251

 Mulliken charges and spin densities:
               1          2
     1  C    0.066945   0.306473
     2  C    0.067173   0.305561
     3  C    0.146918   0.010024
     4  C    0.069956  -0.009287
     5  C    0.026828   0.007958
     6  C    0.309673  -0.018164
     7  C   -0.267996   0.001186
     8  H    0.175655   0.000004
     9  C   -0.036567  -0.112533
    10  C   -0.268014   0.001193
    11  H    0.175658   0.000004
    12  C    0.026908   0.007945
    13  C    0.309878  -0.018123
    14  C    0.376298   0.101713
    15  C    0.317473  -0.067988
    16  C   -0.182561  -0.034845
    17  H    0.174448   0.001045
    18  C   -0.392351   0.004107
    19  H    0.173891   0.000003
    20  C    0.404809   0.085487
    21  C   -0.457522   0.019463
    22  H    0.167476   0.000403
    23  C    0.317579  -0.067829
    24  C    0.404808   0.085257
    25  C   -0.392310   0.004085
    26  H    0.173892   0.000003
    27  C    0.376054   0.101938
    28  C    0.177138   0.094577
    29  H    0.190070  -0.006428
    30  C   -0.273871   0.041560
    31  H    0.233595  -0.004525
    32  C   -0.451086   0.080254
    33  H    0.179831  -0.003880
    34  C   -0.457301   0.019494
    35  H    0.167499   0.000402
    36  C   -0.176857  -0.039642
    37  H    0.169688   0.000790
    38  C   -0.036970  -0.112369
    39  C   -0.427225   0.013084
    40  H    0.177260  -0.001121
    41  C   -0.191464   0.071184
    42  H    0.180446  -0.003364
    43  C   -0.323884   0.027568
    44  H    0.178390  -0.001289
    45  C   -0.176851  -0.039517
    46  H    0.169710   0.000786
    47  C    0.000126  -0.038167
    48  H    0.163991   0.001852
    49  C   -0.274111   0.041785
    50  H    0.233530  -0.004533
    51  C   -0.191196   0.070935
    52  H    0.180475  -0.003351
    53  C   -0.182628  -0.034730
    54  H    0.174475   0.001041
    55  C   -0.446354  -0.027637
    56  H    0.174769   0.000954
    57  C   -0.451284   0.080034
    58  H    0.179872  -0.003868
    59  C   -0.426999   0.013041
    60  H    0.177293  -0.001118
    61  C   -0.446218  -0.027801
    62  H    0.174741   0.000957
    63  C   -0.323865   0.027511
    64  H    0.178424  -0.001286
    65  C    0.177649   0.094380
    66  H    0.190094  -0.006417
    67  C    0.000051  -0.038080
    68  H    0.164050   0.001850
 Sum of Mulliken charges =   1.00000   1.00000

 Dipole moment (field-independent basis, Debye):
    X=              0.0106    Y=              2.8655    Z=              0.0097  Tot=              2.8656
 Quadrupole moment (field-independent basis, Debye-Ang):
   XX=           -205.1143   YY=           -178.7310   ZZ=           -178.6344
   XY=             -0.0032   XZ=              8.0558   YZ=             -0.0054

 Normal termination of Gaussian 16 at Thu Nov 21 08:08:49 2024.
