 Gaussian 16, Revision A.03,
 Gaussian 16:  ES64L-G16RevA.03 25-Dec-2016

 --------------------------------------------
 #p opt UM062X/6-311+G** nosymm int=superfine
 --------------------------------------------

 -------------------
 Title Card Required
 -------------------
 Symbolic Z-matrix:
 Charge =  1 Multiplicity = 2

 SCF Done:  E(UM062X) =  -79.3643133080     A.U. after   10 cycles
 SCF Done:  E(UM062X) =  -79.3667205632     A.U. after    8 cycles
 SCF Done:  E(UM062X) =  -79.3667590105     A.U. after    8 cycles
 Optimization completed.
    -- Stationary point found.

                          Input orientation:
 ---------------------------------------------------------------------
 Center     Atomic      Atomic             Coordinates (Angstroms)
 Number     Number       Type             X           Y           Z
 ---------------------------------------------------------------------
      1          6           0       -1.084271    0.000000    0.000000
      2          6           0        1.084271    0.000000    0.000000
      3          1           0        1.198267   -0.933848    0.540430
      4          1           0       -1.197639   -0.934970   -0.538629
      5          1           0        1.197932    0.935021    0.538479
      6          1           0        1.197630   -0.001106   -1.079024
      7          1           0       -1.198282    0.933894   -0.540347
      8          1           0       -1.197908    0.000955    1.078994
 ---------------------------------------------------------------------

 Alpha  occ. eigenvalues --  -10.85994 -10.85986  -1.09114  -1.01885  -0.77945
 Alpha  occ. eigenvalues --   -0.77944  -0.73982  -0.73981  -0.61095
 Alpha virt. eigenvalues --   -0.26795  -0.16168  -0.10998  -0.10998  -0.09915
 Alpha virt. eigenvalues --   -0.06987  -0.06330  -0.06330  -0.05093  -0.05091
 Alpha virt. eigenvalues --   -0.02247   0.01668   0.01671   0.04674   0.07324

  Beta  occ. eigenvalues --  -10.85782 -10.85781  -1.05734  -0.99084  -0.77041
  Beta  occ. eigenvalues --   -0.77041  -0.73244  -0.73243
  Beta virt. eigenvalues --   -0.38081  -0.19262  -0.15960  -0.11092  -0.11092
  Beta virt. eigenvalues --   -0.08737  -0.07122  -0.06608  -0.06608  -0.04706
  Beta virt. eigenvalues --   -0.04704  -0.01413   0.02253   0.02255   0.05132

 Mulliken charges and spin densities:
               1          2
     1  C   -0.310557   0.558040
     2  C   -0.310557   0.558040
     3  H    0.270197  -0.019360
     4  H    0.270173  -0.019337
     5  H    0.270186  -0.019343
     6  H    0.270174  -0.019337
     7  H    0.270198  -0.019360
     8  H    0.270186  -0.019343
 Sum of Mulliken charges =   1.00000   1.00000

 Dipole moment (field-independent basis, Debye):
    X=              0.0000    Y=             -0.0000    Z=             -0.0000  Tot=              0.0000
 Quadrupole moment (field-independent basis, Debye-Ang):
   XX=             -5.7024   YY=            -10.8209   ZZ=            -10.8210
   XY=             -0.0006   XZ=              0.0004   YZ=              0.0000

 Normal termination of Gaussian 16 at Wed Nov 13 13:25:22 2024.
