 Gaussian 16, Revision A.03,
 Gaussian 16:  ES64L-G16RevA.03 25-Dec-2016

 --------------------------------------------
 #p opt UM062X/6-311+G** nosymm int=superfine
 --------------------------------------------

 -------------------
 Title Card Required
 -------------------
 Symbolic Z-matrix:
 Charge =  0 Multiplicity = 1

 SCF Done:  E(UM062X) =  -579.875472152     A.U. after   10 cycles
 SCF Done:  E(UM062X) =  -579.878169078     A.U. after   10 cycles
 SCF Done:  E(UM062X) =  -579.878173220     A.U. after   10 cycles
 Optimization completed.
    -- Stationary point found.

                          Input orientation:
 ---------------------------------------------------------------------
 Center     Atomic      Atomic             Coordinates (Angstroms)
 Number     Number       Type             X           Y           Z
 ---------------------------------------------------------------------
      1         14           0       -2.353705    0.000000    0.000000
      2         14           0        2.353705    0.000000    0.000000
      3          1           0       -3.877466   -0.000028    0.000000
      4          1           0        3.877466    0.000039    0.000000
 ---------------------------------------------------------------------

 Alpha  occ. eigenvalues --  -67.04519 -67.04519  -5.58954  -5.58953  -3.90068
 Alpha  occ. eigenvalues --   -3.90068  -3.89614  -3.89613  -3.89472  -3.89472
 Alpha  occ. eigenvalues --   -0.54955  -0.54778  -0.33288  -0.31980  -0.17500
 Alpha virt. eigenvalues --   -0.11168  -0.09030  -0.08425   0.02251   0.02929
 Alpha virt. eigenvalues --    0.04459   0.05615   0.05704   0.05901   0.06668
 Alpha virt. eigenvalues --    0.07033   0.08238   0.14972   0.28395   0.29788

  Beta  occ. eigenvalues --  -67.04519 -67.04519  -5.58954  -5.58953  -3.90068
  Beta  occ. eigenvalues --   -3.90068  -3.89614  -3.89613  -3.89472  -3.89472
  Beta  occ. eigenvalues --   -0.54955  -0.54778  -0.33288  -0.31980  -0.17500
  Beta virt. eigenvalues --   -0.11168  -0.09030  -0.08425   0.02251   0.02929
  Beta virt. eigenvalues --    0.04459   0.05615   0.05704   0.05901   0.06668
  Beta virt. eigenvalues --    0.07033   0.08238   0.14972   0.28395   0.29788

 Mulliken charges and spin densities:
               1          2
     1  Si   0.152434   0.000000
     2  Si   0.152433  -0.000000
     3  H   -0.152434  -0.000000
     4  H   -0.152434   0.000000
 Sum of Mulliken charges =  -0.00000  -0.00000

 Dipole moment (field-independent basis, Debye):
    X=             -0.0000    Y=              0.0000    Z=              0.0000  Tot=              0.0000
 Quadrupole moment (field-independent basis, Debye-Ang):
   XX=            -30.3242   YY=            -24.2509   ZZ=            -35.6230
   XY=             -0.0002   XZ=             -0.0000   YZ=              0.0018

 Normal termination of Gaussian 16 at Mon Apr 21 21:21:10 2025.
