 Gaussian 16, Revision A.03,
 Gaussian 16:  ES64L-G16RevA.03 25-Dec-2016

 --------------------------------------------
 #p opt UM062X/6-311+G** nosymm int=superfine
 --------------------------------------------

 -------------------
 Title Card Required
 -------------------
 Symbolic Z-matrix:
 Charge =  0 Multiplicity = 1

 SCF Done:  E(UM062X) =  -92.8528442667     A.U. after   12 cycles
 SCF Done:  E(UM062X) =  -92.8548113141     A.U. after   11 cycles
 SCF Done:  E(UM062X) =  -92.8548224235     A.U. after    8 cycles
 Optimization completed.
    -- Stationary point found.

                          Input orientation:
 ---------------------------------------------------------------------
 Center     Atomic      Atomic             Coordinates (Angstroms)
 Number     Number       Type             X           Y           Z
 ---------------------------------------------------------------------
      1          6           0       -1.472395    0.000000    0.000000
      2          7           0        1.472395    0.000000    0.000000
      3          1           0       -2.597944    0.000000   -0.000000
 ---------------------------------------------------------------------

 Alpha  occ. eigenvalues --  -14.83550 -10.75728  -0.79705  -0.77588  -0.44723
 Alpha  occ. eigenvalues --   -0.27882  -0.27882
 Alpha virt. eigenvalues --   -0.16968  -0.16968  -0.08797   0.00352   0.06857
 Alpha virt. eigenvalues --    0.06857   0.07496   0.13052   0.17119   0.17158
 Alpha virt. eigenvalues --    0.17158   0.24964   0.42931   0.52466   0.52466

  Beta  occ. eigenvalues --  -14.83550 -10.75728  -0.79705  -0.77588  -0.44723
  Beta  occ. eigenvalues --   -0.27882  -0.27882
  Beta virt. eigenvalues --   -0.16968  -0.16968  -0.08797   0.00352   0.06857
  Beta virt. eigenvalues --    0.06857   0.07496   0.13052   0.17119   0.17158
  Beta virt. eigenvalues --    0.17158   0.24964   0.42931   0.52466   0.52466

 Mulliken charges and spin densities:
               1          2
     1  C    0.021505   0.000000
     2  N   -0.205133   0.000000
     3  H    0.183628  -0.000000
 Sum of Mulliken charges =   0.00000   0.00000

 Dipole moment (field-independent basis, Debye):
    X=             -4.9930    Y=             -0.0000    Z=              0.0000  Tot=              4.9930
 Quadrupole moment (field-independent basis, Debye-Ang):
   XX=             -5.3550   YY=            -14.3130   ZZ=            -14.3130
   XY=             -0.0000   XZ=             -0.0000   YZ=              0.0000

 Normal termination of Gaussian 16 at Mon Apr 21 18:39:27 2025.
