 Gaussian 16, Revision A.03,
 Gaussian 16:  ES64L-G16RevA.03 25-Dec-2016

 --------------------------------------------
 #p opt UM062X/6-311+G** nosymm int=superfine
 --------------------------------------------

 -------------------
 Title Card Required
 -------------------
 Symbolic Z-matrix:
 Charge =  0 Multiplicity = 1

 SCF Done:  E(UM062X) =  -81.7725840431     A.U. after   15 cycles
 SCF Done:  E(UM062X) =  -81.7790553268     A.U. after   11 cycles
 SCF Done:  E(UM062X) =  -81.7828562639     A.U. after   13 cycles
 SCF Done:  E(UM062X) =  -81.7828517710     A.U. after   15 cycles
 SCF Done:  E(UM062X) =  -81.7858794175     A.U. after   13 cycles
 SCF Done:  E(UM062X) =  -81.7843893661     A.U. after   14 cycles
 SCF Done:  E(UM062X) =  -81.7893236791     A.U. after   12 cycles
 SCF Done:  E(UM062X) =  -81.7917108661     A.U. after   12 cycles
 SCF Done:  E(UM062X) =  -81.7939177489     A.U. after   11 cycles
 SCF Done:  E(UM062X) =  -81.8007392586     A.U. after   13 cycles
 SCF Done:  E(UM062X) =  -81.8036126955     A.U. after   13 cycles
 SCF Done:  E(UM062X) =  -81.8056084742     A.U. after   12 cycles
 SCF Done:  E(UM062X) =  -81.8059075104     A.U. after   11 cycles
 SCF Done:  E(UM062X) =  -81.8059771457     A.U. after   11 cycles
 SCF Done:  E(UM062X) =  -81.8059845046     A.U. after   10 cycles
 Optimization completed.
    -- Stationary point found.

                          Input orientation:
 ---------------------------------------------------------------------
 Center     Atomic      Atomic             Coordinates (Angstroms)
 Number     Number       Type             X           Y           Z
 ---------------------------------------------------------------------
      1          5           0       -1.370399    0.000000    0.000000
      2          7           0        1.370399    0.000000    0.000000
      3          1           0       -1.767726   -1.103853   -0.028493
      4          1           0        1.445260    0.805992    0.626439
      5          1           0       -1.767732    1.103856   -0.028276
      6          1           0        1.445261   -0.806090    0.626313
 ---------------------------------------------------------------------

 Alpha  occ. eigenvalues --  -14.72247  -7.16564  -0.87994  -0.61372  -0.49689
 Alpha  occ. eigenvalues --   -0.48530  -0.34087  -0.27312
 Alpha virt. eigenvalues --   -0.07329  -0.05093   0.01204   0.03125   0.04317
 Alpha virt. eigenvalues --    0.05382   0.10741   0.13021   0.13774   0.17220
 Alpha virt. eigenvalues --    0.20562   0.20960   0.21333   0.30144   0.32971

  Beta  occ. eigenvalues --  -14.72247  -7.16564  -0.87994  -0.61372  -0.49689
  Beta  occ. eigenvalues --   -0.48530  -0.34087  -0.27312
  Beta virt. eigenvalues --   -0.07329  -0.05093   0.01204   0.03125   0.04317
  Beta virt. eigenvalues --    0.05382   0.10741   0.13021   0.13774   0.17220
  Beta virt. eigenvalues --    0.20562   0.20960   0.21333   0.30144   0.32971

 Mulliken charges and spin densities:
               1          2
     1  B    0.188274  -0.000003
     2  N   -0.732145   0.000003
     3  H    0.051445   0.000000
     4  H    0.220490  -0.000000
     5  H    0.051445   0.000000
     6  H    0.220490  -0.000000
 Sum of Mulliken charges =  -0.00000   0.00000

 Dipole moment (field-independent basis, Debye):
    X=             -3.6710    Y=             -0.0001    Z=              1.7384  Tot=              4.0618
 Quadrupole moment (field-independent basis, Debye-Ang):
   XX=            -14.6430   YY=            -13.4001   ZZ=            -14.4447
   XY=             -0.0002   XZ=              2.9119   YZ=              0.0001

 Normal termination of Gaussian 16 at Mon Apr 21 17:49:16 2025.
