 Gaussian 16, Revision A.03,
 Gaussian 16:  ES64L-G16RevA.03 25-Dec-2016

 --------------------------------------------
 #p opt UM062X/6-311+G** nosymm int=superfine
 --------------------------------------------

 -------------------
 Title Card Required
 -------------------
 Symbolic Z-matrix:
 Charge =  0 Multiplicity = 1

 SCF Done:  E(UM062X) =  -81.6952299082     A.U. after   25 cycles
 SCF Done:  E(UM062X) =  -81.7118926875     A.U. after   16 cycles
 SCF Done:  E(UM062X) =  -81.7187929475     A.U. after   16 cycles
 SCF Done:  E(UM062X) =  -81.7207002189     A.U. after   16 cycles
 SCF Done:  E(UM062X) =  -81.7243285663     A.U. after   15 cycles
 SCF Done:  E(UM062X) =  -81.7260601439     A.U. after   15 cycles
 SCF Done:  E(UM062X) =  -81.7262618721     A.U. after   14 cycles
 SCF Done:  E(UM062X) =  -81.7264789812     A.U. after   13 cycles
 SCF Done:  E(UM062X) =  -81.7266106215     A.U. after   14 cycles
 SCF Done:  E(UM062X) =  -81.7266521046     A.U. after   12 cycles
 SCF Done:  E(UM062X) =  -81.7266623034     A.U. after   12 cycles
 SCF Done:  E(UM062X) =  -81.7266628046     A.U. after   10 cycles
 Optimization completed.
    -- Stationary point found.

                          Input orientation:
 ---------------------------------------------------------------------
 Center     Atomic      Atomic             Coordinates (Angstroms)
 Number     Number       Type             X           Y           Z
 ---------------------------------------------------------------------
      1          5           0       -1.945399    0.000000    0.000000
      2          7           0        1.945399    0.000000    0.000000
      3          1           0       -2.268594   -1.125942   -0.026316
      4          1           0        1.923831    0.802289    0.638130
      5          1           0       -2.268596    1.125929   -0.026863
      6          1           0        1.923832   -0.801969    0.638532
 ---------------------------------------------------------------------

 Alpha  occ. eigenvalues --  -14.71596  -7.18585  -0.87325  -0.63319  -0.52046
 Alpha  occ. eigenvalues --   -0.47976  -0.33248  -0.22911
 Alpha virt. eigenvalues --   -0.11704  -0.09170   0.00569   0.02593   0.04162
 Alpha virt. eigenvalues --    0.04988   0.09109   0.11367   0.13550   0.17399
 Alpha virt. eigenvalues --    0.19899   0.20267   0.21720   0.26866   0.32283

  Beta  occ. eigenvalues --  -14.71596  -7.18585  -0.87325  -0.63319  -0.52046
  Beta  occ. eigenvalues --   -0.47976  -0.33248  -0.22911
  Beta virt. eigenvalues --   -0.11704  -0.09170   0.00569   0.02593   0.04162
  Beta virt. eigenvalues --    0.04988   0.09109   0.11367   0.13550   0.17399
  Beta virt. eigenvalues --    0.19899   0.20267   0.21720   0.26866   0.32283

 Mulliken charges and spin densities:
               1          2
     1  B    0.144205   0.000001
     2  N   -0.687584  -0.000001
     3  H    0.070155   0.000000
     4  H    0.201535   0.000000
     5  H    0.070155   0.000000
     6  H    0.201535   0.000000
 Sum of Mulliken charges =  -0.00000  -0.00000

 Dipole moment (field-independent basis, Debye):
    X=             -5.6424    Y=              0.0005    Z=              1.8867  Tot=              5.9495
 Quadrupole moment (field-independent basis, Debye-Ang):
   XX=            -13.8574   YY=            -13.4630   ZZ=            -14.6227
   XY=              0.0010   XZ=              3.9062   YZ=             -0.0003

 Normal termination of Gaussian 16 at Mon Apr 21 17:50:15 2025.
