 Gaussian 16, Revision A.03,
 Gaussian 16:  ES64L-G16RevA.03 25-Dec-2016

 --------------------------------------------
 #p opt UM062X/6-311+G** nosymm int=superfine
 --------------------------------------------

 -------------------
 Title Card Required
 -------------------
 Symbolic Z-matrix:
 Charge =  1 Multiplicity = 2

 SCF Done:  E(UM062X) =  -79.3314350103     A.U. after   10 cycles
 SCF Done:  E(UM062X) =  -79.3317050336     A.U. after    9 cycles
 Optimization completed.
    -- Stationary point found.

                          Input orientation:
 ---------------------------------------------------------------------
 Center     Atomic      Atomic             Coordinates (Angstroms)
 Number     Number       Type             X           Y           Z
 ---------------------------------------------------------------------
      1          6           0       -1.640673    0.000000    0.000000
      2          6           0        1.640673    0.000000    0.000000
      3          1           0        1.683524   -0.937604    0.542665
      4          1           0       -1.682082   -0.938714   -0.540857
      5          1           0        1.682910    0.938804    0.540637
      6          1           0        1.682104   -0.001164   -1.083376
      7          1           0       -1.683557    0.937703   -0.542493
      8          1           0       -1.682867    0.000941    1.083346
 ---------------------------------------------------------------------

 Alpha  occ. eigenvalues --  -10.84703 -10.84700  -1.03444  -1.02444  -0.74254
 Alpha  occ. eigenvalues --   -0.74254  -0.73802  -0.73802  -0.51048
 Alpha virt. eigenvalues --   -0.36287  -0.13655  -0.10202  -0.10111  -0.10111
 Alpha virt. eigenvalues --   -0.06244  -0.06244  -0.04916  -0.03274  -0.01535
 Alpha virt. eigenvalues --   -0.01532   0.01279   0.01282   0.04342   0.07850

  Beta  occ. eigenvalues --  -10.84500 -10.84500  -1.00676  -1.00010  -0.73739
  Beta  occ. eigenvalues --   -0.73738  -0.73290  -0.73290
  Beta virt. eigenvalues --   -0.32633  -0.26057  -0.15507  -0.11140  -0.11140
  Beta virt. eigenvalues --   -0.10055  -0.06368  -0.06367  -0.05218  -0.02371
  Beta virt. eigenvalues --   -0.01865  -0.01862   0.01577   0.01579   0.05153

 Mulliken charges and spin densities:
               1          2
     1  C   -0.268736   0.563815
     2  C   -0.268738   0.563818
     3  H    0.256265  -0.021274
     4  H    0.256218  -0.021278
     5  H    0.256244  -0.021277
     6  H    0.256228  -0.021265
     7  H    0.256266  -0.021274
     8  H    0.256254  -0.021264
 Sum of Mulliken charges =   1.00000   1.00000

 Dipole moment (field-independent basis, Debye):
    X=             -0.0000    Y=             -0.0000    Z=             -0.0001  Tot=              0.0001
 Quadrupole moment (field-independent basis, Debye-Ang):
   XX=              1.8434   YY=            -11.0614   ZZ=            -11.0614
   XY=             -0.0016   XZ=              0.0009   YZ=              0.0000

 Normal termination of Gaussian 16 at Wed Nov 13 12:38:15 2024.
