 Gaussian 16, Revision A.03,
 Gaussian 16:  ES64L-G16RevA.03 25-Dec-2016

 --------------------------------------------
 #p opt UM062X/6-311+G** nosymm int=superfine
 --------------------------------------------

 -------------------
 Title Card Required
 -------------------
 Symbolic Z-matrix:
 Charge =  0 Multiplicity = 1

 SCF Done:  E(UM062X) =  -95.6806128334     A.U. after   13 cycles
 SCF Done:  E(UM062X) =  -95.6973101731     A.U. after   11 cycles
 SCF Done:  E(UM062X) =  -95.7043758581     A.U. after   11 cycles
 SCF Done:  E(UM062X) =  -95.7044686417     A.U. after   10 cycles
 SCF Done:  E(UM062X) =  -95.7044794974     A.U. after    9 cycles
 SCF Done:  E(UM062X) =  -95.7044854445     A.U. after    9 cycles
 Optimization completed.
    -- Stationary point found.

                          Input orientation:
 ---------------------------------------------------------------------
 Center     Atomic      Atomic             Coordinates (Angstroms)
 Number     Number       Type             X           Y           Z
 ---------------------------------------------------------------------
      1          6           0       -1.230542    0.000000    0.000000
      2          7           0        1.230542    0.000000    0.000000
      3          1           0        1.276730   -1.014291    0.134424
      4          1           0       -1.352934    1.073557    0.001141
      5          1           0        1.276606    0.371380    0.953390
      6          1           0       -1.352825   -0.514571   -0.942210
      7          1           0       -1.449272   -0.540908    0.910606
 ---------------------------------------------------------------------

 Alpha  occ. eigenvalues --  -14.75044 -10.60135  -0.90595  -0.78891  -0.51746
 Alpha  occ. eigenvalues --   -0.50997  -0.49807  -0.36242  -0.30198
 Alpha virt. eigenvalues --   -0.06106   0.01562   0.05023   0.05625   0.06856
 Alpha virt. eigenvalues --    0.10674   0.13519   0.16009   0.16602   0.17966
 Alpha virt. eigenvalues --    0.20460   0.22101   0.22217   0.31745   0.41559

  Beta  occ. eigenvalues --  -14.75044 -10.60135  -0.90595  -0.78891  -0.51746
  Beta  occ. eigenvalues --   -0.50997  -0.49807  -0.36242  -0.30198
  Beta virt. eigenvalues --   -0.06106   0.01562   0.05023   0.05625   0.06856
  Beta virt. eigenvalues --    0.10674   0.13519   0.16009   0.16602   0.17966
  Beta virt. eigenvalues --    0.20460   0.22101   0.22217   0.31745   0.41559

 Mulliken charges and spin densities:
               1          2
     1  C   -0.428205  -0.000000
     2  N   -0.590633   0.000000
     3  H    0.229338  -0.000000
     4  H    0.192056   0.000000
     5  H    0.229328  -0.000000
     6  H    0.192129   0.000000
     7  H    0.175987   0.000000
 Sum of Mulliken charges =  -0.00000  -0.00000

 Dipole moment (field-independent basis, Debye):
    X=             -2.1623    Y=             -0.9248    Z=              1.5647  Tot=              2.8248
 Quadrupole moment (field-independent basis, Debye-Ang):
   XX=            -15.2281   YY=            -13.3007   ZZ=            -14.1353
   XY=             -1.3957   XZ=              2.3614   YZ=              0.7583

 Normal termination of Gaussian 16 at Mon Apr 21 18:12:26 2025.
