 Gaussian 16, Revision A.03,
 Gaussian 16:  ES64L-G16RevA.03 25-Dec-2016

 ---------------------------------------------------------------------
 #p opt UM062X/6-311+G** nosymm int=superfine SCF=(Tight,MaxCycle=200)
 ---------------------------------------------------------------------

 -------------------
 Title Card Required
 -------------------
 Symbolic Z-matrix:
 Charge =  1 Multiplicity = 2

 SCF Done:  E(UM062X) =  -1614.85624087     A.U. after   22 cycles
 SCF Done:  E(UM062X) =  -1615.10519961     A.U. after   21 cycles
 SCF Done:  E(UM062X) =  -1615.43820988     A.U. after   20 cycles
 SCF Done:  E(UM062X) =  -1615.54376551     A.U. after   20 cycles
 SCF Done:  E(UM062X) =  -1615.55010441     A.U. after   21 cycles
 SCF Done:  E(UM062X) =  -1615.55263311     A.U. after   22 cycles
 SCF Done:  E(UM062X) =  -1615.55400570     A.U. after   22 cycles
 SCF Done:  E(UM062X) =  -1615.55347809     A.U. after   23 cycles
 SCF Done:  E(UM062X) =  -1615.53926247     A.U. after   23 cycles
 SCF Done:  E(UM062X) =  -1615.54150909     A.U. after   23 cycles
 SCF Done:  E(UM062X) =  -1615.55489666     A.U. after   19 cycles
 SCF Done:  E(UM062X) =  -1615.55609017     A.U. after   20 cycles
 SCF Done:  E(UM062X) =  -1615.55619159     A.U. after   21 cycles
 SCF Done:  E(UM062X) =  -1615.55645941     A.U. after   21 cycles
 SCF Done:  E(UM062X) =  -1615.55650037     A.U. after   20 cycles
 SCF Done:  E(UM062X) =  -1615.55650418     A.U. after   16 cycles
 SCF Done:  E(UM062X) =  -1615.55650910     A.U. after   17 cycles
 SCF Done:  E(UM062X) =  -1615.55650938     A.U. after   15 cycles
 SCF Done:  E(UM062X) =  -1615.55650964     A.U. after   14 cycles
 SCF Done:  E(UM062X) =  -1615.55650968     A.U. after   12 cycles
 Optimization completed.
    -- Stationary point found.

                          Input orientation:
 ---------------------------------------------------------------------
 Center     Atomic      Atomic             Coordinates (Angstroms)
 Number     Number       Type             X           Y           Z
 ---------------------------------------------------------------------
      1          6           0       -0.984426   -0.000000    0.000000
      2          6           0        0.984426   -0.000000    0.000000
      3          6           0        0.000104   -2.188526   -0.001427
      4          6           0        0.000115   -3.552296   -0.002438
      5          6           0       -1.115941   -4.328003    0.352633
      6          6           0       -1.153515   -1.474171    0.341004
      7          6           0        0.647382   -5.724945   -0.212336
      8          1           0        1.241568   -6.606429   -0.406980
      9          6           0       -1.403926    0.921414    1.097423
     10          6           0       -0.647462   -5.725266    0.203164
     11          1           0       -1.241767   -6.607049    0.396080
     12          6           0        1.116041   -4.327455   -0.359093
     13          6           0        1.153651   -1.473664   -0.343008
     14          6           0        1.610803    2.330807   -0.989643
     15          6           0       -1.408511    0.199505   -1.441608
     16          6           0       -1.858178    3.082700    2.170688
     17          1           0       -2.015332    4.149885    2.064663
     18          6           0       -2.254218   -3.636803    0.721817
     19          1           0       -3.162482   -4.152634    1.012697
     20          6           0       -1.530913    1.452698   -2.107261
     21          6           0        2.270255   -2.199732   -0.707363
     22          1           0        3.197313   -1.693262   -0.954793
     23          6           0        1.408318    0.197538    1.441934
     24          6           0        1.530369    1.449800    2.109399
     25          6           0        2.254246   -3.635693   -0.727465
     26          1           0        3.162394   -4.151083   -1.019488
     27          6           0       -1.610867    2.329334    0.992998
     28          6           0       -1.458985    0.370980    2.392944
     29          1           0       -1.282031   -0.685686    2.525455
     30          6           0        1.608701   -0.945046    2.248094
     31          1           0        1.569417   -1.933201    1.819424
     32          6           0       -1.905780    2.508260    3.416208
     33          1           0       -2.096823    3.110956    4.295345
     34          6           0       -2.270179   -2.200809    0.704023
     35          1           0       -3.197307   -1.694723    0.951976
     36          6           0       -1.762966    1.494368   -3.501034
     37          1           0       -1.828197    2.466927   -3.974949
     38          6           0        1.403809    0.923038   -1.096107
     39          6           0       -1.554686    3.119675   -0.200787
     40          1           0       -1.594843    4.190256   -0.023870
     41          6           0       -1.933772    0.356492   -4.254562
     42          1           0       -2.124586    0.420326   -5.318520
     43          6           0       -1.476955    2.753039   -1.500614
     44          1           0       -1.465289    3.573794   -2.211353
     45          6           0        1.762082    1.489502    3.503281
     46          1           0        1.827002    2.461388    3.978617
     47          6           0       -1.700081    1.128731    3.522959
     48          1           0       -1.719761    0.645204    4.492353
     49          6           0       -1.608596   -0.941971   -2.249426
     50          1           0       -1.568835   -1.930746   -1.822233
     51          6           0        1.933026    0.350574    4.255199
     52          1           0        2.123589    0.412920    5.319290
     53          6           0        1.858086    3.085872   -2.166260
     54          1           0        2.015310    4.152892   -2.058689
     55          6           0        1.872552   -0.879200    3.605535
     56          1           0        2.027322   -1.799533    4.155566
     57          6           0        1.905558    2.513259   -3.412621
     58          1           0        2.096555    3.117235   -4.290889
     59          6           0        1.554646    3.119450    0.205264
     60          1           0        1.595014    4.190274    0.029882
     61          6           0       -1.872715   -0.874219   -3.606716
     62          1           0       -2.027237   -1.793794   -4.158083
     63          6           0        1.476600    2.750991    1.504556
     64          1           0        1.464893    3.570753    2.216439
     65          6           0        1.458718    0.374514   -2.392452
     66          1           0        1.281692   -0.681943   -2.526510
     67          6           0        1.699756    1.133899   -3.521377
     68          1           0        1.719302    0.651791   -4.491480
 ---------------------------------------------------------------------

 Alpha  occ. eigenvalues --  -10.71839 -10.71829 -10.68863 -10.68862 -10.68699
 Alpha  occ. eigenvalues --  -10.68698 -10.68457 -10.68457 -10.67701 -10.67700
 Alpha  occ. eigenvalues --  -10.67378 -10.67376 -10.67139 -10.67138 -10.66432
 Alpha  occ. eigenvalues --  -10.66431 -10.66406 -10.66405 -10.66361 -10.66361
 Alpha  occ. eigenvalues --  -10.66013 -10.66012 -10.65796 -10.65796 -10.65641
 Alpha  occ. eigenvalues --  -10.65641 -10.65533 -10.65532 -10.65479 -10.65478
 Alpha  occ. eigenvalues --  -10.65314 -10.65314 -10.65144 -10.65144 -10.65107
 Alpha  occ. eigenvalues --  -10.65107 -10.64764 -10.64764 -10.64088 -10.63954
 Alpha  occ. eigenvalues --  -10.63858 -10.62481  -1.13001  -1.10396  -1.09802
 Alpha  occ. eigenvalues --   -1.08560  -1.07897  -1.06201  -1.03981  -1.02908
 Alpha  occ. eigenvalues --   -1.02457  -1.00634  -0.99812  -0.97969  -0.97855
 Alpha  occ. eigenvalues --   -0.96951  -0.96226  -0.94763  -0.93447  -0.93420
 Alpha  occ. eigenvalues --   -0.92548  -0.91812  -0.87979  -0.86783  -0.84999
 Alpha  occ. eigenvalues --   -0.84817  -0.82606  -0.81642  -0.81069  -0.80006
 Alpha  occ. eigenvalues --   -0.79727  -0.79517  -0.77844  -0.76351  -0.76120
 Alpha  occ. eigenvalues --   -0.75390  -0.75143  -0.73823  -0.70115  -0.70065
 Alpha  occ. eigenvalues --   -0.68909  -0.68104  -0.67806  -0.67600  -0.67150
 Alpha  occ. eigenvalues --   -0.66862  -0.65464  -0.65108  -0.64974  -0.64703
 Alpha  occ. eigenvalues --   -0.63640  -0.63049  -0.62276  -0.62058  -0.61485
 Alpha  occ. eigenvalues --   -0.61374  -0.60635  -0.60278  -0.60101  -0.59853
 Alpha  occ. eigenvalues --   -0.59605  -0.58815  -0.58398  -0.57953  -0.57725
 Alpha  occ. eigenvalues --   -0.57211  -0.55944  -0.55918  -0.55867  -0.55678
 Alpha  occ. eigenvalues --   -0.54916  -0.54666  -0.54100  -0.52933  -0.52804
 Alpha  occ. eigenvalues --   -0.52540  -0.52074  -0.51998  -0.51662  -0.51134
 Alpha  occ. eigenvalues --   -0.50842  -0.50733  -0.50629  -0.49112  -0.48639
 Alpha  occ. eigenvalues --   -0.48565  -0.48382  -0.48045  -0.44200  -0.43660
 Alpha  occ. eigenvalues --   -0.43513  -0.42967  -0.41022  -0.39895  -0.39885
 Alpha  occ. eigenvalues --   -0.38147  -0.37725  -0.37056  -0.35612
 Alpha virt. eigenvalues --   -0.15690  -0.15455  -0.15137  -0.14073  -0.10162
 Alpha virt. eigenvalues --   -0.10000  -0.08815  -0.08770  -0.08345  -0.07751
 Alpha virt. eigenvalues --   -0.07688  -0.07538  -0.07092  -0.06553  -0.06307

  Beta  occ. eigenvalues --  -10.71784 -10.71778 -10.68826 -10.68825 -10.68665
  Beta  occ. eigenvalues --  -10.68664 -10.68443 -10.68443 -10.67682 -10.67682
  Beta  occ. eigenvalues --  -10.67344 -10.67342 -10.67098 -10.67097 -10.66392
  Beta  occ. eigenvalues --  -10.66392 -10.66379 -10.66379 -10.66358 -10.66357
  Beta  occ. eigenvalues --  -10.66015 -10.66015 -10.65797 -10.65797 -10.65638
  Beta  occ. eigenvalues --  -10.65638 -10.65555 -10.65555 -10.65471 -10.65471
  Beta  occ. eigenvalues --  -10.65303 -10.65303 -10.65144 -10.65143 -10.65112
  Beta  occ. eigenvalues --  -10.65112 -10.64762 -10.64761 -10.64085 -10.63954
  Beta  occ. eigenvalues --  -10.63858 -10.62483  -1.12868  -1.10281  -1.09606
  Beta  occ. eigenvalues --   -1.08421  -1.07758  -1.06076  -1.03904  -1.02678
  Beta  occ. eigenvalues --   -1.02250  -1.00517  -0.99696  -0.97809  -0.97715
  Beta  occ. eigenvalues --   -0.96852  -0.96140  -0.94728  -0.93272  -0.93258
  Beta  occ. eigenvalues --   -0.92402  -0.91682  -0.87745  -0.86605  -0.84863
  Beta  occ. eigenvalues --   -0.84687  -0.82546  -0.81525  -0.80996  -0.79880
  Beta  occ. eigenvalues --   -0.79649  -0.79442  -0.77686  -0.76166  -0.75964
  Beta  occ. eigenvalues --   -0.75243  -0.75119  -0.73710  -0.70006  -0.69913
  Beta  occ. eigenvalues --   -0.68826  -0.68016  -0.67685  -0.67481  -0.67012
  Beta  occ. eigenvalues --   -0.66745  -0.65360  -0.65022  -0.64851  -0.64585
  Beta  occ. eigenvalues --   -0.63303  -0.63001  -0.62203  -0.61950  -0.61271
  Beta  occ. eigenvalues --   -0.61202  -0.60505  -0.60200  -0.59999  -0.59760
  Beta  occ. eigenvalues --   -0.59447  -0.58602  -0.58334  -0.57820  -0.57285
  Beta  occ. eigenvalues --   -0.57130  -0.55833  -0.55812  -0.55744  -0.55055
  Beta  occ. eigenvalues --   -0.54728  -0.54299  -0.53745  -0.52816  -0.52706
  Beta  occ. eigenvalues --   -0.52471  -0.52002  -0.51817  -0.51308  -0.51033
  Beta  occ. eigenvalues --   -0.50660  -0.50632  -0.49630  -0.49001  -0.48547
  Beta  occ. eigenvalues --   -0.48350  -0.48184  -0.47647  -0.43604  -0.42980
  Beta  occ. eigenvalues --   -0.42820  -0.42604  -0.40701  -0.39836  -0.39298
  Beta  occ. eigenvalues --   -0.37490  -0.37097  -0.36466
  Beta virt. eigenvalues --   -0.26041  -0.15522  -0.15027  -0.14998  -0.13620
  Beta virt. eigenvalues --   -0.09876  -0.09757  -0.08730  -0.08388  -0.08161
  Beta virt. eigenvalues --   -0.07575  -0.07566  -0.07449  -0.06566  -0.06549

 Mulliken charges and spin densities:
               1          2
     1  C    0.030155   0.008195
     2  C    0.029836   0.008159
     3  C    0.142211   0.002700
     4  C    0.125602  -0.003003
     5  C    0.136349   0.006106
     6  C    0.152891   0.006889
     7  C   -0.300704   0.000856
     8  H    0.175366  -0.000048
     9  C    0.154963   0.079546
    10  C   -0.300882   0.000861
    11  H    0.175368  -0.000048
    12  C    0.136497   0.006111
    13  C    0.153406   0.006883
    14  C   -0.019803   0.030754
    15  C    0.165942   0.051710
    16  C   -0.081093   0.042075
    17  H    0.166686  -0.001547
    18  C   -0.502577   0.002180
    19  H    0.173917   0.000351
    20  C    0.198547   0.034057
    21  C   -0.186215   0.010747
    22  H    0.173836  -0.000347
    23  C    0.165852   0.051724
    24  C    0.198619   0.034098
    25  C   -0.502538   0.002176
    26  H    0.173924   0.000351
    27  C   -0.020002   0.030734
    28  C   -0.097923  -0.046045
    29  H    0.197928   0.001400
    30  C   -0.320437  -0.009801
    31  H    0.214686   0.000500
    32  C   -0.264741   0.010206
    33  H    0.179912  -0.000507
    34  C   -0.186145   0.010744
    35  H    0.173838  -0.000347
    36  C   -0.161829   0.000315
    37  H    0.162982  -0.000246
    38  C    0.155016   0.079567
    39  C   -0.171313   0.104775
    40  H    0.169354  -0.007432
    41  C   -0.262222   0.007834
    42  H    0.177347  -0.000152
    43  C   -0.158954   0.066589
    44  H    0.163231  -0.003624
    45  C   -0.161868   0.000310
    46  H    0.162974  -0.000246
    47  C   -0.185865   0.097192
    48  H    0.176558  -0.005881
    49  C   -0.320642  -0.009784
    50  H    0.214663   0.000500
    51  C   -0.262168   0.007814
    52  H    0.177345  -0.000152
    53  C   -0.080973   0.042136
    54  H    0.166683  -0.001547
    55  C   -0.066193   0.014555
    56  H    0.175389  -0.001099
    57  C   -0.264548   0.010218
    58  H    0.179911  -0.000507
    59  C   -0.171687   0.104778
    60  H    0.169371  -0.007432
    61  C   -0.066116   0.014542
    62  H    0.175385  -0.001098
    63  C   -0.159231   0.066608
    64  H    0.163237  -0.003628
    65  C   -0.097846  -0.046045
    66  H    0.197928   0.001400
    67  C   -0.185749   0.097203
    68  H    0.176557  -0.005881
 Sum of Mulliken charges =   1.00000   1.00000

 Dipole moment (field-independent basis, Debye):
    X=             -0.0002    Y=              3.3968    Z=              0.0017  Tot=              3.3968
 Quadrupole moment (field-independent basis, Debye-Ang):
   XX=           -222.4350   YY=           -173.9382   ZZ=           -177.2359
   XY=              0.0019   XZ=             -2.0531   YZ=              0.0073

 Normal termination of Gaussian 16 at Fri Mar 21 09:14:40 2025.
