 Gaussian 16, Revision A.03,
 Gaussian 16:  ES64L-G16RevA.03 25-Dec-2016

 --------------------------------------------
 #p opt UM062X/6-311+G** nosymm int=superfine
 --------------------------------------------

 -------------------
 Title Card Required
 -------------------
 Symbolic Z-matrix:
 Charge =  0 Multiplicity = 1

 SCF Done:  E(UM062X) =  -78.2422630412     A.U. after    8 cycles
 SCF Done:  E(UM062X) =  -78.2907950457     A.U. after    8 cycles
 SCF Done:  E(UM062X) =  -78.3473016435     A.U. after   10 cycles
 SCF Done:  E(UM062X) =  -78.3599383914     A.U. after    9 cycles
 SCF Done:  E(UM062X) =  -78.3619530654     A.U. after    9 cycles
 Optimization completed.
    -- Stationary point found.

                          Input orientation:
 ---------------------------------------------------------------------
 Center     Atomic      Atomic             Coordinates (Angstroms)
 Number     Number       Type             X           Y           Z
 ---------------------------------------------------------------------
      1          6           0       -1.027452    0.000000    0.000000
      2          6           0        1.027452    0.000000    0.000000
      3          1           0       -1.487380   -0.974560    0.000000
      4          1           0       -1.487290    0.974531    0.000000
      5          1           0        1.487380    0.974560   -0.000000
      6          1           0        1.487290   -0.974531   -0.000000
 ---------------------------------------------------------------------

 Alpha  occ. eigenvalues --  -10.61268 -10.61255  -0.77309  -0.71704  -0.53025
 Alpha  occ. eigenvalues --   -0.50112  -0.37351  -0.25885
 Alpha virt. eigenvalues --   -0.06947   0.01289   0.03360   0.05387   0.07298
 Alpha virt. eigenvalues --    0.08626   0.09145   0.09908   0.11366   0.15272
 Alpha virt. eigenvalues --    0.16445   0.20494   0.21306   0.28045   0.39572

  Beta  occ. eigenvalues --  -10.61268 -10.61255  -0.77309  -0.71704  -0.53025
  Beta  occ. eigenvalues --   -0.50112  -0.37351  -0.25885
  Beta virt. eigenvalues --   -0.06947   0.01289   0.03360   0.05387   0.07298
  Beta virt. eigenvalues --    0.08626   0.09145   0.09908   0.11366   0.15272
  Beta virt. eigenvalues --    0.16445   0.20494   0.21306   0.28045   0.39572

 Mulliken charges and spin densities:
               1          2
     1  C   -0.362719  -0.000000
     2  C   -0.362719   0.000000
     3  H    0.181361   0.000000
     4  H    0.181358   0.000000
     5  H    0.181361   0.000000
     6  H    0.181358  -0.000000
 Sum of Mulliken charges =  -0.00000  -0.00000

 Dipole moment (field-independent basis, Debye):
    X=             -0.0000    Y=             -0.0000    Z=              0.0000  Tot=              0.0000
 Quadrupole moment (field-independent basis, Debye-Ang):
   XX=            -11.1533   YY=            -12.0764   ZZ=            -18.2513
   XY=              0.0002   XZ=             -0.0000   YZ=             -0.0000

 Normal termination of Gaussian 16 at Tue Nov 19 11:06:32 2024.
