 Gaussian 16, Revision A.03,
 Gaussian 16:  ES64L-G16RevA.03 25-Dec-2016

 ---------------------------------------
 #p UM062X/6-311+G** force int=superfine
 ---------------------------------------

 -------------------
 Title Card Required
 -------------------
 Symbolic Z-matrix:
 Charge =  1 Multiplicity = 2

                         Standard orientation:
 ---------------------------------------------------------------------
 Center     Atomic      Atomic             Coordinates (Angstroms)
 Number     Number       Type             X           Y           Z
 ---------------------------------------------------------------------
      1          6           0        0.370307    0.696920   -1.646804
      2          6           0       -0.370311   -0.696915    1.646805
      3          1           0       -1.253030   -1.201460    1.271278
      4          1           0        0.456977   -0.292480   -2.080797
      5          1           0       -0.456938    0.292121    2.081642
      6          1           0        0.579545   -1.218243    1.674529
      7          1           0        1.252923    1.201645   -1.271277
      8          1           0       -0.579452    1.218381   -1.675384
 ---------------------------------------------------------------------

 SCF Done:  E(UM062X) =  -79.3230105214     A.U. after   10 cycles

 The electronic state is 2-A.
 Alpha  occ. eigenvalues --  -10.84083 -10.84081  -1.02648  -1.02110  -0.73620
 Alpha  occ. eigenvalues --   -0.73619  -0.73406  -0.73406  -0.48936
 Alpha virt. eigenvalues --   -0.37188  -0.13107  -0.10209  -0.09753  -0.09753
 Alpha virt. eigenvalues --   -0.06239  -0.06239  -0.04484  -0.03143  -0.00671
 Alpha virt. eigenvalues --   -0.00668   0.01289   0.01291   0.03292   0.08297

  Beta  occ. eigenvalues --  -10.83871 -10.83871  -0.99974  -0.99618  -0.73111
  Beta  occ. eigenvalues --   -0.73111  -0.72878  -0.72878
  Beta virt. eigenvalues --   -0.32779  -0.26503  -0.15988  -0.11087  -0.11087
  Beta virt. eigenvalues --   -0.10171  -0.06277  -0.06276  -0.04996  -0.02210
  Beta virt. eigenvalues --   -0.01002  -0.00999   0.01565   0.01567   0.03303

 Mulliken charges and spin densities:
               1          2
     1  C   -0.260010   0.558764
     2  C   -0.260011   0.558763
     3  H    0.253339  -0.019605
     4  H    0.253334  -0.019569
     5  H    0.253356  -0.019568
     6  H    0.253315  -0.019590
     7  H    0.253340  -0.019605
     8  H    0.253336  -0.019590
 Sum of Mulliken charges =   1.00000   1.00000

 Dipole moment (field-independent basis, Debye):
    X=              0.0000    Y=             -0.0001    Z=             -0.0000  Tot=              0.0001
 Quadrupole moment (field-independent basis, Debye-Ang):
   XX=            -10.4415   YY=             -8.7754   ZZ=              1.8632
   XY=              1.2342   XZ=             -2.9159   YZ=             -5.4858

 Normal termination of Gaussian 16 at Wed Nov 13 13:04:55 2024.
