 Gaussian 16, Revision A.03,
 Gaussian 16:  ES64L-G16RevA.03 25-Dec-2016

 ---------------------------------------------------------
 #p opt UM062X/6-311+G** nosymm int=superfine SCF=NoVarAcc
 ---------------------------------------------------------

 -------------------
 Title Card Required
 -------------------
 Symbolic Z-matrix:
 Charge =  0 Multiplicity = 1

 SCF Done:  E(UM062X) =  -78.2064260827     A.U. after    9 cycles
 SCF Done:  E(UM062X) =  -78.2229829931     A.U. after    9 cycles
 SCF Done:  E(UM062X) =  -78.2373029443     A.U. after    8 cycles
 SCF Done:  E(UM062X) =  -78.2375681090     A.U. after    8 cycles
 Optimization completed.
    -- Stationary point found.

                          Input orientation:
 ---------------------------------------------------------------------
 Center     Atomic      Atomic             Coordinates (Angstroms)
 Number     Number       Type             X           Y           Z
 ---------------------------------------------------------------------
      1          6           0       -5.535595    0.000000    0.000000
      2          6           0        5.535595    0.000000    0.000000
      3          1           0       -6.234189   -0.861035   -0.000000
      4          1           0       -6.234160    0.861051   -0.000000
      5          1           0        6.234189    0.861035    0.000000
      6          1           0        6.234160   -0.861051    0.000000
 ---------------------------------------------------------------------

 Alpha  occ. eigenvalues --  -10.60737 -10.60737  -0.75664  -0.75664  -0.47544
 Alpha  occ. eigenvalues --   -0.47544  -0.31357  -0.31357
 Alpha virt. eigenvalues --   -0.08180  -0.08180   0.02422   0.02425   0.06675
 Alpha virt. eigenvalues --    0.06685   0.08616   0.08624   0.09235   0.09384
 Alpha virt. eigenvalues --    0.17689   0.17693   0.19559   0.19561   0.44194

  Beta  occ. eigenvalues --  -10.60737 -10.60737  -0.75664  -0.75664  -0.47544
  Beta  occ. eigenvalues --   -0.47544  -0.31357  -0.31357
  Beta virt. eigenvalues --   -0.08180  -0.08180   0.02422   0.02425   0.06675
  Beta virt. eigenvalues --    0.06685   0.08616   0.08624   0.09235   0.09384
  Beta virt. eigenvalues --    0.17689   0.17693   0.19559   0.19561   0.44194

 Mulliken charges and spin densities:
               1          2
     1  C   -0.254088  -0.000000
     2  C   -0.254088  -0.000000
     3  H    0.127044   0.000000
     4  H    0.127044  -0.000000
     5  H    0.127044  -0.000000
     6  H    0.127044   0.000000
 Sum of Mulliken charges =  -0.00000  -0.00000

 Dipole moment (field-independent basis, Debye):
    X=             -0.0000    Y=              0.0000    Z=              0.0000  Tot=              0.0000
 Quadrupole moment (field-independent basis, Debye-Ang):
   XX=             27.9870   YY=            -14.4562   ZZ=            -12.8716
   XY=             -0.0003   XZ=              0.0000   YZ=              0.0000

 Normal termination of Gaussian 16 at Tue Dec  3 17:40:49 2024.
