 Gaussian 16, Revision A.03,
 Gaussian 16:  ES64L-G16RevA.03 25-Dec-2016

 --------------------------------------------
 #p opt UM062X/6-311+G** nosymm int=superfine
 --------------------------------------------

 -------------------
 Title Card Required
 -------------------
 Symbolic Z-matrix:
 Charge = -1 Multiplicity = 2

 SCF Done:  E(UM062X) =  -50.5721611273     A.U. after   17 cycles

 Alpha  occ. eigenvalues --   -6.93894  -6.93884  -0.37359  -0.35727  -0.15764
 Alpha  occ. eigenvalues --   -0.01523  -0.00363
 Alpha virt. eigenvalues --    0.12841   0.12971   0.13574   0.15209   0.15390
 Alpha virt. eigenvalues --    0.20177   0.21357   0.21424   0.21790   0.22673
 Alpha virt. eigenvalues --    0.25703   0.36940   0.39480   0.54480   0.57667

  Beta  occ. eigenvalues --   -6.93839  -6.93833  -0.35862  -0.34786  -0.14365
  Beta  occ. eigenvalues --    0.01207
  Beta virt. eigenvalues --    0.10256   0.13413   0.13871   0.14048   0.14444
  Beta virt. eigenvalues --    0.16160   0.19201   0.20218   0.20471   0.22932
  Beta virt. eigenvalues --    0.23210   0.23640   0.37073   0.39476   0.53806

 Mulliken charges and spin densities:
               1          2
     1  B   -0.530495   0.526986
     2  B   -0.530495   0.526986
     3  H    0.030495  -0.026986
     4  H    0.030495  -0.026986
 Sum of Mulliken charges =  -1.00000   1.00000

 Dipole moment (field-independent basis, Debye):
    X=              0.0000    Y=              0.0000    Z=             -0.0000  Tot=              0.0000
 Quadrupole moment (field-independent basis, Debye-Ang):
   XX=            -24.4580   YY=            -31.6019   ZZ=            -24.2245
   XY=              0.0104   XZ=              0.0000   YZ=             -0.0000

 Optimization completed.
    -- Stationary point found.

                          Input orientation:
 ---------------------------------------------------------------------
 Center     Atomic      Atomic             Coordinates (Angstroms)
 Number     Number       Type             X           Y           Z
 ---------------------------------------------------------------------
      1          5           0       -1.241404    0.000000    0.000000
      2          5           0        1.241404    0.000000    0.000000
      3          1           0       -2.425183   -0.000904    0.000000
      4          1           0        2.425183    0.000904    0.000000
 ---------------------------------------------------------------------

 Normal termination of Gaussian 16 at Mon Apr 21 17:28:39 2025.
