 Gaussian 16, Revision A.03,
 Gaussian 16:  ES64L-G16RevA.03 25-Dec-2016

 --------------------------------------------
 #p opt UM062X/6-311+G** nosymm int=superfine
 --------------------------------------------

 -------------------
 Title Card Required
 -------------------
 Symbolic Z-matrix:
 Charge =  1 Multiplicity = 2

 SCF Done:  E(UM062X) =  -80.1653115230     A.U. after   18 cycles
 SCF Done:  E(UM062X) =  -80.1660966610     A.U. after   10 cycles
 SCF Done:  E(UM062X) =  -80.1660991040     A.U. after   10 cycles
 Optimization completed.
    -- Stationary point found.

                          Input orientation:
 ---------------------------------------------------------------------
 Center     Atomic      Atomic             Coordinates (Angstroms)
 Number     Number       Type             X           Y           Z
 ---------------------------------------------------------------------
      1          5           0       -1.427734    0.000000    0.000000
      2          7           0        1.427734    0.000000    0.000000
      3          1           0       -2.630713   -0.000483   -0.000000
      4          1           0        2.464252   -0.000380   -0.000000
 ---------------------------------------------------------------------

 Alpha  occ. eigenvalues --  -14.99721  -7.51803  -1.12392  -0.84782  -0.66872
 Alpha  occ. eigenvalues --   -0.59027  -0.59027
 Alpha virt. eigenvalues --   -0.39269  -0.32329  -0.32329  -0.14425  -0.10768
 Alpha virt. eigenvalues --   -0.09589  -0.09589  -0.06995  -0.00336  -0.00163
 Alpha virt. eigenvalues --   -0.00163   0.05917   0.08513   0.14636   0.14636

  Beta  occ. eigenvalues --  -14.97364  -7.53066  -0.99774  -0.88310  -0.68066
  Beta  occ. eigenvalues --   -0.59587
  Beta virt. eigenvalues --   -0.34901  -0.34901  -0.23439  -0.23439  -0.14150
  Beta virt. eigenvalues --   -0.10895  -0.09251  -0.09251  -0.07218  -0.01006
  Beta virt. eigenvalues --    0.01396   0.01396   0.04624   0.09659   0.16359

 Mulliken charges and spin densities:
               1          2
     1  B    0.709530  -0.819661
     2  N   -0.230916   2.040323
     3  H    0.215159  -0.141049
     4  H    0.306226  -0.079613
 Sum of Mulliken charges =   1.00000   1.00000

 Dipole moment (field-independent basis, Debye):
    X=             -4.6923    Y=             -0.0010    Z=             -0.0000  Tot=              4.6923
 Quadrupole moment (field-independent basis, Debye-Ang):
   XX=              9.2030   YY=            -10.2658   ZZ=            -10.2658
   XY=             -0.0008   XZ=              0.0000   YZ=             -0.0000

 Normal termination of Gaussian 16 at Mon Apr 21 17:57:50 2025.
