 Gaussian 16, Revision A.03,
 Gaussian 16:  ES64L-G16RevA.03 25-Dec-2016

 --------------------------------------------
 #p opt UM062X/6-311+G** nosymm int=superfine
 --------------------------------------------

 -------------------
 Title Card Required
 -------------------
 Symbolic Z-matrix:
 Charge =  0 Multiplicity = 1

 SCF Done:  E(UM062X) =  -79.5932879373     A.U. after    9 cycles
 SCF Done:  E(UM062X) =  -79.6334707209     A.U. after    8 cycles
 SCF Done:  E(UM062X) =  -79.6755988530     A.U. after   10 cycles
 SCF Done:  E(UM062X) =  -79.6892691091     A.U. after   10 cycles
 SCF Done:  E(UM062X) =  -79.6899518868     A.U. after    8 cycles
 SCF Done:  E(UM062X) =  -79.6899551761     A.U. after    7 cycles
 Optimization completed.
    -- Stationary point found.

                          Input orientation:
 ---------------------------------------------------------------------
 Center     Atomic      Atomic             Coordinates (Angstroms)
 Number     Number       Type             X           Y           Z
 ---------------------------------------------------------------------
      1          6           0       -1.191133    0.000000    0.000000
      2          6           0        1.191255    0.000000    0.000000
      3          1           0        1.411956   -0.917157    0.530711
      4          1           0       -1.411824   -0.918195   -0.528921
      5          1           0        1.411949    0.918195    0.528919
      6          1           0        1.411932   -0.001033   -1.059645
      7          1           0       -1.411834    0.917157   -0.530711
      8          1           0       -1.411814    0.001032    1.059644
 ---------------------------------------------------------------------

 Alpha  occ. eigenvalues --  -10.55606 -10.55601  -0.77576  -0.73983  -0.48269
 Alpha  occ. eigenvalues --   -0.48269  -0.46121  -0.46120  -0.28835
 Alpha virt. eigenvalues --   -0.01045   0.02513   0.05541   0.05541   0.07220
 Alpha virt. eigenvalues --    0.08270   0.08270   0.10038   0.13049   0.18162
 Alpha virt. eigenvalues --    0.18162   0.22055   0.22055   0.24364   0.26245

  Beta  occ. eigenvalues --  -10.55606 -10.55601  -0.77576  -0.73983  -0.48269
  Beta  occ. eigenvalues --   -0.48269  -0.46121  -0.46120  -0.28835
  Beta virt. eigenvalues --   -0.01045   0.02513   0.05541   0.05541   0.07220
  Beta virt. eigenvalues --    0.08270   0.08270   0.10038   0.13049   0.18162
  Beta virt. eigenvalues --    0.18162   0.22055   0.22055   0.24364   0.26245

 Mulliken charges and spin densities:
               1          2
     1  C   -0.509128   0.000000
     2  C   -0.509128  -0.000000
     3  H    0.169709  -0.000000
     4  H    0.169709  -0.000000
     5  H    0.169709   0.000000
     6  H    0.169710  -0.000000
     7  H    0.169709  -0.000000
     8  H    0.169710  -0.000000
 Sum of Mulliken charges =  -0.00000   0.00000

 Dipole moment (field-independent basis, Debye):
    X=              0.0000    Y=             -0.0000    Z=             -0.0000  Tot=              0.0000
 Quadrupole moment (field-independent basis, Debye-Ang):
   XX=            -15.5362   YY=            -14.8115   ZZ=            -14.8116
   XY=             -0.0000   XZ=              0.0000   YZ=             -0.0000

 Normal termination of Gaussian 16 at Tue Nov 19 12:21:20 2024.
