 Gaussian 16, Revision A.03,
 Gaussian 16:  ES64L-G16RevA.03 25-Dec-2016

 --------------------------------------------
 #p opt UM062X/6-311+G** nosymm int=superfine
 --------------------------------------------

 -------------------
 Title Card Required
 -------------------
 Symbolic Z-matrix:
 Charge =  1 Multiplicity = 1

 SCF Done:  E(UM062X) =  -38.0763078399     A.U. after    8 cycles
 SCF Done:  E(UM062X) =  -38.0773773827     A.U. after    8 cycles
 SCF Done:  E(UM062X) =  -38.0773807009     A.U. after    6 cycles
 Optimization completed.
    -- Stationary point found.

                          Input orientation:
 ---------------------------------------------------------------------
 Center     Atomic      Atomic             Coordinates (Angstroms)
 Number     Number       Type             X           Y           Z
 ---------------------------------------------------------------------
      1          6           0       -0.772789    0.000000    0.000000
      2          1           0       -1.900822    0.000000    0.000000
 ---------------------------------------------------------------------

 Alpha  occ. eigenvalues --  -11.15837  -1.13391  -0.78271
 Alpha virt. eigenvalues --   -0.46925  -0.46925  -0.18894  -0.11350  -0.11062
 Alpha virt. eigenvalues --   -0.11062  -0.07297   0.19245   0.27662   0.27662
 Alpha virt. eigenvalues --    0.31809   0.37255   0.81413   0.81413   0.93681

  Beta  occ. eigenvalues --  -11.15837  -1.13391  -0.78271
  Beta virt. eigenvalues --   -0.46925  -0.46925  -0.18894  -0.11350  -0.11062
  Beta virt. eigenvalues --   -0.11062  -0.07297   0.19245   0.27662   0.27662
  Beta virt. eigenvalues --    0.31809   0.37255   0.81413   0.81413   0.93681

 Mulliken charges and spin densities:
               1          2
     1  C    0.728234   0.000000
     2  H    0.271766  -0.000000
 Sum of Mulliken charges =   1.00000   0.00000

 Dipole moment (field-independent basis, Debye):
    X=             -5.9697    Y=             -0.0000    Z=              0.0000  Tot=              5.9697
 Quadrupole moment (field-independent basis, Debye-Ang):
   XX=              2.4791   YY=             -3.8858   ZZ=             -3.8858
   XY=              0.0000   XZ=             -0.0000   YZ=             -0.0000

 Normal termination of Gaussian 16 at Wed Apr 16 08:38:36 2025.
