 Gaussian 16, Revision A.03,
 Gaussian 16:  ES64L-G16RevA.03 25-Dec-2016

 --------------------------------------------
 #p opt UM062X/6-311+G** nosymm int=superfine
 --------------------------------------------

 -------------------
 Title Card Required
 -------------------
 Symbolic Z-matrix:
 Charge =  1 Multiplicity = 2

 SCF Done:  E(UM062X) =  -582.139495418     A.U. after   11 cycles
 SCF Done:  E(UM062X) =  -582.140206270     A.U. after    9 cycles
 SCF Done:  E(UM062X) =  -582.140367143     A.U. after    9 cycles
 SCF Done:  E(UM062X) =  -582.140367363     A.U. after    7 cycles
 Optimization completed.
    -- Stationary point found.

                          Input orientation:
 ---------------------------------------------------------------------
 Center     Atomic      Atomic             Coordinates (Angstroms)
 Number     Number       Type             X           Y           Z
 ---------------------------------------------------------------------
      1         14           0       -2.226292    0.000000    0.000000
      2         14           0        2.226292    0.000000    0.000000
      3          1           0        2.346261   -1.459692   -0.000008
      4          1           0       -2.345501   -0.729726    1.264269
      5          1           0        2.346007    0.729885   -1.264128
      6          1           0        2.345313    0.729812    1.264237
      7          1           0       -2.346286    1.459690   -0.000128
      8          1           0       -2.345794   -0.729976   -1.264096
 ---------------------------------------------------------------------

 Alpha  occ. eigenvalues --  -67.22650 -67.22650  -5.77483  -5.77482  -4.09164
 Alpha  occ. eigenvalues --   -4.09164  -4.08354  -4.08354  -4.08354  -4.08354
 Alpha  occ. eigenvalues --   -0.81218  -0.80767  -0.61552  -0.61550  -0.61434
 Alpha  occ. eigenvalues --   -0.61433  -0.41120
 Alpha virt. eigenvalues --   -0.29622  -0.12349  -0.11846  -0.09959  -0.09783
 Alpha virt. eigenvalues --   -0.09781  -0.08542  -0.08542  -0.07726  -0.07443
 Alpha virt. eigenvalues --   -0.07443  -0.06194  -0.06193  -0.04684   0.00699

  Beta  occ. eigenvalues --  -67.22383 -67.22383  -5.77404  -5.77401  -4.08541
  Beta  occ. eigenvalues --   -4.08541  -4.08263  -4.08263  -4.08263  -4.08263
  Beta  occ. eigenvalues --   -0.79463  -0.79196  -0.61426  -0.61425  -0.61298
  Beta  occ. eigenvalues --   -0.61297
  Beta virt. eigenvalues --   -0.31859  -0.23035  -0.14999  -0.12762  -0.12759
  Beta virt. eigenvalues --   -0.10911  -0.10887  -0.09023  -0.09022  -0.07263
  Beta virt. eigenvalues --   -0.07027  -0.07027  -0.05839  -0.05839  -0.05542

 Mulliken charges and spin densities:
               1          2
     1  Si   0.499880   0.550876
     2  Si   0.499880   0.550876
     3  H    0.000057  -0.016947
     4  H    0.000029  -0.016964
     5  H    0.000038  -0.016966
     6  H    0.000026  -0.016963
     7  H    0.000057  -0.016947
     8  H    0.000034  -0.016965
 Sum of Mulliken charges =   1.00000   1.00000

 Dipole moment (field-independent basis, Debye):
    X=              0.0000    Y=             -0.0000    Z=              0.0001  Tot=              0.0001
 Quadrupole moment (field-independent basis, Debye-Ang):
   XX=              3.4189   YY=            -26.2103   ZZ=            -26.2102
   XY=              0.0006   XZ=              0.0001   YZ=             -0.0000

 Normal termination of Gaussian 16 at Mon Apr 21 20:15:24 2025.
