 Gaussian 16, Revision A.03,
 Gaussian 16:  ES64L-G16RevA.03 25-Dec-2016

 --------------------------------------------
 #p opt UM062X/6-311+G** nosymm int=superfine
 --------------------------------------------

 -------------------
 Title Card Required
 -------------------
 Symbolic Z-matrix:
 Charge =  1 Multiplicity = 2

 SCF Done:  E(UM062X) =  -580.978653476     A.U. after   10 cycles
 SCF Done:  E(UM062X) =  -580.978698679     A.U. after    8 cycles
 SCF Done:  E(UM062X) =  -580.978704545     A.U. after    9 cycles
 SCF Done:  E(UM062X) =  -580.978712646     A.U. after    8 cycles
 SCF Done:  E(UM062X) =  -580.978712967     A.U. after    7 cycles
 Optimization completed.
    -- Stationary point found.

                          Input orientation:
 ---------------------------------------------------------------------
 Center     Atomic      Atomic             Coordinates (Angstroms)
 Number     Number       Type             X           Y           Z
 ---------------------------------------------------------------------
      1         14           0       -1.216295    0.000000    0.000000
      2         14           0        1.216295    0.000000    0.000000
      3          1           0       -1.930452   -1.281044   -0.000619
      4          1           0        1.930452    1.281044    0.000596
      5          1           0       -1.930453    1.281044    0.000635
      6          1           0        1.930453   -1.281044   -0.000583
 ---------------------------------------------------------------------

 Alpha  occ. eigenvalues --  -67.25947 -67.25947  -5.80566  -5.80562  -4.12250
 Alpha  occ. eigenvalues --   -4.12245  -4.11513  -4.11480  -4.11415  -4.11411
 Alpha  occ. eigenvalues --   -0.85332  -0.78669  -0.65137  -0.63117  -0.58594
 Alpha  occ. eigenvalues --   -0.46718
 Alpha virt. eigenvalues --   -0.28221  -0.20583  -0.16316  -0.13635  -0.11511
 Alpha virt. eigenvalues --   -0.10719  -0.09576  -0.08722  -0.08594  -0.07954
 Alpha virt. eigenvalues --   -0.06892  -0.05793  -0.01113   0.05351   0.08212

  Beta  occ. eigenvalues --  -67.25657 -67.25657  -5.80484  -5.80480  -4.11528
  Beta  occ. eigenvalues --   -4.11523  -4.11449  -4.11411  -4.11309  -4.11305
  Beta  occ. eigenvalues --   -0.83112  -0.77361  -0.64990  -0.63236  -0.57993
  Beta virt. eigenvalues --   -0.31419  -0.23453  -0.18279  -0.15968  -0.14816
  Beta virt. eigenvalues --   -0.12225  -0.10708  -0.09602  -0.08784  -0.08051
  Beta virt. eigenvalues --   -0.07344  -0.06622  -0.03911  -0.02406   0.05267

 Mulliken charges and spin densities:
               1          2
     1  Si   0.433025   0.552770
     2  Si   0.433025   0.552770
     3  H    0.033488  -0.026385
     4  H    0.033488  -0.026385
     5  H    0.033488  -0.026385
     6  H    0.033488  -0.026385
 Sum of Mulliken charges =   1.00000   1.00000

 Dipole moment (field-independent basis, Debye):
    X=              0.0000    Y=             -0.0000    Z=             -0.0000  Tot=              0.0000
 Quadrupole moment (field-independent basis, Debye-Ang):
   XX=            -13.3235   YY=            -23.4182   ZZ=            -23.7651
   XY=             -0.0000   XZ=              0.0000   YZ=              0.0002

 Normal termination of Gaussian 16 at Mon Apr 21 20:22:33 2025.
