 Gaussian 16, Revision A.03,
 Gaussian 16:  ES64L-G16RevA.03 25-Dec-2016

 --------------------------------------------
 #p opt UM062X/6-311+G** nosymm int=superfine
 --------------------------------------------

 -------------------
 Title Card Required
 -------------------
 Symbolic Z-matrix:
 Charge =  0 Multiplicity = 1

 SCF Done:  E(UM062X) =  -77.9842541989     A.U. after    9 cycles
 SCF Done:  E(UM062X) =  -78.0313093704     A.U. after    8 cycles
 SCF Done:  E(UM062X) =  -78.0675665459     A.U. after    9 cycles
 SCF Done:  E(UM062X) =  -78.0688663737     A.U. after    7 cycles
 SCF Done:  E(UM062X) =  -78.0689279208     A.U. after    7 cycles
 Optimization completed.
    -- Stationary point found.

                          Input orientation:
 ---------------------------------------------------------------------
 Center     Atomic      Atomic             Coordinates (Angstroms)
 Number     Number       Type             X           Y           Z
 ---------------------------------------------------------------------
      1          6           0       -0.450753    0.000000    0.000000
      2          6           0        0.450753    0.000000    0.000000
      3          1           0       -1.123686   -0.873318    0.000000
      4          1           0       -1.123736    0.873173   -0.000000
      5          1           0        1.123686    0.873318   -0.000000
      6          1           0        1.123736   -0.873173    0.000000
 ---------------------------------------------------------------------

 Alpha  occ. eigenvalues --  -10.49621 -10.46497  -0.95283  -0.61864  -0.59879
 Alpha  occ. eigenvalues --   -0.53540  -0.45341  -0.32298
 Alpha virt. eigenvalues --    0.03205   0.03954   0.04258   0.06383   0.07574
 Alpha virt. eigenvalues --    0.09015   0.09850   0.16077   0.16913   0.18464
 Alpha virt. eigenvalues --    0.21470   0.25165   0.35342   0.42530   0.42558

  Beta  occ. eigenvalues --  -10.49621 -10.46497  -0.95283  -0.61864  -0.59879
  Beta  occ. eigenvalues --   -0.53540  -0.45341  -0.32298
  Beta virt. eigenvalues --    0.03205   0.03954   0.04258   0.06383   0.07574
  Beta virt. eigenvalues --    0.09015   0.09850   0.16077   0.16913   0.18464
  Beta virt. eigenvalues --    0.21470   0.25165   0.35342   0.42530   0.42558

 Mulliken charges and spin densities:
               1          2
     1  C   -0.248777  -0.000000
     2  C   -0.248777   0.000000
     3  H    0.124377  -0.000000
     4  H    0.124400  -0.000000
     5  H    0.124377   0.000000
     6  H    0.124400   0.000000
 Sum of Mulliken charges =  -0.00000  -0.00000

 Dipole moment (field-independent basis, Debye):
    X=              0.0000    Y=              0.0000    Z=             -0.0000  Tot=              0.0000
 Quadrupole moment (field-independent basis, Debye-Ang):
   XX=            -12.5788   YY=            -12.4417   ZZ=            -13.8595
   XY=             -0.0004   XZ=             -0.0000   YZ=             -0.0000

 Normal termination of Gaussian 16 at Tue Nov 19 10:21:36 2024.
