 Gaussian 16, Revision A.03,
 Gaussian 16:  ES64L-G16RevA.03 25-Dec-2016

 ---------------------------------------
 #p UM062X/6-311+G** force int=superfine
 ---------------------------------------

 -------------------
 Title Card Required
 -------------------
 Symbolic Z-matrix:
 Charge =  1 Multiplicity = 2

                         Standard orientation:
 ---------------------------------------------------------------------
 Center     Atomic      Atomic             Coordinates (Angstroms)
 Number     Number       Type             X           Y           Z
 ---------------------------------------------------------------------
      1          6           0        0.000000    0.713961    0.000000
      2          6           0       -0.000000   -0.713961    0.000000
      3          1           0        0.936073    1.265187    0.000000
      4          1           0       -0.935909    1.265349    0.000000
      5          1           0       -0.936073   -1.265187    0.000000
      6          1           0        0.935909   -1.265349   -0.000000
 ---------------------------------------------------------------------

 SCF Done:  E(UM062X) =  -78.1840197140     A.U. after    9 cycles

 The electronic state is 2-AU.
 Alpha  occ. eigenvalues --  -10.89705 -10.89631  -1.18040  -0.97810  -0.84579
 Alpha  occ. eigenvalues --   -0.79215  -0.73023  -0.66347
 Alpha virt. eigenvalues --   -0.29710  -0.14679  -0.12665  -0.12381  -0.09662
 Alpha virt. eigenvalues --   -0.07756  -0.06904  -0.04794  -0.04477  -0.02474
 Alpha virt. eigenvalues --   -0.00589   0.01740   0.06936   0.10736   0.20244

  Beta  occ. eigenvalues --  -10.89475 -10.89415  -1.14094  -0.95878  -0.83490
  Beta  occ. eigenvalues --   -0.78263  -0.72700
  Beta virt. eigenvalues --   -0.41892  -0.22576  -0.16433  -0.12601  -0.12526
  Beta virt. eigenvalues --   -0.10147  -0.08620  -0.06965  -0.04762  -0.03701
  Beta virt. eigenvalues --   -0.01974  -0.00916   0.02120   0.08344   0.11195

 Mulliken charges and spin densities:
               1          2
     1  C   -0.052608   0.537810
     2  C   -0.052608   0.537810
     3  H    0.276298  -0.018907
     4  H    0.276310  -0.018903
     5  H    0.276298  -0.018907
     6  H    0.276310  -0.018903
 Sum of Mulliken charges =   1.00000   1.00000

 Dipole moment (field-independent basis, Debye):
    X=             -0.0000    Y=             -0.0000    Z=              0.0000  Tot=              0.0000
 Quadrupole moment (field-independent basis, Debye-Ang):
   XX=             -8.4602   YY=             -5.4762   ZZ=            -11.5256
   XY=             -0.0002   XZ=             -0.0000   YZ=              0.0000

 Normal termination of Gaussian 16 at Tue Nov 19 11:54:09 2024.
