 Gaussian 16, Revision A.03,
 Gaussian 16:  ES64L-G16RevA.03 25-Dec-2016

 ---------------------------------------
 #p UM062X/6-311+G** force int=superfine
 ---------------------------------------

 -------------------
 Title Card Required
 -------------------
 Symbolic Z-matrix:
 Charge =  1 Multiplicity = 2

                         Standard orientation:
 ---------------------------------------------------------------------
 Center     Atomic      Atomic             Coordinates (Angstroms)
 Number     Number       Type             X           Y           Z
 ---------------------------------------------------------------------
      1          6           0        1.255471   -0.000040   -0.000030
      2          6           0       -1.255471    0.000045    0.000017
      3          1           0       -1.335667   -0.994062   -0.425059
      4          1           0        1.334838   -0.865207    0.648474
      5          1           0       -1.335317    0.865301   -0.648310
      6          1           0       -1.334749    0.128964    1.073547
      7          1           0        1.335693    0.994117    0.424925
      8          1           0        1.335202   -0.129145   -1.073503
 ---------------------------------------------------------------------

 SCF Done:  E(UM062X) =  -79.3566424125     A.U. after    9 cycles

 The electronic state is 2-A.
 Alpha  occ. eigenvalues --  -10.85677 -10.85672  -1.06427  -1.02495  -0.76343
 Alpha  occ. eigenvalues --   -0.76343  -0.74258  -0.74257  -0.57078
 Alpha virt. eigenvalues --   -0.31651  -0.15270  -0.10618  -0.10618  -0.09997
 Alpha virt. eigenvalues --   -0.06313  -0.06220  -0.06220  -0.03919  -0.03916
 Alpha virt. eigenvalues --   -0.02815   0.01607   0.01609   0.05363   0.07373

  Beta  occ. eigenvalues --  -10.85478 -10.85478  -1.03175  -1.00023  -0.75603
  Beta  occ. eigenvalues --   -0.75603  -0.73679  -0.73678
  Beta virt. eigenvalues --   -0.34648  -0.22801  -0.15633  -0.11095  -0.11095
  Beta virt. eigenvalues --   -0.09484  -0.06566  -0.06566  -0.06296  -0.03761
  Beta virt. eigenvalues --   -0.03758  -0.02063   0.02039   0.02041   0.05802

 Mulliken charges and spin densities:
               1          2
     1  C   -0.287237   0.573436
     2  C   -0.287236   0.573436
     3  H    0.262426  -0.024488
     4  H    0.262397  -0.024471
     5  H    0.262416  -0.024479
     6  H    0.262395  -0.024468
     7  H    0.262427  -0.024489
     8  H    0.262412  -0.024476
 Sum of Mulliken charges =   1.00000   1.00000

 Dipole moment (field-independent basis, Debye):
    X=             -0.0000    Y=             -0.0000    Z=              0.0000  Tot=              0.0000
 Quadrupole moment (field-independent basis, Debye-Ang):
   XX=             -3.7409   YY=            -10.9298   ZZ=            -10.9300
   XY=              0.0006   XZ=              0.0003   YZ=              0.0000

 Normal termination of Gaussian 16 at Wed Nov 13 13:01:03 2024.
