 Gaussian 16, Revision A.03,
 Gaussian 16:  ES64L-G16RevA.03 25-Dec-2016

 --------------------------------------------
 #p opt UM062X/6-311+G** nosymm int=superfine
 --------------------------------------------

 -------------------
 Title Card Required
 -------------------
 Symbolic Z-matrix:
 Charge =  0 Multiplicity = 1

 SCF Done:  E(UM062X) =  -797.429313924     A.U. after   13 cycles
 SCF Done:  E(UM062X) =  -797.430145307     A.U. after   12 cycles
 SCF Done:  E(UM062X) =  -797.431171674     A.U. after   14 cycles
 SCF Done:  E(UM062X) =  -797.431183463     A.U. after   12 cycles
 SCF Done:  E(UM062X) =  -797.431179267     A.U. after   13 cycles
 SCF Done:  E(UM062X) =  -797.431185677     A.U. after   12 cycles
 SCF Done:  E(UM062X) =  -797.431185817     A.U. after   12 cycles
 SCF Done:  E(UM062X) =  -797.431185843     A.U. after   11 cycles
 SCF Done:  E(UM062X) =  -797.431185857     A.U. after   12 cycles
 Optimization completed.
    -- Stationary point found.

                          Input orientation:
 ---------------------------------------------------------------------
 Center     Atomic      Atomic             Coordinates (Angstroms)
 Number     Number       Type             X           Y           Z
 ---------------------------------------------------------------------
      1         16           0       -1.743191    0.000000    0.000000
      2         16           0        1.743191    0.000000    0.000000
      3          1           0       -1.653394   -1.330496   -0.184678
      4          1           0        1.653420    0.216365    1.325706
 ---------------------------------------------------------------------

 Alpha  occ. eigenvalues --  -89.94784 -89.94784  -8.30954  -8.30953  -6.23113
 Alpha  occ. eigenvalues --   -6.23113  -6.22844  -6.22844  -6.22283  -6.22283
 Alpha  occ. eigenvalues --   -0.81909  -0.80805  -0.47376  -0.47328  -0.33594
 Alpha  occ. eigenvalues --   -0.33230  -0.33214
 Alpha virt. eigenvalues --   -0.19364   0.01962   0.03118   0.04538   0.04985
 Alpha virt. eigenvalues --    0.06395   0.07082   0.07339   0.07476   0.10515
 Alpha virt. eigenvalues --    0.13119   0.30469   0.31184   0.33291   0.34632

  Beta  occ. eigenvalues --  -89.94784 -89.94784  -8.30954  -8.30953  -6.23113
  Beta  occ. eigenvalues --   -6.23113  -6.22844  -6.22844  -6.22283  -6.22283
  Beta  occ. eigenvalues --   -0.81909  -0.80805  -0.47376  -0.47328  -0.33594
  Beta  occ. eigenvalues --   -0.33230  -0.33214
  Beta virt. eigenvalues --   -0.19364   0.01962   0.03118   0.04538   0.04985
  Beta virt. eigenvalues --    0.06395   0.07082   0.07339   0.07476   0.10515
  Beta virt. eigenvalues --    0.13119   0.30469   0.31184   0.33291   0.34632

 Mulliken charges and spin densities:
               1          2
     1  S   -0.086522  -0.000000
     2  S   -0.086524   0.000000
     3  H    0.086523   0.000000
     4  H    0.086523  -0.000000
 Sum of Mulliken charges =  -0.00000   0.00000

 Dipole moment (field-independent basis, Debye):
    X=             -0.0000    Y=             -0.9095    Z=              0.9314  Tot=              1.3018
 Quadrupole moment (field-independent basis, Debye-Ang):
   XX=            -25.0863   YY=            -28.0269   ZZ=            -28.0843
   XY=              2.3061   XZ=              2.2519   YZ=              1.2042

 Normal termination of Gaussian 16 at Mon Apr 21 21:15:39 2025.
