 Gaussian 16, Revision A.03,
 Gaussian 16:  ES64L-G16RevA.03 25-Dec-2016

 --------------------------------------------
 #p opt UM062X/6-311+G** nosymm int=superfine
 --------------------------------------------

 -------------------
 Title Card Required
 -------------------
 Symbolic Z-matrix:
 Charge =  0 Multiplicity = 1

 SCF Done:  E(UM062X) =  -438.533253138     A.U. after   12 cycles
 SCF Done:  E(UM062X) =  -438.545257586     A.U. after   11 cycles
 SCF Done:  E(UM062X) =  -438.549547995     A.U. after   11 cycles
 SCF Done:  E(UM062X) =  -438.549585188     A.U. after    9 cycles
 SCF Done:  E(UM062X) =  -438.549600433     A.U. after    9 cycles
 SCF Done:  E(UM062X) =  -438.549606993     A.U. after    9 cycles
 SCF Done:  E(UM062X) =  -438.549608275     A.U. after    8 cycles
 SCF Done:  E(UM062X) =  -438.549608611     A.U. after    8 cycles
 SCF Done:  E(UM062X) =  -438.549608680     A.U. after    7 cycles
 Optimization completed.
    -- Stationary point found.

                          Input orientation:
 ---------------------------------------------------------------------
 Center     Atomic      Atomic             Coordinates (Angstroms)
 Number     Number       Type             X           Y           Z
 ---------------------------------------------------------------------
      1          6           0       -1.560220    0.000000    0.000000
      2         16           0        1.560220    0.000000    0.000000
      3          1           0        1.523381   -1.343852   -0.001301
      4          1           0       -1.621658    1.079070    0.002587
      5          1           0       -1.651144   -0.532655   -0.936160
      6          1           0       -1.651238   -0.537130    0.933591
 ---------------------------------------------------------------------

 Alpha  occ. eigenvalues --  -89.88623 -10.63667  -8.24863  -6.16922  -6.16835
 Alpha  occ. eigenvalues --   -6.16296  -0.82055  -0.76195  -0.53876  -0.53777
 Alpha  occ. eigenvalues --   -0.42768  -0.29689  -0.28692
 Alpha virt. eigenvalues --   -0.12510   0.01557   0.04110   0.04796   0.05572
 Alpha virt. eigenvalues --    0.07577   0.08092   0.08493   0.11058   0.13559
 Alpha virt. eigenvalues --    0.16545   0.17112   0.22254   0.33205   0.36392

  Beta  occ. eigenvalues --  -89.88623 -10.63667  -8.24863  -6.16922  -6.16835
  Beta  occ. eigenvalues --   -6.16296  -0.82054  -0.76195  -0.53876  -0.53777
  Beta  occ. eigenvalues --   -0.42768  -0.29689  -0.28692
  Beta virt. eigenvalues --   -0.12510   0.01557   0.04110   0.04796   0.05572
  Beta virt. eigenvalues --    0.07577   0.08092   0.08493   0.11058   0.13559
  Beta virt. eigenvalues --    0.16545   0.17112   0.22254   0.33205   0.36392

 Mulliken charges and spin densities:
               1          2
     1  C   -0.435178   0.000031
     2  S   -0.245961  -0.000028
     3  H    0.055628   0.000000
     4  H    0.209695  -0.000001
     5  H    0.207923  -0.000001
     6  H    0.207893  -0.000001
 Sum of Mulliken charges =  -0.00000   0.00000

 Dipole moment (field-independent basis, Debye):
    X=             -3.7171    Y=             -0.9441    Z=             -0.0009  Tot=              3.8351
 Quadrupole moment (field-independent basis, Debye-Ang):
   XX=            -20.7112   YY=            -19.4842   ZZ=            -23.5274
   XY=             -1.6400   XZ=             -0.0016   YZ=              0.0039

 Normal termination of Gaussian 16 at Mon Apr 21 19:37:07 2025.
