 Gaussian 16, Revision A.03,
 Gaussian 16:  ES64L-G16RevA.03 25-Dec-2016

 -------------------------------------------
 #p UM062X/6-31+G** freq=raman int=superfine
 -------------------------------------------

 -------------------
 Title Card Required
 -------------------
 Symbolic Z-matrix:
 Charge =  1 Multiplicity = 2

                         Standard orientation:
 ---------------------------------------------------------------------
 Center     Atomic      Atomic             Coordinates (Angstroms)
 Number     Number       Type             X           Y           Z
 ---------------------------------------------------------------------
      1          6           0       -0.988448    0.000053    0.000041
      2          6           0        0.988448   -0.000052   -0.000041
      3          1           0        1.130072   -1.058383   -0.197016
      4          1           0       -1.130937   -0.358509   -1.014864
      5          1           0        1.130894    0.358498    1.014872
      6          1           0        1.130531    0.699617   -0.818079
      7          1           0       -1.130067    1.058388    0.196999
      8          1           0       -1.130494   -0.699611    0.818090
 ---------------------------------------------------------------------

 SCF Done:  E(UM062X) =  -79.3531434137     A.U. after    9 cycles

 The electronic state is 2-A.
 Alpha  occ. eigenvalues --  -10.86986 -10.86975  -1.11403  -1.01285  -0.79031
 Alpha  occ. eigenvalues --   -0.79028  -0.73406  -0.73405  -0.64022
 Alpha virt. eigenvalues --   -0.22563  -0.15888  -0.10943  -0.10943  -0.09332
 Alpha virt. eigenvalues --   -0.07368  -0.06048  -0.06048  -0.02260  -0.02256
 Alpha virt. eigenvalues --   -0.01514   0.03904   0.03910   0.09082   0.12056

  Beta  occ. eigenvalues --  -10.86742 -10.86740  -1.07845  -0.98258  -0.78023
  Beta  occ. eigenvalues --   -0.78021  -0.72589  -0.72588
  Beta virt. eigenvalues --   -0.40177  -0.16467  -0.15446  -0.10816  -0.10816
  Beta virt. eigenvalues --   -0.07124  -0.06981  -0.06171  -0.06170  -0.01613
  Beta virt. eigenvalues --   -0.01608  -0.00006   0.04860   0.04866   0.10024

 Mulliken charges and spin densities:
               1          2
     1  C   -0.345138   0.544936
     2  C   -0.345138   0.544936
     3  H    0.281707  -0.014949
     4  H    0.281718  -0.015009
     5  H    0.281717  -0.015008
     6  H    0.281714  -0.014979
     7  H    0.281707  -0.014949
     8  H    0.281713  -0.014978
 Sum of Mulliken charges =   1.00000   1.00000

 Dipole moment (field-independent basis, Debye):
    X=             -0.0000    Y=             -0.0000    Z=             -0.0000  Tot=              0.0000
 Quadrupole moment (field-independent basis, Debye-Ang):
   XX=             -6.7282   YY=            -10.7187   ZZ=            -10.7194
   XY=              0.0004   XZ=              0.0003   YZ=             -0.0000

  Exact polarizability:  30.203   0.003  20.326  -0.001  -0.002  20.326
 Approx polarizability:  27.829   0.001  21.467   0.001  -0.000  21.465

                      1                      2                      3
                      A                      A                      A
 Frequencies --    199.2235               382.6524               385.2723
 Red. masses --      1.0078                 1.1322                 1.1323
 Frc consts  --      0.0236                 0.0977                 0.0990
 IR Inten    --      0.0000                 0.0000                 0.0000
 Raman Activ --      0.0000                 7.1305                 7.1456

                      4                      5                      6
                      A                      A                      A
 Frequencies --    432.6953               644.2255               645.7706
 Red. masses --      5.0803                 1.0124                 1.0124
 Frc consts  --      0.5604                 0.2476                 0.2488
 IR Inten    --      0.0000                 0.4712                 0.4747
 Raman Activ --     47.6460                 0.0000                 0.0000

                      7                      8                      9
                      A                      A                      A
 Frequencies --   1209.9135              1273.0550              1419.9612
 Red. masses --      1.2303                 1.1345                 1.0946
 Frc consts  --      1.0611                 1.0833                 1.3003
 IR Inten    --      0.3711                 0.0000                20.2245
 Raman Activ --      0.0000                 9.7238                 0.0000

                     10                     11                     12
                      A                      A                      A
 Frequencies --   1420.1990              1436.1425              1436.3832
 Red. masses --      1.0946                 1.1060                 1.1060
 Frc consts  --      1.3008                 1.3440                 1.3445
 IR Inten    --     20.2115                 0.0000                 0.0000
 Raman Activ --      0.0000                 5.8366                 5.8374

                     13                     14                     15
                      A                      A                      A
 Frequencies --   3114.3915              3123.2373              3291.9428
 Red. masses --      1.0114                 1.0105                 1.1174
 Frc consts  --      5.7799                 5.8076                 7.1342
 IR Inten    --     27.9226                 0.0000                 0.0000
 Raman Activ --      0.0000               212.9803                69.5431

                     16                     17                     18
                      A                      A                      A
 Frequencies --   3292.0748              3308.1024              3308.2633
 Red. masses --      1.1174                 1.1205                 1.1205
 Frc consts  --      7.1349                 7.2245                 7.2252
 IR Inten    --      0.0000                62.3969                62.2323
 Raman Activ --     69.5087                 0.0000                 0.0000

 - Thermochemistry -
 -------------------
 Temperature   298.150 Kelvin.  Pressure   1.00000 Atm.
 Atom     1 has atomic number  6 and mass  12.00000

 Molecular mass:    30.04695 amu.
 Principal axes and moments of inertia in atomic units:
                           1         2         3
     Eigenvalues --    25.02172 123.84503 123.84600
           X            1.00000   0.00002   0.00002
           Y           -0.00002   1.00000  -0.00005
           Z           -0.00002   0.00005   1.00000
 This molecule is an asymmetric top.
 Rotational symmetry number  1.
 Rotational temperatures (Kelvin)      3.46155     0.69937     0.69937
 Rotational constants (GHZ):          72.12699    14.57258    14.57246
 Zero-point vibrational energy     181374.8 (Joules/Mol)
                                   43.34963 (Kcal/Mol)
 Warning -- explicit consideration of   4 degrees of freedom as
           vibrations may cause significant error
 Vibrational temperatures:    286.64   550.55   554.32   622.55   926.90
          (Kelvin)            929.12  1740.80  1831.64  2043.01  2043.35
                             2066.29  2066.64  4480.91  4493.64  4736.37
                             4736.56  4759.62  4759.85

 Zero-point correction=                           0.069082 (Hartree/Particle)
 Thermal correction to Energy=                    0.073735
 Thermal correction to Enthalpy=                  0.074679
 Thermal correction to Gibbs Free Energy=         0.044262
 Sum of electronic and zero-point Energies=            -79.284061
 Sum of electronic and thermal Energies=               -79.279409
 Sum of electronic and thermal Enthalpies=             -79.278464
 Sum of electronic and thermal Free Energies=          -79.308881

                     E (Thermal)             CV                S
                      KCal/Mol        Cal/Mol-Kelvin    Cal/Mol-Kelvin
 Total                   46.269             14.832             64.018
 Electronic               0.000              0.000              1.377
 Translational            0.889              2.981             36.134
 Rotational               0.889              2.981             20.578
 Vibrational             44.492              8.870              5.928
 Vibration     1          0.637              1.841              2.140
 Vibration     2          0.752              1.507              1.029
 Vibration     3          0.754              1.502              1.018
 Vibration     4          0.794              1.399              0.850

 Normal termination of Gaussian 16 at Mon Nov 25 02:56:43 2024.
