 Gaussian 16, Revision A.03,
 Gaussian 16:  ES64L-G16RevA.03 25-Dec-2016

 --------------------------------------------
 #p opt UM062X/6-311+G** nosymm int=superfine
 --------------------------------------------

 -------------------
 Title Card Required
 -------------------
 Symbolic Z-matrix:
 Charge =  0 Multiplicity = 1

 SCF Done:  E(UM062X) =  -474.399419904     A.U. after   17 cycles
 SCF Done:  E(UM062X) =  -474.428366982     A.U. after   14 cycles
 SCF Done:  E(UM062X) =  -474.433321670     A.U. after   17 cycles
 SCF Done:  E(UM062X) =  -474.434922661     A.U. after   19 cycles
 SCF Done:  E(UM062X) =  -474.435886045     A.U. after   17 cycles
 SCF Done:  E(UM062X) =  -474.435940978     A.U. after   15 cycles
 SCF Done:  E(UM062X) =  -474.435961140     A.U. after   14 cycles
 SCF Done:  E(UM062X) =  -474.435961707     A.U. after   10 cycles
 Optimization completed.
    -- Stationary point found.

                          Input orientation:
 ---------------------------------------------------------------------
 Center     Atomic      Atomic             Coordinates (Angstroms)
 Number     Number       Type             X           Y           Z
 ---------------------------------------------------------------------
      1          8           0       -1.361006   -0.000006    0.000018
      2         16           0        1.361006    0.000007   -0.000018
      3          1           0       -1.377540    0.961568   -0.122744
      4          1           0        1.226659   -0.887929   -1.002120
 ---------------------------------------------------------------------

 Alpha  occ. eigenvalues --  -89.97671 -19.67514  -8.33726  -6.25947  -6.25573
 Alpha  occ. eigenvalues --   -6.25017  -1.08717  -0.83388  -0.52721  -0.49285
 Alpha  occ. eigenvalues --   -0.39900  -0.37856  -0.35171
 Alpha virt. eigenvalues --   -0.18092   0.01612   0.04027   0.04705   0.05611
 Alpha virt. eigenvalues --    0.07341   0.14637   0.19471   0.20001   0.21369
 Alpha virt. eigenvalues --    0.26400   0.31182   0.34032   0.35540   0.39905

  Beta  occ. eigenvalues --  -89.97671 -19.67514  -8.33726  -6.25947  -6.25573
  Beta  occ. eigenvalues --   -6.25017  -1.08717  -0.83388  -0.52721  -0.49285
  Beta  occ. eigenvalues --   -0.39900  -0.37856  -0.35171
  Beta virt. eigenvalues --   -0.18092   0.01612   0.04027   0.04705   0.05611
  Beta virt. eigenvalues --    0.07341   0.14637   0.19471   0.20001   0.21369
  Beta virt. eigenvalues --    0.26400   0.31182   0.34032   0.35540   0.39905

 Mulliken charges and spin densities:
               1          2
     1  O   -0.425605   0.000015
     2  S    0.064735  -0.000015
     3  H    0.249022  -0.000000
     4  H    0.111849   0.000000
 Sum of Mulliken charges =  -0.00000   0.00000

 Dipole moment (field-independent basis, Debye):
    X=              1.9638    Y=              0.9131    Z=             -1.0824  Tot=              2.4211
 Quadrupole moment (field-independent basis, Debye-Ang):
   XX=            -18.2106   YY=            -18.3196   ZZ=            -20.2645
   XY=             -3.7179   XZ=             -0.9045   YZ=              1.7379

 Normal termination of Gaussian 16 at Mon Apr 21 22:44:04 2025.
