 Gaussian 16, Revision A.03,
 Gaussian 16:  ES64L-G16RevA.03 25-Dec-2016

 --------------------------------------------
 #p opt UM062X/6-311+G** nosymm int=superfine
 --------------------------------------------

 -------------------
 Title Card Required
 -------------------
 Symbolic Z-matrix:
 Charge =  0 Multiplicity = 1

 SCF Done:  E(UM062X) =  -581.142837666     A.U. after   10 cycles
 SCF Done:  E(UM062X) =  -581.143558409     A.U. after    8 cycles
 SCF Done:  E(UM062X) =  -581.143804322     A.U. after    8 cycles
 SCF Done:  E(UM062X) =  -581.143804071     A.U. after   10 cycles
 SCF Done:  E(UM062X) =  -581.143810273     A.U. after   10 cycles
 SCF Done:  E(UM062X) =  -581.151857886     A.U. after   14 cycles
 SCF Done:  E(UM062X) =  -581.170873613     A.U. after   15 cycles
 SCF Done:  E(UM062X) =  -581.196348905     A.U. after   12 cycles
 SCF Done:  E(UM062X) =  -581.203133810     A.U. after   12 cycles
 SCF Done:  E(UM062X) =  -581.203650166     A.U. after   11 cycles
 SCF Done:  E(UM062X) =  -581.204732952     A.U. after   11 cycles
 SCF Done:  E(UM062X) =  -581.204741480     A.U. after    9 cycles
 SCF Done:  E(UM062X) =  -581.204741691     A.U. after    8 cycles
 Optimization completed.
    -- Stationary point found.

                          Input orientation:
 ---------------------------------------------------------------------
 Center     Atomic      Atomic             Coordinates (Angstroms)
 Number     Number       Type             X           Y           Z
 ---------------------------------------------------------------------
      1         14           0       -1.562518    0.000000    0.000000
      2         14           0        1.562518    0.000000    0.000000
      3          1           0       -2.092257   -1.131297    0.837041
      4          1           0        2.088788    1.127812   -0.844039
      5          1           0       -2.098343    1.128073    0.837511
      6          1           0        2.082765   -1.131482   -0.842870
 ---------------------------------------------------------------------

 Alpha  occ. eigenvalues --  -67.02544 -67.02489  -5.57177  -5.57123  -3.88451
 Alpha  occ. eigenvalues --   -3.88395  -3.87961  -3.87906  -3.87855  -3.87801
 Alpha  occ. eigenvalues --   -0.59280  -0.57219  -0.40078  -0.39371  -0.32118
 Alpha  occ. eigenvalues --   -0.26342
 Alpha virt. eigenvalues --   -0.10348  -0.03064   0.02233   0.02735   0.03972
 Alpha virt. eigenvalues --    0.04911   0.05530   0.05551   0.05645   0.06396
 Alpha virt. eigenvalues --    0.08620   0.08623   0.12442   0.15808   0.27765

  Beta  occ. eigenvalues --  -67.02544 -67.02489  -5.57177  -5.57123  -3.88451
  Beta  occ. eigenvalues --   -3.88395  -3.87961  -3.87906  -3.87855  -3.87801
  Beta  occ. eigenvalues --   -0.59280  -0.57219  -0.40078  -0.39371  -0.32118
  Beta  occ. eigenvalues --   -0.26342
  Beta virt. eigenvalues --   -0.10348  -0.03064   0.02233   0.02735   0.03972
  Beta virt. eigenvalues --    0.04911   0.05530   0.05551   0.05645   0.06396
  Beta virt. eigenvalues --    0.08620   0.08623   0.12442   0.15808   0.27765

 Mulliken charges and spin densities:
               1          2
     1  Si   0.239420  -0.000001
     2  Si   0.237663   0.000001
     3  H   -0.119236  -0.000000
     4  H   -0.119306   0.000000
     5  H   -0.119195  -0.000000
     6  H   -0.119347   0.000000
 Sum of Mulliken charges =  -0.00000   0.00000

 Dipole moment (field-independent basis, Debye):
    X=             -0.0210    Y=             -0.0002    Z=             -0.0021  Tot=              0.0211
 Quadrupole moment (field-independent basis, Debye-Ang):
   XX=            -25.3273   YY=            -31.6546   ZZ=            -33.3208
   XY=              0.0004   XZ=              2.6398   YZ=             -0.0001

 Normal termination of Gaussian 16 at Mon Apr 21 20:26:05 2025.
