 Gaussian 16, Revision A.03,
 Gaussian 16:  ES64L-G16RevA.03 25-Dec-2016

 --------------------------------------------
 #p opt UM062X/6-311+G** nosymm int=superfine
 --------------------------------------------

 -------------------
 Title Card Required
 -------------------
 Symbolic Z-matrix:
 Charge =  0 Multiplicity = 1

 SCF Done:  E(UM062X) =  -92.9571093813     A.U. after   11 cycles
 SCF Done:  E(UM062X) =  -92.9582721892     A.U. after   10 cycles
 SCF Done:  E(UM062X) =  -92.9582746740     A.U. after    9 cycles
 Optimization completed.
    -- Stationary point found.

                          Input orientation:
 ---------------------------------------------------------------------
 Center     Atomic      Atomic             Coordinates (Angstroms)
 Number     Number       Type             X           Y           Z
 ---------------------------------------------------------------------
      1          6           0       -1.072395    0.000000    0.000000
      2          7           0        1.072395    0.000000    0.000000
      3          1           0       -2.183555   -0.000000   -0.000000
 ---------------------------------------------------------------------

 Alpha  occ. eigenvalues --  -14.88905 -10.73978  -0.83171  -0.76650  -0.44335
 Alpha  occ. eigenvalues --   -0.31369  -0.31369
 Alpha virt. eigenvalues --   -0.13773  -0.13773  -0.08663   0.01427   0.06542
 Alpha virt. eigenvalues --    0.07346   0.07346   0.13284   0.16869   0.16869
 Alpha virt. eigenvalues --    0.19658   0.26686   0.46069   0.54127   0.54127

  Beta  occ. eigenvalues --  -14.88905 -10.73978  -0.83171  -0.76650  -0.44335
  Beta  occ. eigenvalues --   -0.31369  -0.31369
  Beta virt. eigenvalues --   -0.13773  -0.13773  -0.08663   0.01427   0.06542
  Beta virt. eigenvalues --    0.07346   0.07346   0.13284   0.16869   0.16869
  Beta virt. eigenvalues --    0.19658   0.26686   0.46069   0.54127   0.54127

 Mulliken charges and spin densities:
               1          2
     1  C   -0.164416  -0.000000
     2  N   -0.058428   0.000000
     3  H    0.222845   0.000000
 Sum of Mulliken charges =  -0.00000  -0.00000

 Dipole moment (field-independent basis, Debye):
    X=             -3.4465    Y=              0.0000    Z=              0.0000  Tot=              3.4465
 Quadrupole moment (field-independent basis, Debye-Ang):
   XX=             -6.5304   YY=            -14.1623   ZZ=            -14.1623
   XY=             -0.0000   XZ=              0.0000   YZ=             -0.0000

 Normal termination of Gaussian 16 at Mon Apr 21 18:38:51 2025.
