 Gaussian 16, Revision A.03,
 Gaussian 16:  ES64L-G16RevA.03 25-Dec-2016

 --------------------------------------------
 #p opt UM062X/6-311+G** nosymm int=superfine
 --------------------------------------------

 -------------------
 Title Card Required
 -------------------
 Symbolic Z-matrix:
 Charge =  0 Multiplicity = 1

 SCF Done:  E(UM062X) =  -79.6733782806     A.U. after    8 cycles
 SCF Done:  E(UM062X) =  -79.7021924387     A.U. after    8 cycles
 SCF Done:  E(UM062X) =  -79.7253612406     A.U. after   10 cycles
 SCF Done:  E(UM062X) =  -79.7259104127     A.U. after    8 cycles
 SCF Done:  E(UM062X) =  -79.7259129319     A.U. after    6 cycles
 Optimization completed.
    -- Stationary point found.

                          Input orientation:
 ---------------------------------------------------------------------
 Center     Atomic      Atomic             Coordinates (Angstroms)
 Number     Number       Type             X           Y           Z
 ---------------------------------------------------------------------
      1          6           0       -1.061330    0.000000    0.000000
      2          6           0        1.061439    0.000000    0.000000
      3          1           0        1.330628   -0.908765    0.525871
      4          1           0       -1.330518   -0.909789   -0.524096
      5          1           0        1.330628    0.909789    0.524095
      6          1           0        1.330672   -0.001025   -1.049934
      7          1           0       -1.330519    0.908765   -0.525871
      8          1           0       -1.330566    0.001024    1.049934
 ---------------------------------------------------------------------

 Alpha  occ. eigenvalues --  -10.54888 -10.54880  -0.78514  -0.73005  -0.48317
 Alpha  occ. eigenvalues --   -0.48317  -0.44903  -0.44902  -0.31851
 Alpha virt. eigenvalues --    0.01831   0.02379   0.05618   0.05618   0.08431
 Alpha virt. eigenvalues --    0.08431   0.09569   0.09646   0.13465   0.18184
 Alpha virt. eigenvalues --    0.18185   0.22088   0.22088   0.24336   0.26793

  Beta  occ. eigenvalues --  -10.54888 -10.54880  -0.78514  -0.73005  -0.48317
  Beta  occ. eigenvalues --   -0.48317  -0.44903  -0.44902  -0.31851
  Beta virt. eigenvalues --    0.01831   0.02379   0.05618   0.05618   0.08431
  Beta virt. eigenvalues --    0.08431   0.09569   0.09646   0.13465   0.18184
  Beta virt. eigenvalues --    0.18185   0.22088   0.22088   0.24336   0.26793

 Mulliken charges and spin densities:
               1          2
     1  C   -0.501201   0.000000
     2  C   -0.501200  -0.000000
     3  H    0.167067  -0.000000
     4  H    0.167067  -0.000000
     5  H    0.167067   0.000000
     6  H    0.167066  -0.000000
     7  H    0.167067  -0.000000
     8  H    0.167066  -0.000000
 Sum of Mulliken charges =  -0.00000  -0.00000

 Dipole moment (field-independent basis, Debye):
    X=              0.0000    Y=             -0.0000    Z=             -0.0000  Tot=              0.0000
 Quadrupole moment (field-independent basis, Debye-Ang):
   XX=            -15.5672   YY=            -14.8569   ZZ=            -14.8568
   XY=              0.0000   XZ=             -0.0001   YZ=             -0.0000

 Normal termination of Gaussian 16 at Tue Nov 19 12:09:47 2024.
