 Gaussian 16, Revision A.03,
 Gaussian 16:  ES64L-G16RevA.03 25-Dec-2016

 ---------------------------------------------------
 #p UM062X/6-311+G** force int=superfine pop=saveNBO
 ---------------------------------------------------

 -------------------
 Title Card Required
 -------------------
 Symbolic Z-matrix:
 Charge =  0 Multiplicity = 1

                         Standard orientation:
 ---------------------------------------------------------------------
 Center     Atomic      Atomic             Coordinates (Angstroms)
 Number     Number       Type             X           Y           Z
 ---------------------------------------------------------------------
      1          8           0        0.000000    0.000000   -2.026757
      2         16           0        0.000000    0.000000    1.013379
 ---------------------------------------------------------------------

 SCF Done:  E(UM062X) =  -472.969223382     A.U. after   17 cycles

 Unable to determine electronic state:  an orbital has unidentified symmetry.
 Alpha  occ. eigenvalues --  -90.03530 -19.75646  -8.39151  -6.31185  -6.31177
 Alpha  occ. eigenvalues --   -6.30267  -1.04217  -0.81336  -0.42746  -0.37822
 Alpha  occ. eigenvalues --   -0.37786  -0.35446
 Alpha virt. eigenvalues --   -0.25342  -0.22703   0.02599   0.04714   0.05212
 Alpha virt. eigenvalues --    0.05644   0.17450   0.19645   0.19846   0.24819
 Alpha virt. eigenvalues --    0.32301   0.33258   0.34214   0.56785   0.73711

  Beta  occ. eigenvalues --  -90.03530 -19.75646  -8.39151  -6.31185  -6.31177
  Beta  occ. eigenvalues --   -6.30267  -1.04217  -0.81336  -0.42746  -0.37822
  Beta  occ. eigenvalues --   -0.37786  -0.35446
  Beta virt. eigenvalues --   -0.25342  -0.22703   0.02599   0.04714   0.05212
  Beta virt. eigenvalues --    0.05644   0.17450   0.19645   0.19846   0.24819
  Beta virt. eigenvalues --    0.32301   0.33258   0.34214   0.56785   0.73711

 Mulliken charges and spin densities:
               1          2
     1  O   -0.194931  -0.000000
     2  S    0.194931   0.000000
 Sum of Mulliken charges =  -0.00000   0.00000

 Dipole moment (field-independent basis, Debye):
    X=              0.0000    Y=              0.0000    Z=              2.8491  Tot=              2.8491
 Quadrupole moment (field-independent basis, Debye-Ang):
   XX=            -20.8633   YY=            -17.3889   ZZ=            -18.7303
   XY=              0.0000   XZ=              0.0000   YZ=              0.0000

 Summary of Natural Population Analysis:

                                       Natural Population
                Natural  -----------------------------------------------
    Atom  No    Charge         Core      Valence    Rydberg      Total
 -----------------------------------------------------------------------
      O    1   -0.11760      1.00000     3.11670    0.00090     4.11760
      S    2    0.11760      5.00000     2.88156    0.00084     7.88240
 =======================================================================
   * Total *   -0.00000      6.00000     5.99827    0.00174    12.00000

 Normal termination of Gaussian 16 at Mon Apr 21 20:01:04 2025.
