 Gaussian 16, Revision A.03,
 Gaussian 16:  ES64L-G16RevA.03 25-Dec-2016

 --------------------------------------------
 #p opt UM062X/6-311+G** nosymm int=superfine
 --------------------------------------------

 -------------------
 Title Card Required
 -------------------
 Symbolic Z-matrix:
 Charge =  1 Multiplicity = 2

 SCF Done:  E(UM062X) =  -76.8065158011     A.U. after   10 cycles
 SCF Done:  E(UM062X) =  -76.8387742049     A.U. after   10 cycles
 SCF Done:  E(UM062X) =  -76.8395636029     A.U. after    8 cycles
 SCF Done:  E(UM062X) =  -76.8395643837     A.U. after    7 cycles
 Optimization completed.
    -- Stationary point found.

                          Input orientation:
 ---------------------------------------------------------------------
 Center     Atomic      Atomic             Coordinates (Angstroms)
 Number     Number       Type             X           Y           Z
 ---------------------------------------------------------------------
      1          6           0       -0.540568    0.000000    0.000000
      2          6           0        0.540568    0.000000    0.000000
      3          1           0       -1.616780   -0.000000   -0.000000
      4          1           0        1.616779    0.000000    0.000000
 ---------------------------------------------------------------------

 Alpha  occ. eigenvalues --  -10.91547 -10.90830  -1.28906  -0.95955  -0.90753
 Alpha  occ. eigenvalues --   -0.78282  -0.75137
 Alpha virt. eigenvalues --   -0.22632  -0.20731  -0.14630  -0.14251  -0.11844
 Alpha virt. eigenvalues --   -0.10961  -0.10686  -0.04141  -0.03615  -0.03565
 Alpha virt. eigenvalues --    0.02378   0.04467   0.17524   0.19106   0.27177

  Beta  occ. eigenvalues --  -10.91251 -10.90575  -1.23523  -0.94414  -0.90061
  Beta  occ. eigenvalues --   -0.72528
  Beta virt. eigenvalues --   -0.49490  -0.19368  -0.17513  -0.15629  -0.13731
  Beta virt. eigenvalues --   -0.11844  -0.11200  -0.10820  -0.03208  -0.03062
  Beta virt. eigenvalues --   -0.02339   0.02429   0.04818   0.18212   0.19531

 Mulliken charges and spin densities:
               1          2
     1  C    0.218637   0.519807
     2  C    0.218637   0.519807
     3  H    0.281363  -0.019807
     4  H    0.281363  -0.019807
 Sum of Mulliken charges =   1.00000   1.00000

 Dipole moment (field-independent basis, Debye):
    X=             -0.0000    Y=              0.0000    Z=              0.0000  Tot=              0.0000
 Quadrupole moment (field-independent basis, Debye-Ang):
   XX=             -1.5666   YY=            -10.6842   ZZ=             -9.2432
   XY=              0.0000   XZ=              0.0000   YZ=             -0.4039

 Normal termination of Gaussian 16 at Tue Nov 19 12:57:58 2024.
