 Gaussian 16, Revision A.03,
 Gaussian 16:  ES64L-G16RevA.03 25-Dec-2016

 --------------------------------------------
 #p opt UM062X/6-311+G** nosymm int=superfine
 --------------------------------------------

 -------------------
 Title Card Required
 -------------------
 Symbolic Z-matrix:
 Charge =  0 Multiplicity = 1

 SCF Done:  E(UM062X) =  -437.159759678     A.U. after   16 cycles
 SCF Done:  E(UM062X) =  -437.162193815     A.U. after   10 cycles
 SCF Done:  E(UM062X) =  -437.163025946     A.U. after   15 cycles
 SCF Done:  E(UM062X) =  -437.163026888     A.U. after    8 cycles
 Optimization completed.
    -- Stationary point found.

                          Input orientation:
 ---------------------------------------------------------------------
 Center     Atomic      Atomic             Coordinates (Angstroms)
 Number     Number       Type             X           Y           Z
 ---------------------------------------------------------------------
      1          6           0       -2.002140    0.000000    0.000000
      2         16           0        2.002140    0.000000    0.000000
      3          1           0       -2.685486   -0.869713   -0.000184
      4          1           0       -2.686449    0.868955   -0.000310
 ---------------------------------------------------------------------

 Alpha  occ. eigenvalues --  -89.94104 -10.62937  -8.30144  -6.22927  -6.21353
 Alpha  occ. eigenvalues --   -6.21352  -0.77388  -0.74252  -0.49655  -0.33263
 Alpha  occ. eigenvalues --   -0.31597  -0.31588
 Alpha virt. eigenvalues --   -0.16573  -0.09866   0.01392   0.04715   0.05427
 Alpha virt. eigenvalues --    0.06500   0.08039   0.08866   0.08938   0.13968
 Alpha virt. eigenvalues --    0.17272   0.18459   0.35107   0.36667   0.36765

  Beta  occ. eigenvalues --  -89.94104 -10.62937  -8.30144  -6.22927  -6.21353
  Beta  occ. eigenvalues --   -6.21352  -0.77388  -0.74252  -0.49655  -0.33263
  Beta  occ. eigenvalues --   -0.31597  -0.31588
  Beta virt. eigenvalues --   -0.16573  -0.09866   0.01392   0.04715   0.05427
  Beta virt. eigenvalues --    0.06500   0.08039   0.08866   0.08938   0.13968
  Beta virt. eigenvalues --    0.17272   0.18459   0.35107   0.36667   0.36765

 Mulliken charges and spin densities:
               1          2
     1  C   -0.278706  -0.000000
     2  S   -0.008835   0.000000
     3  H    0.143766   0.000000
     4  H    0.143775  -0.000000
 Sum of Mulliken charges =  -0.00000   0.00000

 Dipole moment (field-independent basis, Debye):
    X=             -2.7382    Y=             -0.0011    Z=             -0.0007  Tot=              2.7382
 Quadrupole moment (field-independent basis, Debye-Ang):
   XX=            -10.3766   YY=            -22.3647   ZZ=            -21.7538
   XY=              0.0003   XZ=              0.0013   YZ=              0.0000

 Normal termination of Gaussian 16 at Mon Apr 21 19:43:03 2025.
