 Gaussian 16, Revision A.03,
 Gaussian 16:  ES64L-G16RevA.03 25-Dec-2016

 --------------------------------------------
 #p opt UM062X/6-311+G** nosymm int=superfine
 --------------------------------------------

 -------------------
 Title Card Required
 -------------------
 Symbolic Z-matrix:
 Charge =  1 Multiplicity = 2

 SCF Done:  E(UM062X) =  -80.1541881264     A.U. after   65 cycles
 SCF Done:  E(UM062X) =  -80.1542104828     A.U. after   22 cycles
 SCF Done:  E(UM062X) =  -80.1540889723     A.U. after   16 cycles
 SCF Done:  E(UM062X) =  -80.1542256711     A.U. after   12 cycles
 SCF Done:  E(UM062X) =  -80.1542256967     A.U. after   15 cycles
 Optimization completed.
    -- Stationary point found.

                          Input orientation:
 ---------------------------------------------------------------------
 Center     Atomic      Atomic             Coordinates (Angstroms)
 Number     Number       Type             X           Y           Z
 ---------------------------------------------------------------------
      1          5           0       -2.027734    0.000000    0.000000
      2          7           0        2.027734    0.000000    0.000000
      3          1           0       -3.231537   -0.058435    0.000249
      4          1           0        3.054695   -0.133929   -0.000176
 ---------------------------------------------------------------------

 Alpha  occ. eigenvalues --  -14.94366  -7.53963  -1.07489  -0.86369  -0.61296
 Alpha  occ. eigenvalues --   -0.53912  -0.53756
 Alpha virt. eigenvalues --   -0.44854  -0.35000  -0.34995  -0.16028  -0.11941
 Alpha virt. eigenvalues --   -0.09974  -0.09922  -0.09113  -0.03806   0.01910
 Alpha virt. eigenvalues --    0.01914   0.03759   0.07733   0.12500   0.12734

  Beta  occ. eigenvalues --  -14.91884  -7.55197  -0.94663  -0.89990  -0.68502
  Beta  occ. eigenvalues --   -0.55566
  Beta virt. eigenvalues --   -0.36166  -0.36165  -0.18755  -0.18716  -0.14705
  Beta virt. eigenvalues --   -0.10665  -0.09860  -0.09856  -0.06935  -0.03225
  Beta virt. eigenvalues --    0.03909   0.03928   0.06373   0.08614   0.15886

 Mulliken charges and spin densities:
               1          2
     1  B    0.761632  -0.847244
     2  N   -0.235675   2.053109
     3  H    0.220540  -0.139977
     4  H    0.253504  -0.065888
 Sum of Mulliken charges =   1.00000   1.00000

 Dipole moment (field-independent basis, Debye):
    X=             -8.2490    Y=             -0.2613    Z=             -0.0001  Tot=              8.2531
 Quadrupole moment (field-independent basis, Debye-Ang):
   XX=             22.2109   YY=            -10.2459   ZZ=            -10.2728
   XY=             -0.5090   XZ=             -0.0012   YZ=              0.0000

 Normal termination of Gaussian 16 at Mon Apr 21 21:03:57 2025.
