 Gaussian 16, Revision A.03,
 Gaussian 16:  ES64L-G16RevA.03 25-Dec-2016

 --------------------------------------------
 #p opt UM062X/6-311+G** nosymm int=superfine
 --------------------------------------------

 -------------------
 Title Card Required
 -------------------
 Symbolic Z-matrix:
 Charge =  1 Multiplicity = 2

 SCF Done:  E(UM062X) =  -76.5619354054     A.U. after    9 cycles
 SCF Done:  E(UM062X) =  -76.6542803307     A.U. after   10 cycles
 SCF Done:  E(UM062X) =  -76.6771517067     A.U. after   10 cycles
 SCF Done:  E(UM062X) =  -76.6782213480     A.U. after    8 cycles
 Optimization completed.
    -- Stationary point found.

                          Input orientation:
 ---------------------------------------------------------------------
 Center     Atomic      Atomic             Coordinates (Angstroms)
 Number     Number       Type             X           Y           Z
 ---------------------------------------------------------------------
      1          6           0       -0.484647    0.000000    0.000000
      2          6           0        0.484647    0.000000    0.000000
      3          1           0       -1.556902    0.000000   -0.000000
      4          1           0        1.556900   -0.000000    0.000000
 ---------------------------------------------------------------------

 Alpha  occ. eigenvalues --  -10.90639 -10.88838  -1.32447  -0.95042  -0.91443
 Alpha  occ. eigenvalues --   -0.82957  -0.79427
 Alpha virt. eigenvalues --   -0.19096  -0.17379  -0.14741  -0.13762  -0.11965
 Alpha virt. eigenvalues --   -0.11481  -0.11153  -0.03360  -0.02622  -0.02111
 Alpha virt. eigenvalues --    0.02466   0.04223   0.17028   0.21066   0.25476

  Beta  occ. eigenvalues --  -10.90273 -10.88549  -1.26431  -0.93526  -0.90581
  Beta  occ. eigenvalues --   -0.76784
  Beta virt. eigenvalues --   -0.52382  -0.16298  -0.15557  -0.15118  -0.13366
  Beta virt. eigenvalues --   -0.11895  -0.11658  -0.11241  -0.02128  -0.01644
  Beta virt. eigenvalues --   -0.01087   0.02708   0.04662   0.17590   0.21449

 Mulliken charges and spin densities:
               1          2
     1  C    0.239111   0.521112
     2  C    0.239111   0.521111
     3  H    0.260890  -0.021112
     4  H    0.260889  -0.021111
 Sum of Mulliken charges =   1.00000   1.00000

 Dipole moment (field-independent basis, Debye):
    X=             -0.0000    Y=             -0.0000    Z=              0.0000  Tot=              0.0000
 Quadrupole moment (field-independent basis, Debye-Ang):
   XX=             -2.1983   YY=             -9.8758   ZZ=             -9.2211
   XY=             -0.0000   XZ=              0.0000   YZ=             -0.6911

 Normal termination of Gaussian 16 at Tue Nov 19 12:50:08 2024.
