 Gaussian 16, Revision A.03,
 Gaussian 16:  ES64L-G16RevA.03 25-Dec-2016

 --------------------------------
 #p UM062X/6-311+G** Pop=NBO Read
 --------------------------------

 ------------
 NBO Analysis
 ------------
 Symbolic Z-matrix:
 Charge =  0 Multiplicity = 1

                         Standard orientation:
 ---------------------------------------------------------------------
 Center     Atomic      Atomic             Coordinates (Angstroms)
 Number     Number       Type             X           Y           Z
 ---------------------------------------------------------------------
      1         15           0        0.000000    0.000000    0.938495
      2         15           0        0.000000    0.000000   -0.938495
 ---------------------------------------------------------------------

 SCF Done:  E(UM062X) =  -682.609590527     A.U. after    9 cycles

 The electronic state is 1-SGG.
 Alpha  occ. eigenvalues --  -78.07293 -78.07293  -6.88266  -6.88212  -4.99543
 Alpha  occ. eigenvalues --   -4.99543  -4.99523  -4.99523  -4.99493  -4.99291
 Alpha  occ. eigenvalues --   -0.77125  -0.52545  -0.34602  -0.33628  -0.33628
 Alpha virt. eigenvalues --   -0.06490  -0.06490   0.02853   0.02859   0.05170
 Alpha virt. eigenvalues --    0.05170   0.06362   0.08666   0.08666   0.12653
 Alpha virt. eigenvalues --    0.14303   0.32028   0.42647   0.43551   0.43551

  Beta  occ. eigenvalues --  -78.07293 -78.07293  -6.88266  -6.88212  -4.99543
  Beta  occ. eigenvalues --   -4.99543  -4.99523  -4.99523  -4.99493  -4.99291
  Beta  occ. eigenvalues --   -0.77125  -0.52545  -0.34602  -0.33628  -0.33628
  Beta virt. eigenvalues --   -0.06490  -0.06490   0.02853   0.02859   0.05170
  Beta virt. eigenvalues --    0.05170   0.06362   0.08666   0.08666   0.12653
  Beta virt. eigenvalues --    0.14303   0.32028   0.42647   0.43551   0.43551

 Mulliken charges and spin densities:
               1          2
     1  P   -0.000000  -0.000000
     2  P   -0.000000  -0.000000
 Sum of Mulliken charges =  -0.00000  -0.00000

 Dipole moment (field-independent basis, Debye):
    X=              0.0000    Y=             -0.0000    Z=              0.0000  Tot=              0.0000
 Quadrupole moment (field-independent basis, Debye-Ang):
   XX=            -26.0489   YY=            -26.0489   ZZ=            -26.4907
   XY=              0.0000   XZ=              0.0000   YZ=             -0.0000

 Summary of Natural Population Analysis:

                                       Natural Population
                Natural  -----------------------------------------------
    Atom  No    Charge         Core      Valence    Rydberg      Total
 -----------------------------------------------------------------------
      P    1   -0.00000      4.99957     2.47434    0.02609     7.50000
      P    2    0.00000      4.99957     2.47434    0.02609     7.50000
 =======================================================================
   * Total *    0.00000      9.99915     4.94868    0.05217    15.00000

 Normal termination of Gaussian 16 at Wed Apr 16 06:16:32 2025.
