 Gaussian 16, Revision A.03,
 Gaussian 16:  ES64L-G16RevA.03 25-Dec-2016

 --------------------------------------------
 #p opt UM062X/6-311+G** nosymm int=superfine
 --------------------------------------------

 -------------------
 Title Card Required
 -------------------
 Symbolic Z-matrix:
 Charge =  0 Multiplicity = 1

 SCF Done:  E(UM062X) =  -582.425660535     A.U. after   10 cycles
 SCF Done:  E(UM062X) =  -582.427308840     A.U. after    8 cycles
 SCF Done:  E(UM062X) =  -582.427630444     A.U. after    8 cycles
 Optimization completed.
    -- Stationary point found.

                          Input orientation:
 ---------------------------------------------------------------------
 Center     Atomic      Atomic             Coordinates (Angstroms)
 Number     Number       Type             X           Y           Z
 ---------------------------------------------------------------------
      1         14           0       -1.844819    0.000000    0.000000
      2         14           0        1.844819    0.000000    0.000000
      3          1           0        2.273231   -1.412399   -0.000057
      4          1           0       -2.273246   -0.706074    1.223251
      5          1           0        2.273351    0.706246   -1.223115
      6          1           0        2.273253    0.706126    1.223219
      7          1           0       -2.273234    1.412398   -0.000115
      8          1           0       -2.273356   -0.706300   -1.223082
 ---------------------------------------------------------------------

 Alpha  occ. eigenvalues --  -67.01498 -67.01498  -5.56334  -5.56333  -3.87551
 Alpha  occ. eigenvalues --   -3.87550  -3.87359  -3.87359  -3.87359  -3.87359
 Alpha  occ. eigenvalues --   -0.61089  -0.60230  -0.41761  -0.41761  -0.41478
 Alpha  occ. eigenvalues --   -0.41478  -0.24729
 Alpha virt. eigenvalues --   -0.07216   0.02175   0.02913   0.02913   0.03577
 Alpha virt. eigenvalues --    0.05258   0.05342   0.05342   0.07156   0.07156
 Alpha virt. eigenvalues --    0.07289   0.09046   0.09046   0.13825   0.16721

  Beta  occ. eigenvalues --  -67.01498 -67.01498  -5.56334  -5.56333  -3.87551
  Beta  occ. eigenvalues --   -3.87550  -3.87359  -3.87359  -3.87359  -3.87359
  Beta  occ. eigenvalues --   -0.61089  -0.60230  -0.41761  -0.41761  -0.41478
  Beta  occ. eigenvalues --   -0.41478  -0.24729
  Beta virt. eigenvalues --   -0.07216   0.02175   0.02913   0.02913   0.03577
  Beta virt. eigenvalues --    0.05258   0.05342   0.05342   0.07156   0.07156
  Beta virt. eigenvalues --    0.07289   0.09046   0.09046   0.13825   0.16721

 Mulliken charges and spin densities:
               1          2
     1  Si   0.280420  -0.000000
     2  Si   0.280420   0.000000
     3  H   -0.093473  -0.000000
     4  H   -0.093473   0.000000
     5  H   -0.093473   0.000000
     6  H   -0.093473  -0.000000
     7  H   -0.093473   0.000000
     8  H   -0.093473   0.000000
 Sum of Mulliken charges =  -0.00000   0.00000

 Dipole moment (field-independent basis, Debye):
    X=              0.0000    Y=             -0.0000    Z=              0.0000  Tot=              0.0000
 Quadrupole moment (field-independent basis, Debye-Ang):
   XX=            -29.4425   YY=            -31.9470   ZZ=            -31.9470
   XY=              0.0000   XZ=              0.0000   YZ=              0.0000

 Normal termination of Gaussian 16 at Mon Apr 21 20:20:15 2025.
