 Gaussian 16, Revision A.03,
 Gaussian 16:  ES64L-G16RevA.03 25-Dec-2016

 --------------------------------------------
 #p opt UM062X/6-311+G** nosymm int=superfine
 --------------------------------------------

 -------------------
 Title Card Required
 -------------------
 Symbolic Z-matrix:
 Charge = -1 Multiplicity = 2

 SCF Done:  E(UM062X) =  -50.6271575502     A.U. after   23 cycles
 SCF Done:  E(UM062X) =  -50.6272336147     A.U. after   19 cycles
 SCF Done:  E(UM062X) =  -50.6272284894     A.U. after   20 cycles
 SCF Done:  E(UM062X) =  -50.6272366401     A.U. after   19 cycles
 SCF Done:  E(UM062X) =  -50.6272524984     A.U. after   19 cycles
 SCF Done:  E(UM062X) =  -50.6272626759     A.U. after   20 cycles
 SCF Done:  E(UM062X) =  -50.6272669870     A.U. after   20 cycles
 SCF Done:  E(UM062X) =  -50.6272674992     A.U. after   16 cycles
 SCF Done:  E(UM062X) =  -50.6272688668     A.U. after   19 cycles
 SCF Done:  E(UM062X) =  -50.6272689207     A.U. after   15 cycles
 Optimization completed.
    -- Stationary point found.

                          Input orientation:
 ---------------------------------------------------------------------
 Center     Atomic      Atomic             Coordinates (Angstroms)
 Number     Number       Type             X           Y           Z
 ---------------------------------------------------------------------
      1          5           0       -1.341404    0.000000    0.000000
      2          5           0        1.341404    0.000000    0.000000
      3          1           0       -1.584771   -0.345386   -1.159240
      4          1           0        1.585114    1.206729    0.082212
 ---------------------------------------------------------------------

 Alpha  occ. eigenvalues --   -6.89359  -6.89354  -0.34668  -0.31968  -0.09546
 Alpha  occ. eigenvalues --   -0.06698  -0.00864
 Alpha virt. eigenvalues --    0.13578   0.14449   0.16100   0.17589   0.19036
 Alpha virt. eigenvalues --    0.20500   0.21903   0.22307   0.22488   0.25276
 Alpha virt. eigenvalues --    0.25597   0.34193   0.36549   0.52684   0.52698

  Beta  occ. eigenvalues --   -6.89203  -6.89202  -0.33212  -0.30664  -0.08554
  Beta  occ. eigenvalues --   -0.04285
  Beta virt. eigenvalues --    0.11398   0.12900   0.12944   0.14795   0.16295
  Beta virt. eigenvalues --    0.18723   0.20301   0.21069   0.22106   0.22873
  Beta virt. eigenvalues --    0.24424   0.28813   0.33926   0.36139   0.52536

 Mulliken charges and spin densities:
               1          2
     1  B   -0.425707   0.517006
     2  B   -0.425764   0.517180
     3  H   -0.074263  -0.017091
     4  H   -0.074266  -0.017095
 Sum of Mulliken charges =  -1.00000   1.00000

 Dipole moment (field-independent basis, Debye):
    X=              0.0004    Y=              0.9369    Z=             -1.1715  Tot=              1.5001
 Quadrupole moment (field-independent basis, Debye-Ang):
   XX=            -34.8448   YY=            -22.9490   ZZ=            -22.3116
   XY=              2.8164   XZ=              2.2530   YZ=             -1.4144

 Normal termination of Gaussian 16 at Mon Apr 21 18:49:45 2025.
