 Gaussian 16, Revision A.03,
 Gaussian 16:  ES64L-G16RevA.03 25-Dec-2016

 ---------------------------------------------------------
 #p opt UM062X/6-311+G** nosymm int=superfine SCF=NoVarAcc
 ---------------------------------------------------------

 -------------------
 Title Card Required
 -------------------
 Symbolic Z-matrix:
 Charge =  1 Multiplicity = 2

 SCF Done:  E(UM062X) =  -76.5851230821     A.U. after   33 cycles
 SCF Done:  E(UM062X) =  -76.5854798420     A.U. after   12 cycles
 Optimization completed.
    -- Stationary point found.

                          Input orientation:
 ---------------------------------------------------------------------
 Center     Atomic      Atomic             Coordinates (Angstroms)
 Number     Number       Type             X           Y           Z
 ---------------------------------------------------------------------
      1          6           0       -9.382160    0.000000    0.000000
      2          6           0        9.382160    0.000000    0.000000
      3          1           0      -10.500236   -0.000000   -0.000000
      4          1           0       10.500236    0.000000   -0.000000
 ---------------------------------------------------------------------

 Alpha  occ. eigenvalues --  -10.90512 -10.90512  -0.94315  -0.94315  -0.59315
 Alpha  occ. eigenvalues --   -0.59315  -0.41204
 Alpha virt. eigenvalues --   -0.39688  -0.29243  -0.29243  -0.08318  -0.08318
 Alpha virt. eigenvalues --   -0.02954  -0.02954  -0.02787  -0.02787  -0.02634
 Alpha virt. eigenvalues --   -0.02634   0.03119   0.03119   0.31382   0.31382

  Beta  occ. eigenvalues --  -10.90098 -10.90098  -0.91955  -0.91955  -0.57921
  Beta  occ. eigenvalues --   -0.57921
  Beta virt. eigenvalues --   -0.27362  -0.27362  -0.25730  -0.25730  -0.08513
  Beta virt. eigenvalues --   -0.08513  -0.02653  -0.02653  -0.02157  -0.02157
  Beta virt. eigenvalues --   -0.01230  -0.01230   0.04922   0.04922   0.30726

 Mulliken charges and spin densities:
               1          2
     1  C    0.299962   0.515411
     2  C    0.299962   0.515411
     3  H    0.200038  -0.015411
     4  H    0.200038  -0.015411
 Sum of Mulliken charges =   1.00000   1.00000

 Dipole moment (field-independent basis, Debye):
    X=             -0.0000    Y=              0.0000    Z=              0.0000  Tot=              0.0000
 Quadrupole moment (field-independent basis, Debye-Ang):
   XX=            484.6667   YY=            -10.8004   ZZ=            -10.1113
   XY=             -0.0000   XZ=              0.0000   YZ=              0.9288

 Normal termination of Gaussian 16 at Tue Dec  3 17:45:51 2024.
