 Gaussian 16, Revision A.03,
 Gaussian 16:  ES64L-G16RevA.03 25-Dec-2016

 --------------------------------------------
 #p opt UM062X/6-311+G** nosymm int=superfine
 --------------------------------------------

 -------------------
 Title Card Required
 -------------------
 Symbolic Z-matrix:
 Charge =  1 Multiplicity = 2

 SCF Done:  E(UM062X) =  -92.5899617838     A.U. after   22 cycles
 SCF Done:  E(UM062X) =  -92.5904519724     A.U. after   15 cycles
 SCF Done:  E(UM062X) =  -92.5904531352     A.U. after   10 cycles
 Optimization completed.
    -- Stationary point found.

                          Input orientation:
 ---------------------------------------------------------------------
 Center     Atomic      Atomic             Coordinates (Angstroms)
 Number     Number       Type             X           Y           Z
 ---------------------------------------------------------------------
      1          6           0       -1.151540    0.000000    0.000000
      2          7           0        1.151540    0.000000    0.000000
      3          1           0       -2.275177   -0.000000    0.000000
 ---------------------------------------------------------------------

 Alpha  occ. eigenvalues --  -15.18845 -11.08818  -1.14121  -1.07759  -0.75037
 Alpha  occ. eigenvalues --   -0.68852  -0.60182
 Alpha virt. eigenvalues --   -0.44638  -0.43107  -0.38877  -0.16408  -0.11302
 Alpha virt. eigenvalues --   -0.10261  -0.09818  -0.05503  -0.01836  -0.01261
 Alpha virt. eigenvalues --    0.00184   0.08003   0.23179   0.29430   0.29436

  Beta  occ. eigenvalues --  -15.17593 -11.08762  -1.09055  -1.05346  -0.74599
  Beta  occ. eigenvalues --   -0.59414
  Beta virt. eigenvalues --   -0.43015  -0.42849  -0.36165  -0.32863  -0.16577
  Beta virt. eigenvalues --   -0.11677  -0.10073  -0.10064  -0.05779  -0.01635
  Beta virt. eigenvalues --   -0.01548   0.00274   0.06453   0.23326   0.29416

 Mulliken charges and spin densities:
               1          2
     1  C    0.331070   0.119575
     2  N    0.352780   0.889154
     3  H    0.316151  -0.008729
 Sum of Mulliken charges =   1.00000   1.00000

 Dipole moment (field-independent basis, Debye):
    X=             -4.7110    Y=             -0.0000    Z=              0.0000  Tot=              4.7110
 Quadrupole moment (field-independent basis, Debye-Ang):
   XX=              4.1422   YY=             -9.8118   ZZ=            -11.0508
   XY=              0.0000   XZ=              0.0000   YZ=              0.7424

 Normal termination of Gaussian 16 at Mon Apr 21 18:35:24 2025.
