 Gaussian 16, Revision A.03,
 Gaussian 16:  ES64L-G16RevA.03 25-Dec-2016

 ----------------------------------------------------------------------
 #p opt UM062X/6-311+G** nosymm int=superfine SCF=(MaxCycle=200,NoVarAc
 c,noincfock) guess=read
 ----------------------------------------------------------------------

 -------------------
 Title Card Required
 -------------------
 Symbolic Z-matrix:
 Charge =  1 Multiplicity = 2

 SCF Done:  E(UM062X) =  -580.871615043     A.U. after   12 cycles
 SCF Done:  E(UM062X) =  -580.872123380     A.U. after   13 cycles
 SCF Done:  E(UM062X) =  -580.872302213     A.U. after   21 cycles
 SCF Done:  E(UM062X) =  -580.886584042     A.U. after   32 cycles
 SCF Done:  E(UM062X) =  -580.902644256     A.U. after   15 cycles
 SCF Done:  E(UM062X) =  -580.901051428     A.U. after   18 cycles
 SCF Done:  E(UM062X) =  -580.905954878     A.U. after   14 cycles
 SCF Done:  E(UM062X) =  -580.906092229     A.U. after   14 cycles
 SCF Done:  E(UM062X) =  -580.906645146     A.U. after   15 cycles
 SCF Done:  E(UM062X) =  -580.900301020     A.U. after   16 cycles
 SCF Done:  E(UM062X) =  -580.908871161     A.U. after   16 cycles
 SCF Done:  E(UM062X) =  -580.909892136     A.U. after   15 cycles
 SCF Done:  E(UM062X) =  -580.910316964     A.U. after   16 cycles
 SCF Done:  E(UM062X) =  -580.910428162     A.U. after   12 cycles
 SCF Done:  E(UM062X) =  -580.910431582     A.U. after   11 cycles
 SCF Done:  E(UM062X) =  -580.910432307     A.U. after   10 cycles
 Optimization completed.
    -- Stationary point found.

                          Input orientation:
 ---------------------------------------------------------------------
 Center     Atomic      Atomic             Coordinates (Angstroms)
 Number     Number       Type             X           Y           Z
 ---------------------------------------------------------------------
      1         14           0       -1.691295    0.000000    0.000000
      2         14           0        1.691295    0.000000    0.000000
      3          1           0       -2.579021   -1.188574   -0.035882
      4          1           0        1.931389    1.255325    0.741392
      5          1           0       -2.578981    1.188570   -0.036931
      6          1           0        1.931414   -1.256457    0.739462
 ---------------------------------------------------------------------

 Alpha  occ. eigenvalues --  -67.26941 -67.24423  -5.81281  -5.78947  -4.12704
 Alpha  occ. eigenvalues --   -4.12425  -4.11914  -4.10357  -4.09668  -4.09641
 Alpha  occ. eigenvalues --   -0.81224  -0.77878  -0.63497  -0.60095  -0.52270
 Alpha  occ. eigenvalues --   -0.47934
 Alpha virt. eigenvalues --   -0.27353  -0.26899  -0.13181  -0.12390  -0.10223
 Alpha virt. eigenvalues --   -0.08880  -0.08842  -0.08087  -0.07625  -0.06584
 Alpha virt. eigenvalues --   -0.06326  -0.05810  -0.05536  -0.02273   0.12424

  Beta  occ. eigenvalues --  -67.26339 -67.24403  -5.80850  -5.78931  -4.12217
  Beta  occ. eigenvalues --   -4.11712  -4.11300  -4.10348  -4.09662  -4.09603
  Beta  occ. eigenvalues --   -0.78486  -0.77065  -0.62000  -0.60024  -0.49265
  Beta virt. eigenvalues --   -0.30491  -0.26817  -0.25462  -0.13184  -0.13045
  Beta virt. eigenvalues --   -0.10395  -0.09066  -0.08151  -0.07287  -0.07193
  Beta virt. eigenvalues --   -0.06548  -0.06099  -0.05676  -0.04349  -0.02611

 Mulliken charges and spin densities:
               1          2
     1  Si   0.467069   0.022332
     2  Si   0.566643   0.858240
     3  H   -0.020376   0.003115
     4  H    0.003521   0.056603
     5  H   -0.020377   0.003102
     6  H    0.003519   0.056608
 Sum of Mulliken charges =   1.00000   1.00000

 Dipole moment (field-independent basis, Debye):
    X=              0.6082    Y=             -0.0001    Z=              0.1077  Tot=              0.6177
 Quadrupole moment (field-independent basis, Debye-Ang):
   XX=             -5.9826   YY=            -25.0651   ZZ=            -23.1489
   XY=             -0.0001   XZ=             -0.0316   YZ=              0.0015

 Normal termination of Gaussian 16 at Tue Apr 22 02:02:21 2025.
