 Gaussian 16, Revision A.03,
 Gaussian 16:  ES64L-G16RevA.03 25-Dec-2016

 -------------------------------------------------------------------
 #p opt UM062X/6-311+G** nosymm int=superfine SCF=NoVarAcc SCF=tight
 -------------------------------------------------------------------

 -------------------
 Title Card Required
 -------------------
 Symbolic Z-matrix:
 Charge =  1 Multiplicity = 2

 SCF Done:  E(UM062X) =  -77.8882957231     A.U. after   11 cycles
 SCF Done:  E(UM062X) =  -77.8923463521     A.U. after   10 cycles
 SCF Done:  E(UM062X) =  -77.8951579559     A.U. after   10 cycles
 SCF Done:  E(UM062X) =  -77.8951622465     A.U. after    9 cycles
 Optimization completed.
    -- Stationary point found.

                          Input orientation:
 ---------------------------------------------------------------------
 Center     Atomic      Atomic             Coordinates (Angstroms)
 Number     Number       Type             X           Y           Z
 ---------------------------------------------------------------------
      1          6           0       -4.106027    0.000000    0.000000
      2          6           0        4.106027    0.000000    0.000000
      3          1           0       -4.669378   -0.941193    0.000000
      4          1           0       -4.669313    0.941231    0.000000
      5          1           0        4.669378    0.941193    0.000000
      6          1           0        4.669313   -0.941231    0.000000
 ---------------------------------------------------------------------

 Alpha  occ. eigenvalues --  -10.85799 -10.85799  -0.97382  -0.97382  -0.72010
 Alpha  occ. eigenvalues --   -0.72010  -0.54840  -0.54839
 Alpha virt. eigenvalues --   -0.29080  -0.29079  -0.09825  -0.09791  -0.05681
 Alpha virt. eigenvalues --   -0.05442  -0.04894  -0.03890  -0.03639  -0.02630
 Alpha virt. eigenvalues --    0.02563   0.02606   0.03050   0.03313   0.29229

  Beta  occ. eigenvalues --  -10.85071 -10.85071  -0.95255  -0.95239  -0.71008
  Beta  occ. eigenvalues --   -0.71008  -0.41083
  Beta virt. eigenvalues --   -0.37324  -0.27482  -0.27476  -0.10132  -0.10084
  Beta virt. eigenvalues --   -0.06253  -0.05961  -0.05285  -0.04413  -0.04140
  Beta virt. eigenvalues --   -0.02835   0.02604   0.02678   0.03518   0.03794

 Mulliken charges and spin densities:
               1          2
     1  C    0.038020   0.486088
     2  C    0.038020   0.486088
     3  H    0.230990   0.006956
     4  H    0.230990   0.006956
     5  H    0.230990   0.006956
     6  H    0.230990   0.006956
 Sum of Mulliken charges =   1.00000   1.00000

 Dipole moment (field-independent basis, Debye):
    X=              0.0000    Y=             -0.0000    Z=              0.0000  Tot=              0.0000
 Quadrupole moment (field-independent basis, Debye-Ang):
   XX=             95.4046   YY=             -9.5045   ZZ=            -10.6626
   XY=             -0.0003   XZ=              0.0000   YZ=             -0.0000

 Normal termination of Gaussian 16 at Tue Dec  3 15:41:33 2024.
