 Gaussian 16, Revision A.03,
 Gaussian 16:  ES64L-G16RevA.03 25-Dec-2016

 ---------------------------------------
 #p UM062X/6-311+G** force int=superfine
 ---------------------------------------

 -------------------
 Title Card Required
 -------------------
 Symbolic Z-matrix:
 Charge =  0 Multiplicity = 1

                         Standard orientation:
 ---------------------------------------------------------------------
 Center     Atomic      Atomic             Coordinates (Angstroms)
 Number     Number       Type             X           Y           Z
 ---------------------------------------------------------------------
      1          6           0        0.000000    0.722530    0.000000
      2          6           0       -0.000000   -0.722530    0.000000
      3          1           0       -0.933487    1.269731    0.000000
      4          1           0        0.933444    1.269799    0.000000
      5          1           0        0.933487   -1.269731    0.000000
      6          1           0       -0.933444   -1.269799    0.000000
 ---------------------------------------------------------------------

 SCF Done:  E(UM062X) =  -78.5503493369     A.U. after    8 cycles

 The electronic state is 1-AG.
 Alpha  occ. eigenvalues --  -10.55662 -10.55599  -0.83662  -0.67393  -0.53707
 Alpha  occ. eigenvalues --   -0.46821  -0.43745  -0.31636
 Alpha virt. eigenvalues --    0.00810   0.03393   0.03956   0.05238   0.08008
 Alpha virt. eigenvalues --    0.08020   0.09716   0.12672   0.15973   0.17135
 Alpha virt. eigenvalues --    0.20387   0.22376   0.30576   0.32414   0.42957

  Beta  occ. eigenvalues --  -10.55662 -10.55599  -0.83662  -0.67393  -0.53707
  Beta  occ. eigenvalues --   -0.46821  -0.43745  -0.31636
  Beta virt. eigenvalues --    0.00810   0.03393   0.03956   0.05238   0.08008
  Beta virt. eigenvalues --    0.08020   0.09716   0.12672   0.15973   0.17135
  Beta virt. eigenvalues --    0.20387   0.22376   0.30576   0.32414   0.42957

 Mulliken charges and spin densities:
               1          2
     1  C   -0.309864  -0.000000
     2  C   -0.309864  -0.000000
     3  H    0.154929   0.000000
     4  H    0.154935   0.000000
     5  H    0.154929   0.000000
     6  H    0.154935   0.000000
 Sum of Mulliken charges =  -0.00000  -0.00000

 Dipole moment (field-independent basis, Debye):
    X=             -0.0000    Y=              0.0000    Z=              0.0000  Tot=              0.0000
 Quadrupole moment (field-independent basis, Debye-Ang):
   XX=            -12.2859   YY=            -12.1317   ZZ=            -16.3954
   XY=              0.0002   XZ=              0.0000   YZ=              0.0000

 Normal termination of Gaussian 16 at Tue Nov 19 11:45:09 2024.
