 Gaussian 16, Revision A.03,
 Gaussian 16:  ES64L-G16RevA.03 25-Dec-2016

 --------------------------------------------
 #p opt UM062X/6-311+G** nosymm int=superfine
 --------------------------------------------

 -------------------
 Title Card Required
 -------------------
 Symbolic Z-matrix:
 Charge =  1 Multiplicity = 2

 SCF Done:  E(UM062X) =  -76.7688761126     A.U. after   12 cycles
 SCF Done:  E(UM062X) =  -76.8119594830     A.U. after   11 cycles
 SCF Done:  E(UM062X) =  -76.8148970282     A.U. after    8 cycles
 SCF Done:  E(UM062X) =  -76.8149041762     A.U. after   17 cycles
 Optimization completed.
    -- Stationary point found.

                          Input orientation:
 ---------------------------------------------------------------------
 Center     Atomic      Atomic             Coordinates (Angstroms)
 Number     Number       Type             X           Y           Z
 ---------------------------------------------------------------------
      1          6           0       -0.528141    0.000000    0.000000
      2          6           0        0.528141    0.000000    0.000000
      3          1           0       -1.603586    0.000000    0.000000
      4          1           0        1.603585    0.000000    0.000000
 ---------------------------------------------------------------------

 Alpha  occ. eigenvalues --  -10.91230 -10.90355  -1.29780  -0.95757  -0.90910
 Alpha  occ. eigenvalues --   -0.79238  -0.76014
 Alpha virt. eigenvalues --   -0.21854  -0.19983  -0.14659  -0.14127  -0.11885
 Alpha virt. eigenvalues --   -0.11101  -0.10789  -0.04000  -0.03394  -0.03260
 Alpha virt. eigenvalues --    0.02393   0.04424   0.17377   0.19561   0.26806

  Beta  occ. eigenvalues --  -10.90922 -10.90093  -1.24275  -0.94222  -0.90185
  Beta  occ. eigenvalues --   -0.73395
  Beta virt. eigenvalues --   -0.50073  -0.18674  -0.16968  -0.15618  -0.13640
  Beta virt. eigenvalues --   -0.11864  -0.11299  -0.10910  -0.03006  -0.02719
  Beta virt. eigenvalues --   -0.02097   0.02486   0.04795   0.18049   0.19973

 Mulliken charges and spin densities:
               1          2
     1  C    0.223073   0.520013
     2  C    0.223073   0.520013
     3  H    0.276927  -0.020013
     4  H    0.276927  -0.020013
 Sum of Mulliken charges =   1.00000   1.00000

 Dipole moment (field-independent basis, Debye):
    X=             -0.0000    Y=              0.0000    Z=              0.0000  Tot=              0.0000
 Quadrupole moment (field-independent basis, Debye-Ang):
   XX=             -1.7131   YY=            -10.6321   ZZ=             -9.1156
   XY=             -0.0000   XZ=             -0.0000   YZ=             -0.2934

 Normal termination of Gaussian 16 at Tue Nov 19 12:56:02 2024.
