 Gaussian 16, Revision A.03,
 Gaussian 16:  ES64L-G16RevA.03 25-Dec-2016

 --------------------------------------------
 #p opt UM062X/6-311+G** nosymm int=superfine
 --------------------------------------------

 -------------------
 Title Card Required
 -------------------
 Symbolic Z-matrix:
 Charge =  0 Multiplicity = 1

 SCF Done:  E(UM062X) =  -382.239832116     A.U. after   14 cycles
 SCF Done:  E(UM062X) =  -382.250286929     A.U. after   11 cycles
 SCF Done:  E(UM062X) =  -382.256463360     A.U. after   14 cycles
 SCF Done:  E(UM062X) =  -382.256568020     A.U. after   10 cycles
 SCF Done:  E(UM062X) =  -382.256622242     A.U. after   11 cycles
 SCF Done:  E(UM062X) =  -382.256662316     A.U. after   12 cycles
 SCF Done:  E(UM062X) =  -382.256673594     A.U. after   10 cycles
 SCF Done:  E(UM062X) =  -382.256675628     A.U. after   10 cycles
 SCF Done:  E(UM062X) =  -382.256676636     A.U. after    9 cycles
 SCF Done:  E(UM062X) =  -382.256677635     A.U. after    9 cycles
 SCF Done:  E(UM062X) =  -382.256678072     A.U. after   11 cycles
 Optimization completed.
    -- Stationary point found.

                          Input orientation:
 ---------------------------------------------------------------------
 Center     Atomic      Atomic             Coordinates (Angstroms)
 Number     Number       Type             X           Y           Z
 ---------------------------------------------------------------------
      1          6           0       -1.981264    0.000000    0.000000
      2         15           0        1.981264    0.000000    0.000000
      3          1           0        1.909345   -1.417463    0.026336
      4          1           0       -2.022239    1.053439    0.235340
      5          1           0        1.909217    0.076550    1.415607
      6          1           0       -2.022187   -0.320577   -1.030705
      7          1           0       -2.053961   -0.730419    0.792691
 ---------------------------------------------------------------------

 Alpha  occ. eigenvalues --  -78.03143 -10.59655  -6.85540  -4.97066  -4.96988
 Alpha  occ. eigenvalues --   -4.96806  -0.78946  -0.69391  -0.51109  -0.51062
 Alpha  occ. eigenvalues --   -0.43555  -0.34651  -0.23664
 Alpha virt. eigenvalues --   -0.12769   0.02146   0.03850   0.03982   0.04532
 Alpha virt. eigenvalues --    0.06237   0.06751   0.07250   0.07288   0.11318
 Alpha virt. eigenvalues --    0.16998   0.18184   0.18249   0.22902   0.30378

  Beta  occ. eigenvalues --  -78.03143 -10.59655  -6.85540  -4.97066  -4.96988
  Beta  occ. eigenvalues --   -4.96806  -0.78946  -0.69391  -0.51109  -0.51062
  Beta  occ. eigenvalues --   -0.43555  -0.34651  -0.23664
  Beta virt. eigenvalues --   -0.12769   0.02146   0.03850   0.03982   0.04532
  Beta virt. eigenvalues --    0.06237   0.06751   0.07250   0.07288   0.11318
  Beta virt. eigenvalues --    0.16998   0.18184   0.18249   0.22902   0.30378

 Mulliken charges and spin densities:
               1          2
     1  C   -0.502875  -0.000000
     2  P   -0.048883   0.000000
     3  H   -0.003510  -0.000000
     4  H    0.187030   0.000000
     5  H   -0.003510  -0.000000
     6  H    0.187010   0.000000
     7  H    0.184737   0.000000
 Sum of Mulliken charges =  -0.00000   0.00000

 Dipole moment (field-independent basis, Debye):
    X=             -1.5852    Y=             -0.5724    Z=              0.6155  Tot=              1.7942
 Quadrupole moment (field-independent basis, Debye-Ang):
   XX=            -22.2896   YY=            -22.4172   ZZ=            -22.5195
   XY=             -1.2707   XZ=              1.3661   YZ=              0.7036

 Normal termination of Gaussian 16 at Mon Apr 21 19:05:24 2025.
