 Gaussian 16, Revision A.03,
 Gaussian 16:  ES64L-G16RevA.03 25-Dec-2016

 --------------------------------------------
 #p opt UM062X/6-311+G** nosymm int=superfine
 --------------------------------------------

 -------------------
 Title Card Required
 -------------------
 Symbolic Z-matrix:
 Charge = -1 Multiplicity = 2

 SCF Done:  E(UM062X) =  -50.6817160027     A.U. after   11 cycles
 SCF Done:  E(UM062X) =  -50.6817211856     A.U. after    7 cycles
 Optimization completed.
    -- Stationary point found.

                          Input orientation:
 ---------------------------------------------------------------------
 Center     Atomic      Atomic             Coordinates (Angstroms)
 Number     Number       Type             X           Y           Z
 ---------------------------------------------------------------------
      1          5           0       -1.016404    0.000000    0.000000
      2          5           0        1.016404    0.000000    0.000000
      3          1           0       -2.197801   -0.000903   -0.000000
      4          1           0        2.197801    0.000903    0.000000
 ---------------------------------------------------------------------

 Alpha  occ. eigenvalues --   -6.89610  -6.89591  -0.36493  -0.33398  -0.18224
 Alpha  occ. eigenvalues --   -0.01972  -0.00663
 Alpha virt. eigenvalues --    0.13953   0.15371   0.16171   0.16330   0.20258
 Alpha virt. eigenvalues --    0.21388   0.21550   0.23106   0.23798   0.23950
 Alpha virt. eigenvalues --    0.27143   0.38304   0.43272   0.56246   0.59212

  Beta  occ. eigenvalues --   -6.89567  -6.89554  -0.34597  -0.32486  -0.17155
  Beta  occ. eigenvalues --    0.01133
  Beta virt. eigenvalues --    0.10742   0.14068   0.14353   0.15661   0.16971
  Beta virt. eigenvalues --    0.19130   0.20772   0.20986   0.21957   0.25490
  Beta virt. eigenvalues --    0.26639   0.27558   0.38559   0.43709   0.56127

 Mulliken charges and spin densities:
               1          2
     1  B   -0.505577   0.525709
     2  B   -0.505577   0.525709
     3  H    0.005577  -0.025709
     4  H    0.005577  -0.025709
 Sum of Mulliken charges =  -1.00000   1.00000

 Dipole moment (field-independent basis, Debye):
    X=              0.0000    Y=             -0.0000    Z=             -0.0000  Tot=              0.0000
 Quadrupole moment (field-independent basis, Debye-Ang):
   XX=            -23.2578   YY=            -29.9259   ZZ=            -22.8749
   XY=              0.0064   XZ=              0.0000   YZ=             -0.0000

 Normal termination of Gaussian 16 at Mon Apr 21 17:30:36 2025.
