 Gaussian 16, Revision A.03,
 Gaussian 16:  ES64L-G16RevA.03 25-Dec-2016

 --------------------------------------------
 #p opt UM062X/6-311+G** nosymm int=superfine
 --------------------------------------------

 -------------------
 Title Card Required
 -------------------
 Symbolic Z-matrix:
 Charge =  0 Multiplicity = 1

 SCF Done:  E(UM062X) =  -81.6907794280     A.U. after   25 cycles
 SCF Done:  E(UM062X) =  -81.7043778629     A.U. after   16 cycles
 SCF Done:  E(UM062X) =  -81.7102878920     A.U. after   16 cycles
 SCF Done:  E(UM062X) =  -81.7120108318     A.U. after   16 cycles
 SCF Done:  E(UM062X) =  -81.7149672642     A.U. after   14 cycles
 SCF Done:  E(UM062X) =  -81.7166317205     A.U. after   16 cycles
 SCF Done:  E(UM062X) =  -81.7168639377     A.U. after   14 cycles
 SCF Done:  E(UM062X) =  -81.7171425910     A.U. after   14 cycles
 SCF Done:  E(UM062X) =  -81.7173690708     A.U. after   14 cycles
 SCF Done:  E(UM062X) =  -81.7174580904     A.U. after   14 cycles
 SCF Done:  E(UM062X) =  -81.7174867005     A.U. after   11 cycles
 SCF Done:  E(UM062X) =  -81.7174885575     A.U. after   13 cycles
 SCF Done:  E(UM062X) =  -81.7174886336     A.U. after   11 cycles
 Optimization completed.
    -- Stationary point found.

                          Input orientation:
 ---------------------------------------------------------------------
 Center     Atomic      Atomic             Coordinates (Angstroms)
 Number     Number       Type             X           Y           Z
 ---------------------------------------------------------------------
      1          5           0       -2.070399    0.000000    0.000000
      2          7           0        2.070399    0.000000    0.000000
      3          1           0       -2.386140   -1.128022   -0.027465
      4          1           0        2.043237    0.802274    0.638074
      5          1           0       -2.386139    1.128010   -0.027974
      6          1           0        2.043239   -0.802003    0.638414
 ---------------------------------------------------------------------

 Alpha  occ. eigenvalues --  -14.71468  -7.18675  -0.87261  -0.63502  -0.52288
 Alpha  occ. eigenvalues --   -0.47916  -0.33179  -0.22358
 Alpha virt. eigenvalues --   -0.12388  -0.09386   0.00472   0.02501   0.04145
 Alpha virt. eigenvalues --    0.04986   0.08879   0.11142   0.13534   0.17381
 Alpha virt. eigenvalues --    0.19692   0.19998   0.21777   0.26186   0.31974

  Beta  occ. eigenvalues --  -14.71468  -7.18675  -0.87261  -0.63502  -0.52288
  Beta  occ. eigenvalues --   -0.47916  -0.33179  -0.22358
  Beta virt. eigenvalues --   -0.12388  -0.09386   0.00472   0.02501   0.04145
  Beta virt. eigenvalues --    0.04986   0.08879   0.11142   0.13534   0.17381
  Beta virt. eigenvalues --    0.19692   0.19998   0.21777   0.26186   0.31974

 Mulliken charges and spin densities:
               1          2
     1  B    0.135862   0.000001
     2  N   -0.679652  -0.000001
     3  H    0.072106   0.000000
     4  H    0.199789   0.000000
     5  H    0.072106   0.000000
     6  H    0.199789   0.000000
 Sum of Mulliken charges =  -0.00000  -0.00000

 Dipole moment (field-independent basis, Debye):
    X=             -5.9659    Y=              0.0004    Z=              1.8964  Tot=              6.2601
 Quadrupole moment (field-independent basis, Debye-Ang):
   XX=            -13.8147   YY=            -13.4679   ZZ=            -14.6437
   XY=              0.0009   XZ=              4.1363   YZ=             -0.0002

 Normal termination of Gaussian 16 at Mon Apr 21 17:55:37 2025.
