 Gaussian 16, Revision A.03,
 Gaussian 16:  ES64L-G16RevA.03 25-Dec-2016

 --------------------------------------------
 #p opt UM062X/6-311+G** nosymm int=superfine
 --------------------------------------------

 -------------------
 Title Card Required
 -------------------
 Symbolic Z-matrix:
 Charge =  0 Multiplicity = 1

 SCF Done:  E(UM062X) =  -78.4273392922     A.U. after    8 cycles
 SCF Done:  E(UM062X) =  -78.4551858456     A.U. after    8 cycles
 SCF Done:  E(UM062X) =  -78.4680511948     A.U. after    8 cycles
 SCF Done:  E(UM062X) =  -78.4691489532     A.U. after    8 cycles
 SCF Done:  E(UM062X) =  -78.4691729082     A.U. after    7 cycles
 Optimization completed.
    -- Stationary point found.

                          Input orientation:
 ---------------------------------------------------------------------
 Center     Atomic      Atomic             Coordinates (Angstroms)
 Number     Number       Type             X           Y           Z
 ---------------------------------------------------------------------
      1          6           0       -0.861734    0.000000    0.000000
      2          6           0        0.861734    0.000000    0.000000
      3          1           0       -1.365698   -0.954367   -0.000000
      4          1           0       -1.365720    0.954284   -0.000000
      5          1           0        1.365698    0.954367   -0.000000
      6          1           0        1.365720   -0.954284   -0.000000
 ---------------------------------------------------------------------

 Alpha  occ. eigenvalues --  -10.58940 -10.58914  -0.79655  -0.69647  -0.53018
 Alpha  occ. eigenvalues --   -0.47297  -0.42270  -0.28345
 Alpha virt. eigenvalues --   -0.03326   0.03371   0.03436   0.05376   0.07626
 Alpha virt. eigenvalues --    0.08642   0.09755   0.11759   0.15681   0.16720
 Alpha virt. eigenvalues --    0.18081   0.20943   0.23062   0.29116   0.40961

  Beta  occ. eigenvalues --  -10.58940 -10.58914  -0.79655  -0.69647  -0.53018
  Beta  occ. eigenvalues --   -0.47297  -0.42270  -0.28345
  Beta virt. eigenvalues --   -0.03326   0.03371   0.03436   0.05376   0.07626
  Beta virt. eigenvalues --    0.08642   0.09755   0.11759   0.15681   0.16720
  Beta virt. eigenvalues --    0.18081   0.20943   0.23062   0.29116   0.40961

 Mulliken charges and spin densities:
               1          2
     1  C   -0.338444  -0.000000
     2  C   -0.338444   0.000000
     3  H    0.169221   0.000000
     4  H    0.169223   0.000000
     5  H    0.169221  -0.000000
     6  H    0.169223  -0.000000
 Sum of Mulliken charges =  -0.00000   0.00000

 Dipole moment (field-independent basis, Debye):
    X=              0.0000    Y=             -0.0000    Z=             -0.0000  Tot=              0.0000
 Quadrupole moment (field-independent basis, Debye-Ang):
   XX=            -11.7423   YY=            -12.2024   ZZ=            -17.3974
   XY=             -0.0001   XZ=             -0.0000   YZ=             -0.0000

 Normal termination of Gaussian 16 at Tue Nov 19 10:50:06 2024.
