 Gaussian 16, Revision A.03,
 Gaussian 16:  ES64L-G16RevA.03 25-Dec-2016

 --------------------------------------------
 #p opt UM062X/6-311+G** nosymm int=superfine
 --------------------------------------------

 -------------------
 Title Card Required
 -------------------
 Symbolic Z-matrix:
 Charge =  0 Multiplicity = 1

 SCF Done:  E(UM062X) =  -92.8355141881     A.U. after   13 cycles
 SCF Done:  E(UM062X) =  -92.8374914562     A.U. after   11 cycles
 SCF Done:  E(UM062X) =  -92.8375024188     A.U. after    8 cycles
 Optimization completed.
    -- Stationary point found.

                          Input orientation:
 ---------------------------------------------------------------------
 Center     Atomic      Atomic             Coordinates (Angstroms)
 Number     Number       Type             X           Y           Z
 ---------------------------------------------------------------------
      1          6           0       -1.647395    0.000000    0.000000
      2          7           0        1.647395    0.000000    0.000000
      3          1           0       -2.773068   -0.000000    0.000000
 ---------------------------------------------------------------------

 Alpha  occ. eigenvalues --  -14.82464 -10.76109  -0.80017  -0.76939  -0.45131
 Alpha  occ. eigenvalues --   -0.26999  -0.26999
 Alpha virt. eigenvalues --   -0.17679  -0.17679  -0.08439   0.00102   0.06587
 Alpha virt. eigenvalues --    0.06587   0.07755   0.12841   0.16505   0.17255
 Alpha virt. eigenvalues --    0.17255   0.24167   0.42313   0.52212   0.52212

  Beta  occ. eigenvalues --  -14.82464 -10.76109  -0.80017  -0.76939  -0.45131
  Beta  occ. eigenvalues --   -0.26999  -0.26999
  Beta virt. eigenvalues --   -0.17679  -0.17679  -0.08439   0.00102   0.06587
  Beta virt. eigenvalues --    0.06587   0.07755   0.12841   0.16505   0.17255
  Beta virt. eigenvalues --    0.17255   0.24167   0.42313   0.52212   0.52212

 Mulliken charges and spin densities:
               1          2
     1  C    0.054225  -0.000000
     2  N   -0.232283   0.000000
     3  H    0.178058   0.000000
 Sum of Mulliken charges =  -0.00000  -0.00000

 Dipole moment (field-independent basis, Debye):
    X=             -5.6343    Y=             -0.0000    Z=             -0.0000  Tot=              5.6343
 Quadrupole moment (field-independent basis, Debye-Ang):
   XX=             -4.9251   YY=            -14.2926   ZZ=            -14.2926
   XY=              0.0000   XZ=             -0.0000   YZ=             -0.0000

 Normal termination of Gaussian 16 at Mon Apr 21 18:34:20 2025.
