 Gaussian 16, Revision A.03,
 Gaussian 16:  ES64L-G16RevA.03 25-Dec-2016

 --------------------------------------------
 #p opt UM062X/6-311+G** nosymm int=superfine
 --------------------------------------------

 -------------------
 Title Card Required
 -------------------
 Symbolic Z-matrix:
 Charge = -1 Multiplicity = 2

 SCF Done:  E(UM062X) =  -51.9701852006     A.U. after   11 cycles
 SCF Done:  E(UM062X) =  -51.9718481878     A.U. after    9 cycles
 SCF Done:  E(UM062X) =  -51.9724158975     A.U. after   10 cycles
 SCF Done:  E(UM062X) =  -51.9724184898     A.U. after   10 cycles
 SCF Done:  E(UM062X) =  -51.9723494197     A.U. after   12 cycles
 SCF Done:  E(UM062X) =  -51.9724196925     A.U. after   12 cycles
 Optimization completed.
    -- Stationary point found.

                          Input orientation:
 ---------------------------------------------------------------------
 Center     Atomic      Atomic             Coordinates (Angstroms)
 Number     Number       Type             X           Y           Z
 ---------------------------------------------------------------------
      1          5           0       -1.147274    0.000000    0.000000
      2          5           0        1.147274    0.000000    0.000000
      3          1           0       -1.741677   -1.044003   -0.000182
      4          1           0        1.741677    1.044003   -0.000679
      5          1           0       -1.741677    1.044003    0.000415
      6          1           0        1.741677   -1.044003    0.000913
 ---------------------------------------------------------------------

 Alpha  occ. eigenvalues --   -6.84666  -6.84656  -0.36937  -0.33553  -0.21130
 Alpha  occ. eigenvalues --   -0.19081  -0.07316   0.00830
 Alpha virt. eigenvalues --    0.15722   0.16196   0.16896   0.19275   0.19373
 Alpha virt. eigenvalues --    0.22468   0.22753   0.25014   0.26462   0.30544
 Alpha virt. eigenvalues --    0.33495   0.35311   0.37334   0.43097   0.50900

  Beta  occ. eigenvalues --   -6.84641  -6.84633  -0.35170  -0.32354  -0.20890
  Beta  occ. eigenvalues --   -0.19024  -0.06350
  Beta virt. eigenvalues --    0.11309   0.14133   0.14989   0.15860   0.16780
  Beta virt. eigenvalues --    0.18297   0.18790   0.21135   0.23073   0.27304
  Beta virt. eigenvalues --    0.32432   0.32571   0.35374   0.36223   0.43041

 Mulliken charges and spin densities:
               1          2
     1  B   -0.388206   0.544827
     2  B   -0.388206   0.544827
     3  H   -0.055897  -0.022413
     4  H   -0.055897  -0.022413
     5  H   -0.055897  -0.022413
     6  H   -0.055897  -0.022413
 Sum of Mulliken charges =  -1.00000   1.00000

 Dipole moment (field-independent basis, Debye):
    X=              0.0000    Y=              0.0000    Z=              0.0001  Tot=              0.0001
 Quadrupole moment (field-independent basis, Debye-Ang):
   XX=            -30.3372   YY=            -23.3105   ZZ=            -24.2168
   XY=             -0.0000   XZ=             -0.0000   YZ=             -0.0002

 Normal termination of Gaussian 16 at Mon Apr 21 17:21:49 2025.
