 Gaussian 16, Revision A.03,
 Gaussian 16:  ES64L-G16RevA.03 25-Dec-2016

 ---------------------------------------
 #p UM062X/6-311+G** force int=superfine
 ---------------------------------------

 -------------------
 Title Card Required
 -------------------
 Symbolic Z-matrix:
 Charge =  1 Multiplicity = 2

                         Standard orientation:
 ---------------------------------------------------------------------
 Center     Atomic      Atomic             Coordinates (Angstroms)
 Number     Number       Type             X           Y           Z
 ---------------------------------------------------------------------
      1          6           0        0.000000    0.000000    0.410086
      2          6           0        0.000000    0.000000   -0.410086
      3          1           0        0.000000    0.000000    1.476734
      4          1           0        0.000000    0.000000   -1.476734
 ---------------------------------------------------------------------

 SCF Done:  E(UM062X) =  -76.1522933844     A.U. after   11 cycles

 Unable to determine electronic state:  an orbital has unidentified symmetry.
 Alpha  occ. eigenvalues --  -10.94181 -10.87635  -1.33902  -0.93689  -0.92038
 Alpha  occ. eigenvalues --   -0.91190  -0.87023
 Alpha virt. eigenvalues --   -0.14981  -0.14684  -0.13408  -0.13309  -0.12194
 Alpha virt. eigenvalues --   -0.11872  -0.11818  -0.01496  -0.00541  -0.00454
 Alpha virt. eigenvalues --    0.02696   0.03662   0.17063   0.22860   0.23389

  Beta  occ. eigenvalues --  -10.93615 -10.87252  -1.26885  -0.92179  -0.90951
  Beta  occ. eigenvalues --   -0.84233
  Beta virt. eigenvalues --   -0.57635  -0.15452  -0.13012  -0.12789  -0.12388
  Beta virt. eigenvalues --   -0.12294  -0.11918  -0.11720  -0.00277   0.00179
  Beta virt. eigenvalues --    0.01287   0.03212   0.04209   0.17372   0.21688

 Mulliken charges and spin densities:
               1          2
     1  C    0.264347   0.524351
     2  C    0.264347   0.524351
     3  H    0.235653  -0.024351
     4  H    0.235653  -0.024351
 Sum of Mulliken charges =   1.00000   1.00000

 Dipole moment (field-independent basis, Debye):
    X=              0.0000    Y=              0.0000    Z=             -0.0000  Tot=              0.0000
 Quadrupole moment (field-independent basis, Debye-Ang):
   XX=             -9.6279   YY=             -8.2850   ZZ=             -2.9219
   XY=             -0.0000   XZ=             -0.0000   YZ=             -0.0000

 Normal termination of Gaussian 16 at Tue Nov 19 13:24:29 2024.
