 Gaussian 16, Revision A.03,
 Gaussian 16:  ES64L-G16RevA.03 25-Dec-2016

 --------------------------------------------
 #p opt UM062X/6-311+G** nosymm int=superfine
 --------------------------------------------

 -------------------
 Title Card Required
 -------------------
 Symbolic Z-matrix:
 Charge =  0 Multiplicity = 1

 SCF Done:  E(UM062X) =  -579.799706603     A.U. after   10 cycles
 SCF Done:  E(UM062X) =  -580.133597022     A.U. after    9 cycles
 SCF Done:  E(UM062X) =  -580.550617231     A.U. after   10 cycles
 SCF Done:  E(UM062X) =  -580.838732933     A.U. after   10 cycles
 SCF Done:  E(UM062X) =  -580.895128208     A.U. after   10 cycles
 SCF Done:  E(UM062X) =  -580.941699788     A.U. after    9 cycles
 SCF Done:  E(UM062X) =  -581.070895087     A.U. after    9 cycles
 SCF Done:  E(UM062X) =  -581.120169651     A.U. after   10 cycles
 SCF Done:  E(UM062X) =  -581.221499038     A.U. after    9 cycles
 SCF Done:  E(UM062X) =  -581.268051521     A.U. after   10 cycles
 SCF Done:  E(UM062X) =  -581.271178962     A.U. after    8 cycles
 SCF Done:  E(UM062X) =  -581.272559634     A.U. after    8 cycles
 SCF Done:  E(UM062X) =  -581.272624343     A.U. after    7 cycles
 SCF Done:  E(UM062X) =  -581.272633355     A.U. after    7 cycles
 Optimization completed.
    -- Stationary point found.

                          Input orientation:
 ---------------------------------------------------------------------
 Center     Atomic      Atomic             Coordinates (Angstroms)
 Number     Number       Type             X           Y           Z
 ---------------------------------------------------------------------
      1         14           0       -1.062518    0.000085   -0.000048
      2         14           0        1.062518   -0.000085   -0.000048
      3          1           0       -1.843512   -1.248622   -0.000095
      4          1           0        1.843512    1.248621    0.000782
      5          1           0       -1.843323    1.248924   -0.000143
      6          1           0        1.843323   -1.248923   -0.001020
 ---------------------------------------------------------------------

 Alpha  occ. eigenvalues --  -66.99883 -66.99883  -5.55179  -5.55154  -3.86350
 Alpha  occ. eigenvalues --   -3.86332  -3.86302  -3.86173  -3.86157  -3.86152
 Alpha  occ. eigenvalues --   -0.64127  -0.55715  -0.43929  -0.41213  -0.38254
 Alpha  occ. eigenvalues --   -0.24918
 Alpha virt. eigenvalues --   -0.03970   0.01344   0.02255   0.02865   0.03650
 Alpha virt. eigenvalues --    0.04733   0.04871   0.05843   0.07281   0.07400
 Alpha virt. eigenvalues --    0.07698   0.09390   0.13714   0.23516   0.25990

  Beta  occ. eigenvalues --  -66.99883 -66.99883  -5.55179  -5.55154  -3.86350
  Beta  occ. eigenvalues --   -3.86332  -3.86302  -3.86173  -3.86157  -3.86152
  Beta  occ. eigenvalues --   -0.64127  -0.55715  -0.43929  -0.41213  -0.38254
  Beta  occ. eigenvalues --   -0.24918
  Beta virt. eigenvalues --   -0.03970   0.01344   0.02255   0.02865   0.03650
  Beta virt. eigenvalues --    0.04733   0.04871   0.05843   0.07281   0.07400
  Beta virt. eigenvalues --    0.07698   0.09390   0.13714   0.23516   0.25990

 Mulliken charges and spin densities:
               1          2
     1  Si   0.135112  -0.000000
     2  Si   0.135112   0.000000
     3  H   -0.067556   0.000000
     4  H   -0.067556   0.000000
     5  H   -0.067556  -0.000000
     6  H   -0.067556   0.000000
 Sum of Mulliken charges =  -0.00000  -0.00000

 Dipole moment (field-independent basis, Debye):
    X=              0.0000    Y=              0.0000    Z=              0.0000  Tot=              0.0000
 Quadrupole moment (field-independent basis, Debye-Ang):
   XX=            -27.5888   YY=            -29.0988   ZZ=            -31.9211
   XY=             -0.0001   XZ=             -0.0000   YZ=              0.0010

 Normal termination of Gaussian 16 at Wed Apr 16 05:26:46 2025.
