 Gaussian 16, Revision A.03,
 Gaussian 16:  ES64L-G16RevA.03 25-Dec-2016

 --------------------------------------------
 #p opt UM062X/6-311+G** nosymm int=superfine
 --------------------------------------------

 -------------------
 Title Card Required
 -------------------
 Symbolic Z-matrix:
 Charge =  1 Multiplicity = 2

 SCF Done:  E(UM062X) =  -76.5832975315     A.U. after   13 cycles
 SCF Done:  E(UM062X) =  -76.5837770691     A.U. after   12 cycles
 SCF Done:  E(UM062X) =  -76.5837778069     A.U. after    8 cycles
 Optimization completed.
    -- Stationary point found.

                          Input orientation:
 ---------------------------------------------------------------------
 Center     Atomic      Atomic             Coordinates (Angstroms)
 Number     Number       Type             X           Y           Z
 ---------------------------------------------------------------------
      1          6           0       -1.357160    0.000000    0.000000
      2          6           0        1.357160    0.000000    0.000000
      3          1           0       -2.478779   -0.000000    0.000000
      4          1           0        2.478779    0.000000    0.000000
 ---------------------------------------------------------------------

 Alpha  occ. eigenvalues --  -10.95419 -10.95417  -0.99532  -0.98552  -0.68537
 Alpha  occ. eigenvalues --   -0.60496  -0.51312
 Alpha virt. eigenvalues --   -0.39594  -0.35459  -0.33354  -0.13162  -0.11703
 Alpha virt. eigenvalues --   -0.08234  -0.07692  -0.06365  -0.05242  -0.04849
 Alpha virt. eigenvalues --   -0.01140   0.01422   0.05921   0.24731   0.31661

  Beta  occ. eigenvalues --  -10.95035 -10.95034  -0.97090  -0.96390  -0.67263
  Beta  occ. eigenvalues --   -0.59004
  Beta virt. eigenvalues --   -0.33818  -0.32245  -0.31465  -0.29806  -0.13776
  Beta virt. eigenvalues --   -0.11643  -0.07779  -0.07143  -0.07034  -0.04550
  Beta virt. eigenvalues --   -0.03645  -0.01890   0.03125   0.07103   0.23929

 Mulliken charges and spin densities:
               1          2
     1  C    0.250115   0.515868
     2  C    0.250115   0.515868
     3  H    0.249885  -0.015868
     4  H    0.249885  -0.015868
 Sum of Mulliken charges =   1.00000   1.00000

 Dipole moment (field-independent basis, Debye):
    X=             -0.0000    Y=              0.0000    Z=              0.0000  Tot=              0.0000
 Quadrupole moment (field-independent basis, Debye-Ang):
   XX=              9.1152   YY=            -10.7351   ZZ=            -10.3466
   XY=              0.0000   XZ=              0.0000   YZ=             -1.0205

 Normal termination of Gaussian 16 at Tue Dec  3 11:26:52 2024.
