 Gaussian 16, Revision A.03,
 Gaussian 16:  ES64L-G16RevA.03 25-Dec-2016

 --------------------------------------------
 #p opt UM062X/6-311+G** nosymm int=superfine
 --------------------------------------------

 -------------------
 Title Card Required
 -------------------
 Symbolic Z-matrix:
 Charge =  0 Multiplicity = 1

 SCF Done:  E(UM062X) =  -437.183455159     A.U. after   17 cycles
 SCF Done:  E(UM062X) =  -437.184376192     A.U. after   14 cycles
 SCF Done:  E(UM062X) =  -437.184703719     A.U. after   14 cycles
 SCF Done:  E(UM062X) =  -437.184702052     A.U. after   11 cycles
 SCF Done:  E(UM062X) =  -437.184703971     A.U. after   13 cycles
 Optimization completed.
    -- Stationary point found.

                          Input orientation:
 ---------------------------------------------------------------------
 Center     Atomic      Atomic             Coordinates (Angstroms)
 Number     Number       Type             X           Y           Z
 ---------------------------------------------------------------------
      1          6           0       -1.577140    0.000000    0.000000
      2         16           0        1.577140    0.000000    0.000000
      3          1           0       -2.221656   -0.891237   -0.000028
      4          1           0       -2.222442    0.890669   -0.000165
 ---------------------------------------------------------------------

 Alpha  occ. eigenvalues --  -89.91705 -10.66808  -8.27692  -6.20394  -6.18957
 Alpha  occ. eigenvalues --   -6.18941  -0.80058  -0.72015  -0.53280  -0.36019
 Alpha  occ. eigenvalues --   -0.29501  -0.29467
 Alpha virt. eigenvalues --   -0.13510  -0.12299   0.00679   0.05213   0.05605
 Alpha virt. eigenvalues --    0.06617   0.08447   0.08938   0.09254   0.14181
 Alpha virt. eigenvalues --    0.16671   0.17048   0.36303   0.37334   0.37354

  Beta  occ. eigenvalues --  -89.91705 -10.66808  -8.27692  -6.20394  -6.18957
  Beta  occ. eigenvalues --   -6.18941  -0.80058  -0.72015  -0.53280  -0.36019
  Beta  occ. eigenvalues --   -0.29501  -0.29467
  Beta virt. eigenvalues --   -0.13510  -0.12299   0.00679   0.05213   0.05605
  Beta virt. eigenvalues --    0.06617   0.08447   0.08938   0.09254   0.14181
  Beta virt. eigenvalues --    0.16671   0.17048   0.36303   0.37334   0.37354

 Mulliken charges and spin densities:
               1          2
     1  C   -0.253152  -0.000000
     2  S   -0.089358   0.000000
     3  H    0.171250   0.000000
     4  H    0.171260  -0.000000
 Sum of Mulliken charges =  -0.00000  -0.00000

 Dipole moment (field-independent basis, Debye):
    X=             -4.0662    Y=             -0.0008    Z=             -0.0003  Tot=              4.0662
 Quadrupole moment (field-independent basis, Debye-Ang):
   XX=            -12.3246   YY=            -22.2439   ZZ=            -22.0386
   XY=             -0.0001   XZ=             -0.0001   YZ=              0.0000

 Normal termination of Gaussian 16 at Mon Apr 21 19:44:36 2025.
