 Gaussian 16, Revision A.03,
 Gaussian 16:  ES64L-G16RevA.03 25-Dec-2016

 --------------------------------------------
 #p opt UM062X/6-311+G** nosymm int=superfine
 --------------------------------------------

 -------------------
 Title Card Required
 -------------------
 Symbolic Z-matrix:
 Charge =  0 Multiplicity = 1

 SCF Done:  E(UM062X) =  -382.235534783     A.U. after   15 cycles
 SCF Done:  E(UM062X) =  -382.246071252     A.U. after   11 cycles
 SCF Done:  E(UM062X) =  -382.252417163     A.U. after   13 cycles
 SCF Done:  E(UM062X) =  -382.252529023     A.U. after   10 cycles
 SCF Done:  E(UM062X) =  -382.252586288     A.U. after   11 cycles
 SCF Done:  E(UM062X) =  -382.252634627     A.U. after   10 cycles
 SCF Done:  E(UM062X) =  -382.252649433     A.U. after   11 cycles
 SCF Done:  E(UM062X) =  -382.252651630     A.U. after    9 cycles
 SCF Done:  E(UM062X) =  -382.252652502     A.U. after   10 cycles
 SCF Done:  E(UM062X) =  -382.252653681     A.U. after    9 cycles
 SCF Done:  E(UM062X) =  -382.252654252     A.U. after   10 cycles
 SCF Done:  E(UM062X) =  -382.252654407     A.U. after    7 cycles
 Optimization completed.
    -- Stationary point found.

                          Input orientation:
 ---------------------------------------------------------------------
 Center     Atomic      Atomic             Coordinates (Angstroms)
 Number     Number       Type             X           Y           Z
 ---------------------------------------------------------------------
      1          6           0       -2.031264    0.000000    0.000000
      2         15           0        2.031264    0.000000    0.000000
      3          1           0        1.956756   -1.417366    0.025126
      4          1           0       -2.065557    1.053848    0.234812
      5          1           0        1.956553    0.075215    1.415553
      6          1           0       -2.065555   -0.321303   -1.030776
      7          1           0       -2.098520   -0.730198    0.793395
 ---------------------------------------------------------------------

 Alpha  occ. eigenvalues --  -78.03103 -10.59720  -6.85508  -4.97033  -4.96956
 Alpha  occ. eigenvalues --   -4.96774  -0.79029  -0.69382  -0.51207  -0.51159
 Alpha  occ. eigenvalues --   -0.43546  -0.34643  -0.23426
 Alpha virt. eigenvalues --   -0.13069   0.02142   0.03822   0.03980   0.04521
 Alpha virt. eigenvalues --    0.06210   0.06711   0.07243   0.07306   0.11235
 Alpha virt. eigenvalues --    0.16868   0.18125   0.18183   0.22800   0.30428

  Beta  occ. eigenvalues --  -78.03103 -10.59720  -6.85508  -4.97033  -4.96956
  Beta  occ. eigenvalues --   -4.96774  -0.79029  -0.69382  -0.51207  -0.51159
  Beta  occ. eigenvalues --   -0.43546  -0.34643  -0.23426
  Beta virt. eigenvalues --   -0.13069   0.02142   0.03822   0.03980   0.04521
  Beta virt. eigenvalues --    0.06210   0.06711   0.07243   0.07306   0.11235
  Beta virt. eigenvalues --    0.16868   0.18125   0.18183   0.22800   0.30428

 Mulliken charges and spin densities:
               1          2
     1  C   -0.498275   0.000000
     2  P   -0.049347  -0.000000
     3  H   -0.004825   0.000000
     4  H    0.186531  -0.000000
     5  H   -0.004826   0.000000
     6  H    0.186506  -0.000000
     7  H    0.184236  -0.000000
 Sum of Mulliken charges =  -0.00000   0.00000

 Dipole moment (field-independent basis, Debye):
    X=             -1.6441    Y=             -0.5750    Z=              0.6172  Tot=              1.8478
 Quadrupole moment (field-independent basis, Debye-Ang):
   XX=            -22.3417   YY=            -22.4272   ZZ=            -22.5270
   XY=             -1.2916   XZ=              1.3859   YZ=              0.7034

 Normal termination of Gaussian 16 at Mon Apr 21 19:09:49 2025.
