 Gaussian 16, Revision A.03,
 Gaussian 16:  ES64L-G16RevA.03 25-Dec-2016

 --------------------------------------------
 #p opt UM062X/6-311+G** nosymm int=superfine
 --------------------------------------------

 -------------------
 Title Card Required
 -------------------
 Symbolic Z-matrix:
 Charge =  1 Multiplicity = 2

 SCF Done:  E(UM062X) =  -1615.57682152     A.U. after   23 cycles
 SCF Done:  E(UM062X) =  -1615.58391451     A.U. after   22 cycles
 SCF Done:  E(UM062X) =  -1615.58764064     A.U. after   21 cycles
 SCF Done:  E(UM062X) =  -1615.58752478     A.U. after   22 cycles
 SCF Done:  E(UM062X) =  -1615.58194197     A.U. after   25 cycles
 SCF Done:  E(UM062X) =  -1615.58728630     A.U. after   23 cycles
 SCF Done:  E(UM062X) =  -1615.58794885     A.U. after   15 cycles
 SCF Done:  E(UM062X) =  -1615.58800469     A.U. after   19 cycles
 SCF Done:  E(UM062X) =  -1615.58802171     A.U. after   19 cycles
 SCF Done:  E(UM062X) =  -1615.58802805     A.U. after   17 cycles
 SCF Done:  E(UM062X) =  -1615.58802869     A.U. after   15 cycles
 SCF Done:  E(UM062X) =  -1615.58802935     A.U. after   15 cycles
 SCF Done:  E(UM062X) =  -1615.58802945     A.U. after   13 cycles
 SCF Done:  E(UM062X) =  -1615.58802947     A.U. after   13 cycles
 Optimization completed.
    -- Stationary point found.

                          Input orientation:
 ---------------------------------------------------------------------
 Center     Atomic      Atomic             Coordinates (Angstroms)
 Number     Number       Type             X           Y           Z
 ---------------------------------------------------------------------
      1          6           0       -1.469457    0.000000    0.000000
      2          6           0        1.469457    0.000000    0.000000
      3          6           0       -0.000000   -2.099215   -0.000008
      4          6           0       -0.000004   -3.490061   -0.000023
      5          6           0       -1.133502   -4.306568    0.226196
      6          6           0       -1.278482   -1.476242    0.200112
      7          6           0        0.662964   -5.701060   -0.134481
      8          1           0        1.287558   -6.573247   -0.264657
      9          6           0       -1.577792    0.789580    1.202130
     10          6           0       -0.662960   -5.701059    0.134515
     11          1           0       -1.287551   -6.573245    0.264711
     12          6           0        1.133500   -4.306569   -0.226208
     13          6           0        1.278486   -1.476246   -0.200108
     14          6           0        1.735575    2.211598   -1.284503
     15          6           0       -1.614216    0.375584   -1.384865
     16          6           0       -1.872429    2.816533    2.547747
     17          1           0       -2.007600    3.891297    2.584623
     18          6           0       -2.333135   -3.690286    0.473132
     19          1           0       -3.241874   -4.249666    0.663284
     20          6           0       -1.629135    1.709585   -1.910209
     21          6           0        2.382114   -2.269356   -0.446339
     22          1           0        3.341967   -1.782711   -0.586824
     23          6           0        1.614254    0.375548    1.384861
     24          6           0        1.629306    1.709537    1.910235
     25          6           0        2.333145   -3.690291   -0.473092
     26          1           0        3.241893   -4.249674   -0.663189
     27          6           0       -1.735315    2.211620    1.284524
     28          6           0       -1.493189    0.093810    2.442852
     29          1           0       -1.327643   -0.972621    2.436828
     30          6           0        1.710355   -0.678730    2.347133
     31          1           0        1.733914   -1.704166    2.011475
     32          6           0       -1.837313    2.096327    3.723391
     33          1           0       -1.956027    2.597735    4.676217
     34          6           0       -2.382101   -2.269352    0.446381
     35          1           0       -3.341950   -1.782705    0.586894
     36          6           0       -1.688158    1.901348   -3.305856
     37          1           0       -1.679296    2.919143   -3.678274
     38          6           0        1.577837    0.789582   -1.202129
     39          6           0       -1.703399    3.136591    0.182309
     40          1           0       -1.740894    4.178568    0.485072
     41          6           0       -1.781496    0.855768   -4.195090
     42          1           0       -1.846477    1.046010   -5.259517
     43          6           0       -1.626208    2.927175   -1.146443
     44          1           0       -1.601111    3.825683   -1.755745
     45          6           0        1.688259    1.901261    3.305889
     46          1           0        1.679481    2.919048    3.678330
     47          6           0       -1.625504    0.717520    3.663137
     48          1           0       -1.559944    0.131474    4.571787
     49          6           0       -1.710451   -0.678660   -2.347160
     50          1           0       -1.734086   -1.704104   -2.011538
     51          6           0        1.781434    0.855649    4.195103
     52          1           0        1.846357    1.045859    5.259540
     53          6           0        1.872712    2.816516   -2.547720
     54          1           0        2.008045    3.891261   -2.584582
     55          6           0        1.809556   -0.452203    3.698658
     56          1           0        1.905127   -1.293382    4.374317
     57          6           0        1.837426    2.096339   -3.723377
     58          1           0        1.956164    2.597749   -4.676199
     59          6           0        1.703899    3.136553   -0.182267
     60          1           0        1.741637    4.178526   -0.485011
     61          6           0       -1.809699   -0.452092   -3.698676
     62          1           0       -1.905369   -1.293246   -4.374352
     63          6           0        1.626661    2.927135    1.146483
     64          1           0        1.601767    3.825642    1.755795
     65          6           0        1.493103    0.093842   -2.442859
     66          1           0        1.327419   -0.972567   -2.436853
     67          6           0        1.625438    0.717559   -3.663139
     68          1           0        1.559765    0.131538   -4.571797
 ---------------------------------------------------------------------

 Alpha  occ. eigenvalues --  -10.70819 -10.70818 -10.68604 -10.68604 -10.68575
 Alpha  occ. eigenvalues --  -10.68575 -10.68239 -10.68239 -10.68196 -10.68196
 Alpha  occ. eigenvalues --  -10.67189 -10.67187 -10.66652 -10.66652 -10.66641
 Alpha  occ. eigenvalues --  -10.66548 -10.66548 -10.65968 -10.65968 -10.65821
 Alpha  occ. eigenvalues --  -10.65821 -10.65752 -10.65752 -10.65730 -10.65729
 Alpha  occ. eigenvalues --  -10.65622 -10.65622 -10.65618 -10.65617 -10.65605
 Alpha  occ. eigenvalues --  -10.65605 -10.65452 -10.65452 -10.65418 -10.65418
 Alpha  occ. eigenvalues --  -10.65312 -10.65312 -10.64930 -10.64930 -10.63895
 Alpha  occ. eigenvalues --  -10.63795 -10.63527  -1.12121  -1.10262  -1.10127
 Alpha  occ. eigenvalues --   -1.08362  -1.07793  -1.05491  -1.04923  -1.02553
 Alpha  occ. eigenvalues --   -1.02117  -1.00964  -1.00354  -0.97954  -0.97638
 Alpha  occ. eigenvalues --   -0.96795  -0.96287  -0.94958  -0.93528  -0.93484
 Alpha  occ. eigenvalues --   -0.92843  -0.91804  -0.87389  -0.87289  -0.84993
 Alpha  occ. eigenvalues --   -0.84787  -0.83085  -0.81483  -0.81018  -0.79805
 Alpha  occ. eigenvalues --   -0.79701  -0.79535  -0.77448  -0.76368  -0.76185
 Alpha  occ. eigenvalues --   -0.75846  -0.75396  -0.73445  -0.70218  -0.69662
 Alpha  occ. eigenvalues --   -0.68946  -0.68549  -0.67756  -0.67655  -0.66930
 Alpha  occ. eigenvalues --   -0.66873  -0.65722  -0.65368  -0.65210  -0.64753
 Alpha  occ. eigenvalues --   -0.63251  -0.62846  -0.62393  -0.62136  -0.61033
 Alpha  occ. eigenvalues --   -0.61006  -0.60571  -0.60472  -0.60111  -0.60054
 Alpha  occ. eigenvalues --   -0.59567  -0.58874  -0.58817  -0.58129  -0.57755
 Alpha  occ. eigenvalues --   -0.57547  -0.56936  -0.55974  -0.55665  -0.55655
 Alpha  occ. eigenvalues --   -0.54956  -0.53968  -0.53058  -0.52848  -0.52643
 Alpha  occ. eigenvalues --   -0.52382  -0.52379  -0.52234  -0.51025  -0.50962
 Alpha  occ. eigenvalues --   -0.50960  -0.50894  -0.49916  -0.49527  -0.49465
 Alpha  occ. eigenvalues --   -0.48755  -0.48491  -0.47859  -0.45253  -0.44720
 Alpha  occ. eigenvalues --   -0.44064  -0.42790  -0.40492  -0.40427  -0.39289
 Alpha  occ. eigenvalues --   -0.38166  -0.37543  -0.37100  -0.31009
 Alpha virt. eigenvalues --   -0.20709  -0.15997  -0.15532  -0.14334  -0.10661
 Alpha virt. eigenvalues --   -0.09978  -0.08919  -0.08548  -0.08361  -0.07561
 Alpha virt. eigenvalues --   -0.07529  -0.07435  -0.06653  -0.06349  -0.06146

  Beta  occ. eigenvalues --  -10.70672 -10.70672 -10.68647 -10.68647 -10.68612
  Beta  occ. eigenvalues --  -10.68611 -10.68199 -10.68199 -10.68152 -10.68152
  Beta  occ. eigenvalues --  -10.67208 -10.67206 -10.66647 -10.66647 -10.66612
  Beta  occ. eigenvalues --  -10.66540 -10.66540 -10.65929 -10.65929 -10.65788
  Beta  occ. eigenvalues --  -10.65788 -10.65717 -10.65717 -10.65701 -10.65700
  Beta  occ. eigenvalues --  -10.65641 -10.65640 -10.65623 -10.65623 -10.65616
  Beta  occ. eigenvalues --  -10.65616 -10.65465 -10.65465 -10.65405 -10.65405
  Beta  occ. eigenvalues --  -10.65330 -10.65329 -10.64928 -10.64928 -10.63895
  Beta  occ. eigenvalues --  -10.63795 -10.63524  -1.11968  -1.10100  -1.10044
  Beta  occ. eigenvalues --   -1.08252  -1.07698  -1.05329  -1.04789  -1.02436
  Beta  occ. eigenvalues --   -1.02016  -1.00793  -1.00186  -0.97852  -0.97545
  Beta  occ. eigenvalues --   -0.96681  -0.96190  -0.94910  -0.93463  -0.93388
  Beta  occ. eigenvalues --   -0.92771  -0.91719  -0.87096  -0.86932  -0.84926
  Beta  occ. eigenvalues --   -0.84726  -0.83006  -0.81389  -0.80911  -0.79723
  Beta  occ. eigenvalues --   -0.79633  -0.79464  -0.77340  -0.76217  -0.76035
  Beta  occ. eigenvalues --   -0.75685  -0.75359  -0.73325  -0.70102  -0.69518
  Beta  occ. eigenvalues --   -0.68816  -0.68437  -0.67707  -0.67610  -0.66808
  Beta  occ. eigenvalues --   -0.66766  -0.65642  -0.65223  -0.65070  -0.64655
  Beta  occ. eigenvalues --   -0.63050  -0.62799  -0.62312  -0.62060  -0.60875
  Beta  occ. eigenvalues --   -0.60743  -0.60417  -0.60289  -0.60051  -0.60001
  Beta  occ. eigenvalues --   -0.59438  -0.58743  -0.58729  -0.58058  -0.57575
  Beta  occ. eigenvalues --   -0.57272  -0.56704  -0.55673  -0.55619  -0.55603
  Beta  occ. eigenvalues --   -0.54934  -0.53657  -0.52953  -0.52764  -0.52574
  Beta  occ. eigenvalues --   -0.52288  -0.52274  -0.52191  -0.50960  -0.50889
  Beta  occ. eigenvalues --   -0.50809  -0.50487  -0.49507  -0.49328  -0.48882
  Beta  occ. eigenvalues --   -0.48434  -0.48355  -0.47556  -0.44624  -0.44184
  Beta  occ. eigenvalues --   -0.43344  -0.42443  -0.40362  -0.40127  -0.38700
  Beta  occ. eigenvalues --   -0.38027  -0.37279  -0.37001
  Beta virt. eigenvalues --   -0.21276  -0.17973  -0.15798  -0.15493  -0.14386
  Beta virt. eigenvalues --   -0.10354  -0.09575  -0.08543  -0.08481  -0.08126
  Beta virt. eigenvalues --   -0.07592  -0.07570  -0.07210  -0.06636  -0.06283

 Mulliken charges and spin densities:
               1          2
     1  C    0.018170   0.370357
     2  C    0.017881   0.370369
     3  C    0.275256   0.009900
     4  C    0.197340  -0.005624
     5  C    0.153025   0.005801
     6  C   -0.030255  -0.032968
     7  C   -0.304825   0.000829
     8  H    0.176137  -0.000026
     9  C    0.146869  -0.056972
    10  C   -0.304888   0.000828
    11  H    0.176137  -0.000026
    12  C    0.152987   0.005806
    13  C   -0.030151  -0.032957
    14  C    0.480970   0.031377
    15  C    0.408098  -0.081622
    16  C   -0.389432  -0.032338
    17  H    0.165758   0.001116
    18  C   -0.514224   0.001255
    19  H    0.175887   0.000207
    20  C    0.232211   0.107579
    21  C   -0.088204   0.021428
    22  H    0.175073  -0.000241
    23  C    0.408097  -0.081615
    24  C    0.232346   0.107573
    25  C   -0.514246   0.001257
    26  H    0.175887   0.000207
    27  C    0.480899   0.031367
    28  C    0.007150   0.080463
    29  H    0.208322  -0.004041
    30  C   -0.265879   0.035545
    31  H    0.226035  -0.002770
    32  C   -0.399860   0.057207
    33  H    0.182315  -0.003213
    34  C   -0.088101   0.021435
    35  H    0.175079  -0.000242
    36  C   -0.022001  -0.059259
    37  H    0.161135   0.001521
    38  C    0.146794  -0.056989
    39  C   -0.305474   0.059253
    40  H    0.165544  -0.003214
    41  C   -0.240700   0.067288
    42  H    0.180807  -0.003427
    43  C   -0.337009   0.011382
    44  H    0.160493  -0.000620
    45  C   -0.021846  -0.059258
    46  H    0.161131   0.001520
    47  C   -0.069247  -0.040147
    48  H    0.168522  -0.000047
    49  C   -0.265933   0.035557
    50  H    0.226028  -0.002770
    51  C   -0.240646   0.067303
    52  H    0.180806  -0.003427
    53  C   -0.389239  -0.032336
    54  H    0.165760   0.001116
    55  C   -0.537643  -0.035135
    56  H    0.175887   0.001267
    57  C   -0.399837   0.057202
    58  H    0.182315  -0.003212
    59  C   -0.305746   0.059246
    60  H    0.165557  -0.003213
    61  C   -0.537486  -0.035128
    62  H    0.175887   0.001267
    63  C   -0.337209   0.011391
    64  H    0.160507  -0.000619
    65  C    0.007399   0.080463
    66  H    0.208315  -0.004041
    67  C   -0.069254  -0.040138
    68  H    0.168521  -0.000047
 Sum of Mulliken charges =   1.00000   1.00000

 Dipole moment (field-independent basis, Debye):
    X=              0.0003    Y=              2.4590    Z=              0.0001  Tot=              2.4590
 Quadrupole moment (field-independent basis, Debye-Ang):
   XX=           -222.5347   YY=           -174.9974   ZZ=           -176.1821
   XY=              0.0032   XZ=             -1.0189   YZ=             -0.0007

 Normal termination of Gaussian 16 at Fri Nov  8 00:42:34 2024.
