 Gaussian 16, Revision A.03,
 Gaussian 16:  ES64L-G16RevA.03 25-Dec-2016

 --------------------------------------------
 #p opt UM062X/6-311+G** nosymm int=superfine
 --------------------------------------------

 -------------------
 Title Card Required
 -------------------
 Symbolic Z-matrix:
 Charge =  0 Multiplicity = 1

 SCF Done:  E(UM062X) =  -76.8886719680     A.U. after   14 cycles
 SCF Done:  E(UM062X) =  -76.8896093097     A.U. after   14 cycles
 SCF Done:  E(UM062X) =  -76.8908972879     A.U. after   15 cycles
 SCF Done:  E(UM062X) =  -76.8912319465     A.U. after   15 cycles
 SCF Done:  E(UM062X) =  -76.8913612626     A.U. after   15 cycles
 SCF Done:  E(UM062X) =  -76.8913747849     A.U. after   15 cycles
 SCF Done:  E(UM062X) =  -76.8913749775     A.U. after   16 cycles
 Optimization completed.
    -- Stationary point found.

                          Input orientation:
 ---------------------------------------------------------------------
 Center     Atomic      Atomic             Coordinates (Angstroms)
 Number     Number       Type             X           Y           Z
 ---------------------------------------------------------------------
      1          6           0       -1.682625    0.000000    0.000000
      2          6           0        1.682625    0.000000    0.000000
      3          1           0       -1.537697   -0.654667    0.893980
      4          1           0        1.537712    0.656284   -0.892793
 ---------------------------------------------------------------------

 Alpha  occ. eigenvalues --  -10.67555 -10.67553  -0.72994  -0.72076  -0.39080
 Alpha  occ. eigenvalues --   -0.38674  -0.24761
 Alpha virt. eigenvalues --   -0.11296  -0.10478  -0.09138   0.03366   0.04756
 Alpha virt. eigenvalues --    0.07257   0.07402   0.09415   0.09859   0.10933
 Alpha virt. eigenvalues --    0.14209   0.17977   0.19774   0.43587   0.45234

  Beta  occ. eigenvalues --  -10.67555 -10.67553  -0.72994  -0.72076  -0.39080
  Beta  occ. eigenvalues --   -0.38674  -0.24761
  Beta virt. eigenvalues --   -0.11296  -0.10478  -0.09138   0.03366   0.04756
  Beta virt. eigenvalues --    0.07257   0.07402   0.09415   0.09859   0.10933
  Beta virt. eigenvalues --    0.14209   0.17977   0.19774   0.43587   0.45234

 Mulliken charges and spin densities:
               1          2
     1  C   -0.145985  -0.000005
     2  C   -0.145987   0.000005
     3  H    0.145986   0.000000
     4  H    0.145986  -0.000000
 Sum of Mulliken charges =   0.00000   0.00000

 Dipole moment (field-independent basis, Debye):
    X=              0.0000    Y=              0.0024    Z=              0.0018  Tot=              0.0030
 Quadrupole moment (field-independent basis, Debye-Ang):
   XX=            -16.8978   YY=            -12.8783   ZZ=            -13.6810
   XY=              3.3197   XZ=             -4.5245   YZ=              1.2756

 Normal termination of Gaussian 16 at Tue Dec  3 23:26:57 2024.
