 Gaussian 16, Revision A.03,
 Gaussian 16:  ES64L-G16RevA.03 25-Dec-2016

 --------------------------------------------
 #p opt UM062X/6-311+G** nosymm int=superfine
 --------------------------------------------

 -------------------
 Title Card Required
 -------------------
 Symbolic Z-matrix:
 Charge =  0 Multiplicity = 1

 SCF Done:  E(UM062X) =  -83.1234109551     A.U. after   10 cycles
 SCF Done:  E(UM062X) =  -83.1387913491     A.U. after    9 cycles
 SCF Done:  E(UM062X) =  -83.1420903064     A.U. after    9 cycles
 SCF Done:  E(UM062X) =  -83.1421131811     A.U. after    7 cycles
 Optimization completed.
    -- Stationary point found.

                          Input orientation:
 ---------------------------------------------------------------------
 Center     Atomic      Atomic             Coordinates (Angstroms)
 Number     Number       Type             X           Y           Z
 ---------------------------------------------------------------------
      1          5           0       -1.802429    0.000000    0.000000
      2          7           0        1.802429    0.000000    0.000000
      3          1           0        2.166030   -0.945446   -0.000000
      4          1           0       -1.818279   -0.594014    1.028822
      5          1           0        2.165932    0.472772   -0.818799
      6          1           0        2.165919    0.472766    0.818807
      7          1           0       -1.818318    1.187988    0.000017
      8          1           0       -1.818295   -0.593988   -1.028836
 ---------------------------------------------------------------------

 Alpha  occ. eigenvalues --  -14.73121  -7.04028  -0.96340  -0.57226  -0.54177
 Alpha  occ. eigenvalues --   -0.54177  -0.39658  -0.39657  -0.34489
 Alpha virt. eigenvalues --   -0.01847   0.02431   0.04800   0.04800   0.05311
 Alpha virt. eigenvalues --    0.08481   0.10812   0.10812   0.17690   0.17794
 Alpha virt. eigenvalues --    0.17794   0.19390   0.19390   0.22896   0.27608

  Beta  occ. eigenvalues --  -14.73121  -7.04028  -0.96340  -0.57226  -0.54177
  Beta  occ. eigenvalues --   -0.54177  -0.39658  -0.39657  -0.34489
  Beta virt. eigenvalues --   -0.01847   0.02431   0.04800   0.04800   0.05311
  Beta virt. eigenvalues --    0.08481   0.10812   0.10812   0.17690   0.17794
  Beta virt. eigenvalues --    0.17794   0.19390   0.19390   0.22896   0.27608

 Mulliken charges and spin densities:
               1          2
     1  B    0.016224  -0.000000
     2  N   -0.733260  -0.000000
     3  H    0.246911   0.000000
     4  H   -0.007898   0.000000
     5  H    0.246912   0.000000
     6  H    0.246912   0.000000
     7  H   -0.007904   0.000000
     8  H   -0.007898   0.000000
 Sum of Mulliken charges =  -0.00000   0.00000

 Dipole moment (field-independent basis, Debye):
    X=              2.0232    Y=              0.0001    Z=              0.0000  Tot=              2.0232
 Quadrupole moment (field-independent basis, Debye-Ang):
   XX=            -10.5332   YY=            -15.6689   ZZ=            -15.6690
   XY=              0.0001   XZ=             -0.0000   YZ=              0.0000

 Normal termination of Gaussian 16 at Mon Apr 21 17:39:18 2025.
