 Gaussian 16, Revision A.03,
 Gaussian 16:  ES64L-G16RevA.03 25-Dec-2016

 --------------------------------------------
 #p opt UM062X/6-311+G** nosymm int=superfine
 --------------------------------------------

 -------------------
 Title Card Required
 -------------------
 Symbolic Z-matrix:
 Charge =  0 Multiplicity = 1

 SCF Done:  E(UM062X) =  -797.532718414     A.U. after   11 cycles
 SCF Done:  E(UM062X) =  -797.533706773     A.U. after   11 cycles
 SCF Done:  E(UM062X) =  -797.533435897     A.U. after   12 cycles
 SCF Done:  E(UM062X) =  -797.533800036     A.U. after   10 cycles
 SCF Done:  E(UM062X) =  -797.533800082     A.U. after    9 cycles
 Optimization completed.
    -- Stationary point found.

                          Input orientation:
 ---------------------------------------------------------------------
 Center     Atomic      Atomic             Coordinates (Angstroms)
 Number     Number       Type             X           Y           Z
 ---------------------------------------------------------------------
      1         16           0       -1.218191    0.000000    0.000000
      2         16           0        1.218191    0.000000    0.000000
      3          1           0       -1.281666   -1.341408   -0.030363
      4          1           0        1.281416    0.069669    1.340083
 ---------------------------------------------------------------------

 Alpha  occ. eigenvalues --  -89.93759 -89.93759  -8.29992  -8.29990  -6.22145
 Alpha  occ. eigenvalues --   -6.22141  -6.21886  -6.21886  -6.21371  -6.21370
 Alpha  occ. eigenvalues --   -0.85505  -0.78083  -0.48802  -0.47173  -0.39457
 Alpha  occ. eigenvalues --   -0.33138  -0.32727
 Alpha virt. eigenvalues --   -0.08902   0.01691   0.03399   0.04852   0.05032
 Alpha virt. eigenvalues --    0.06040   0.07555   0.07634   0.07731   0.12458
 Alpha virt. eigenvalues --    0.13580   0.30880   0.31421   0.32697   0.33847

  Beta  occ. eigenvalues --  -89.93759 -89.93759  -8.29992  -8.29990  -6.22145
  Beta  occ. eigenvalues --   -6.22141  -6.21886  -6.21886  -6.21371  -6.21370
  Beta  occ. eigenvalues --   -0.85505  -0.78083  -0.48802  -0.47173  -0.39457
  Beta  occ. eigenvalues --   -0.33138  -0.32727
  Beta virt. eigenvalues --   -0.08902   0.01691   0.03399   0.04852   0.05032
  Beta virt. eigenvalues --    0.06040   0.07555   0.07634   0.07731   0.12458
  Beta virt. eigenvalues --    0.13580   0.30880   0.31421   0.32697   0.33847

 Mulliken charges and spin densities:
               1          2
     1  S   -0.089849  -0.000000
     2  S   -0.089787   0.000000
     3  H    0.089810  -0.000000
     4  H    0.089826  -0.000000
 Sum of Mulliken charges =  -0.00000  -0.00000

 Dipole moment (field-independent basis, Debye):
    X=              0.0002    Y=             -1.0046    Z=              1.0345  Tot=              1.4420
 Quadrupole moment (field-independent basis, Debye-Ang):
   XX=            -26.3429   YY=            -27.5636   ZZ=            -27.5815
   XY=              1.8543   XZ=              1.8001   YZ=              0.3100

 Normal termination of Gaussian 16 at Mon Apr 21 21:15:34 2025.
