 Gaussian 16, Revision A.03,
 Gaussian 16:  ES64L-G16RevA.03 25-Dec-2016

 --------------------------------------------
 #p opt UM062X/6-311+G** nosymm int=superfine
 --------------------------------------------

 -------------------
 Title Card Required
 -------------------
 Symbolic Z-matrix:
 Charge =  0 Multiplicity = 1

 SCF Done:  E(UM062X) =  -438.640108904     A.U. after   11 cycles
 SCF Done:  E(UM062X) =  -438.643629188     A.U. after   10 cycles
 SCF Done:  E(UM062X) =  -438.644048794     A.U. after    9 cycles
 SCF Done:  E(UM062X) =  -438.644050103     A.U. after    8 cycles
 SCF Done:  E(UM062X) =  -438.644050308     A.U. after    8 cycles
 Optimization completed.
    -- Stationary point found.

                          Input orientation:
 ---------------------------------------------------------------------
 Center     Atomic      Atomic             Coordinates (Angstroms)
 Number     Number       Type             X           Y           Z
 ---------------------------------------------------------------------
      1          6           0       -1.110220    0.000000    0.000000
      2         16           0        1.110220    0.000000    0.000000
      3          1           0        1.165283   -1.341133   -0.002034
      4          1           0       -1.335324    1.059344    0.002314
      5          1           0       -1.378943   -0.510648   -0.915913
      6          1           0       -1.378923   -0.514595    0.913710
 ---------------------------------------------------------------------

 Alpha  occ. eigenvalues --  -89.89464 -10.59409  -8.25765  -6.17866  -6.17713
 Alpha  occ. eigenvalues --   -6.17224  -0.82769  -0.75314  -0.51000  -0.50735
 Alpha  occ. eigenvalues --   -0.44040  -0.36404  -0.29739
 Alpha virt. eigenvalues --   -0.02079   0.02291   0.04564   0.05398   0.06071
 Alpha virt. eigenvalues --    0.07271   0.07915   0.08660   0.11644   0.13664
 Alpha virt. eigenvalues --    0.17765   0.18394   0.24644   0.32751   0.34845

  Beta  occ. eigenvalues --  -89.89464 -10.59409  -8.25765  -6.17866  -6.17713
  Beta  occ. eigenvalues --   -6.17224  -0.82769  -0.75314  -0.51000  -0.50735
  Beta  occ. eigenvalues --   -0.44040  -0.36404  -0.29739
  Beta virt. eigenvalues --   -0.02079   0.02291   0.04564   0.05398   0.06071
  Beta virt. eigenvalues --    0.07271   0.07915   0.08660   0.11644   0.13664
  Beta virt. eigenvalues --    0.17765   0.18394   0.24644   0.32751   0.34845

 Mulliken charges and spin densities:
               1          2
     1  C   -0.555334  -0.000000
     2  S   -0.102974   0.000000
     3  H    0.065152   0.000000
     4  H    0.196300  -0.000000
     5  H    0.198440   0.000000
     6  H    0.198417   0.000000
 Sum of Mulliken charges =  -0.00000  -0.00000

 Dipole moment (field-independent basis, Debye):
    X=             -1.9792    Y=             -0.9250    Z=             -0.0014  Tot=              2.1847
 Quadrupole moment (field-independent basis, Debye-Ang):
   XX=            -21.1472   YY=            -19.2839   ZZ=            -23.1751
   XY=             -1.5118   XZ=             -0.0023   YZ=              0.0059

 Normal termination of Gaussian 16 at Mon Apr 21 19:35:01 2025.
