 Gaussian 16, Revision A.03,
 Gaussian 16:  ES64L-G16RevA.03 25-Dec-2016

 --------------------------------------------
 #p opt UM062X/6-311+G** nosymm int=superfine
 --------------------------------------------

 -------------------
 Title Card Required
 -------------------
 Symbolic Z-matrix:
 Charge =  0 Multiplicity = 3

 SCF Done:  E(UM062X) =  -50.4862774349     A.U. after   13 cycles
 SCF Done:  E(UM062X) =  -50.4871824839     A.U. after   10 cycles
 SCF Done:  E(UM062X) =  -50.4871892770     A.U. after   10 cycles
 Optimization completed.
    -- Stationary point found.

                          Input orientation:
 ---------------------------------------------------------------------
 Center     Atomic      Atomic             Coordinates (Angstroms)
 Number     Number       Type             X           Y           Z
 ---------------------------------------------------------------------
      1          5           0       -1.828410    0.000000    0.000000
      2          5           0        1.828410    0.000000    0.000000
      3          1           0       -3.033654   -0.000082   -0.000000
      4          1           0        3.033654    0.000082    0.000000
 ---------------------------------------------------------------------

 Alpha  occ. eigenvalues --   -7.14321  -7.14320  -0.56854  -0.56598  -0.33849
 Alpha  occ. eigenvalues --   -0.30017  -0.18051
 Alpha virt. eigenvalues --   -0.09655  -0.06492  -0.05213   0.02666   0.02832
 Alpha virt. eigenvalues --    0.05839   0.07115   0.07138   0.08134   0.08161
 Alpha virt. eigenvalues --    0.11675   0.17346   0.22314   0.33759   0.39262

  Beta  occ. eigenvalues --   -7.13408  -7.13407  -0.53538  -0.53355  -0.24502
  Beta virt. eigenvalues --   -0.10442  -0.04633  -0.04127  -0.02886  -0.02383
  Beta virt. eigenvalues --    0.01812   0.02474   0.07019   0.07295   0.07675
  Beta virt. eigenvalues --    0.08128   0.09028   0.09583   0.18098   0.23647

 Mulliken charges and spin densities:
               1          2
     1  B   -0.064973   0.923804
     2  B   -0.064973   0.923804
     3  H    0.064973   0.076196
     4  H    0.064973   0.076196
 Sum of Mulliken charges =  -0.00000   2.00000

 Dipole moment (field-independent basis, Debye):
    X=              0.0000    Y=             -0.0000    Z=              0.0000  Tot=              0.0000
 Quadrupole moment (field-independent basis, Debye-Ang):
   XX=             -8.4019   YY=            -13.6573   ZZ=            -17.6851
   XY=              0.0000   XZ=              0.0000   YZ=              0.0001

 1\1\GINC-NODE06\FOpt\UM062X\6-311+G(d,p)\B2H2(3)\SZHAO\21-Apr-2025\0\\
 #p opt UM062X/6-311+G** nosymm int=superfine\\Title Card Required\\0,3
 \B,-1.82841047,0.,0.\B,1.82841047,0.,0.\H,-3.0336540942,-0.0000822204,
 -0.0000000017\H,3.0336540986,0.0000822199,0.0000000017\\Version=ES64L-
 G16RevA.03\HF=-50.4871893\S2=2.01867\S2-1=0.\S2A=2.000016\RMSD=8.134e-
 09\RMSF=4.395e-07\Dipole=0.,0.,0.\Quadrupole=3.6030298,-0.3042165,-3.2
 988132,0.0000089,0.,0.0000616\PG=C*V [C*(H1B1B1H1)]\\@

 Normal termination of Gaussian 16 at Mon Apr 21 17:29:21 2025.
