 Gaussian 16, Revision A.03,
 Gaussian 16:  ES64L-G16RevA.03 25-Dec-2016

 ---------------------------------------------------
 #p UM062X/6-311+G** force int=superfine pop=saveNBO
 ---------------------------------------------------

 -------------------
 Title Card Required
 -------------------
 Symbolic Z-matrix:
 Charge =  0 Multiplicity = 1

                         Standard orientation:
 ---------------------------------------------------------------------
 Center     Atomic      Atomic             Coordinates (Angstroms)
 Number     Number       Type             X           Y           Z
 ---------------------------------------------------------------------
      1          6           0       -0.662569   -0.020506    0.000019
      2          8           0        0.744625    0.122142    0.000019
      3          1           0        1.144723   -0.749119    0.000019
      4          1           0       -1.022541   -0.544050    0.891784
      5          1           0       -1.081982    0.984522   -0.000899
      6          1           0       -1.021787   -0.545454   -0.891164
 ---------------------------------------------------------------------

 SCF Done:  E(UM062X) =  -115.704240557     A.U. after   10 cycles

 The electronic state is 1-A.
 Alpha  occ. eigenvalues --  -19.62164 -10.57905  -1.14548  -0.77847  -0.58829
 Alpha  occ. eigenvalues --   -0.51814  -0.50096  -0.40966  -0.35464
 Alpha virt. eigenvalues --    0.01283   0.03399   0.05376   0.05545   0.16222
 Alpha virt. eigenvalues --    0.18041   0.19410   0.20038   0.22964   0.23385
 Alpha virt. eigenvalues --    0.24334   0.25438   0.33169   0.42935   0.45164

  Beta  occ. eigenvalues --  -19.62164 -10.57905  -1.14548  -0.77847  -0.58829
  Beta  occ. eigenvalues --   -0.51814  -0.50096  -0.40966  -0.35464
  Beta virt. eigenvalues --    0.01283   0.03399   0.05376   0.05545   0.16222
  Beta virt. eigenvalues --    0.18041   0.19410   0.20038   0.22964   0.23385
  Beta virt. eigenvalues --    0.24334   0.25438   0.33169   0.42935   0.45164

 Mulliken charges and spin densities:
               1          2
     1  C   -0.320080   0.000000
     2  O   -0.371948  -0.000000
     3  H    0.260649  -0.000000
     4  H    0.136397  -0.000000
     5  H    0.158619  -0.000000
     6  H    0.136364  -0.000000
 Sum of Mulliken charges =  -0.00000  -0.00000

 Dipole moment (field-independent basis, Debye):
    X=             -0.9653    Y=             -1.6440    Z=             -0.0002  Tot=              1.9065
 Quadrupole moment (field-independent basis, Debye-Ang):
   XX=            -13.0701   YY=            -12.3113   ZZ=            -13.8713
   XY=             -2.4177   XZ=             -0.0004   YZ=             -0.0000

 Summary of Natural Population Analysis:

                                       Natural Population
                Natural  -----------------------------------------------
    Atom  No    Charge         Core      Valence    Rydberg      Total
 -----------------------------------------------------------------------
      C    1   -0.10379      0.99970     2.09488    0.00921     3.10379
      O    2   -0.36790      0.99990     3.36080    0.00719     4.36790
      H    3    0.22806      0.00000     0.26952    0.00242     0.27194
      H    4    0.07718      0.00000     0.42204    0.00078     0.42282
      H    5    0.08928      0.00000     0.41006    0.00066     0.41072
      H    6    0.07717      0.00000     0.42204    0.00078     0.42283
 =======================================================================
   * Total *   -0.00000      1.99960     6.97935    0.02105     9.00000

 Optimization completed.
    -- Stationary point found.

 1\1\GINC-NODE01\Force\UM062X\6-311+G(d,p)\C1H4O1\SZHAO\16-Apr-2025\0\\
 #p UM062X/6-311+G** force int=superfine pop=saveNBO\\Title Card Requir
 ed\\0,1\C,-0.70720268,0.,0.\O,0.70720268,0.,0.\H,1.01739059,-0.9071702
 1,0.\H,-1.11814122,-0.4845701,0.89176581\H,-1.02311723,1.04220234,-0.0
 0091804\H,-1.11753225,-0.48604336,-0.89118274\\Version=ES64L-G16RevA.0
 3\State=1-A\HF=-115.7042406\S2=0.\S2-1=0.\S2A=0.\RMSD=4.189e-09\RMSF=2
 .196e-05\Dipole=-0.4430708,-0.605204,-0.0000641\Quadrupole=-0.3444638,
 0.9296251,-0.5851614,-1.7043682,-0.0002975,-0.0000034\PG=C01 [X(C1H4O1

 Normal termination of Gaussian 16 at Wed Apr 16 02:50:27 2025.
