 Gaussian 16, Revision A.03,
 Gaussian 16:  ES64L-G16RevA.03 25-Dec-2016

 --------------------------------------------
 #p opt UM062X/6-311+G** nosymm int=superfine
 --------------------------------------------

 -------------------
 Title Card Required
 -------------------
 Symbolic Z-matrix:
 Charge =  0 Multiplicity = 1

 SCF Done:  E(UM062X) =  -474.372099483     A.U. after   22 cycles
 SCF Done:  E(UM062X) =  -474.372920256     A.U. after   21 cycles
 SCF Done:  E(UM062X) =  -474.374313481     A.U. after   23 cycles
 SCF Done:  E(UM062X) =  -474.374938066     A.U. after   23 cycles
 SCF Done:  E(UM062X) =  -474.375150292     A.U. after   18 cycles
 SCF Done:  E(UM062X) =  -474.375230434     A.U. after   24 cycles
 SCF Done:  E(UM062X) =  -474.375241798     A.U. after   17 cycles
 SCF Done:  E(UM062X) =  -474.375246756     A.U. after   19 cycles
 SCF Done:  E(UM062X) =  -474.375251701     A.U. after   25 cycles
 SCF Done:  E(UM062X) =  -474.375250222     A.U. after   20 cycles
 SCF Done:  E(UM062X) =  -474.375241346     A.U. after   20 cycles
 SCF Done:  E(UM062X) =  -474.375253316     A.U. after   18 cycles
 SCF Done:  E(UM062X) =  -474.375249006     A.U. after   22 cycles
 SCF Done:  E(UM062X) =  -474.371031929     A.U. after   20 cycles
 SCF Done:  E(UM062X) =  -474.375252747     A.U. after   25 cycles
 SCF Done:  E(UM062X) =  -474.375254347     A.U. after   14 cycles
 SCF Done:  E(UM062X) =  -474.375255052     A.U. after   23 cycles
 SCF Done:  E(UM062X) =  -474.375254217     A.U. after   21 cycles
 SCF Done:  E(UM062X) =  -474.375255235     A.U. after   17 cycles
 SCF Done:  E(UM062X) =  -474.375255241     A.U. after   19 cycles
 Optimization completed.
    -- Stationary point found.

                          Input orientation:
 ---------------------------------------------------------------------
 Center     Atomic      Atomic             Coordinates (Angstroms)
 Number     Number       Type             X           Y           Z
 ---------------------------------------------------------------------
      1          8           0       -1.739392    0.000000    0.000000
      2         16           0        1.739392    0.000000    0.000000
      3          1           0       -1.709976   -0.522566   -0.816880
      4          1           0        1.497491    0.987402    0.883757
 ---------------------------------------------------------------------

 Alpha  occ. eigenvalues --  -89.97843 -19.67242  -8.34003  -6.26214  -6.25848
 Alpha  occ. eigenvalues --   -6.25280  -1.08435  -0.83853  -0.52525  -0.49718
 Alpha  occ. eigenvalues --   -0.39748  -0.35755  -0.34046
 Alpha virt. eigenvalues --   -0.22507   0.01594   0.03857   0.04705   0.05416
 Alpha virt. eigenvalues --    0.06878   0.13379   0.19252   0.19883   0.21110
 Alpha virt. eigenvalues --    0.25371   0.30797   0.33981   0.34463   0.39057

  Beta  occ. eigenvalues --  -89.97843 -19.67242  -8.34003  -6.26214  -6.25848
  Beta  occ. eigenvalues --   -6.25280  -1.08435  -0.83853  -0.52525  -0.49718
  Beta  occ. eigenvalues --   -0.39748  -0.35755  -0.34046
  Beta virt. eigenvalues --   -0.22507   0.01594   0.03857   0.04705   0.05416
  Beta virt. eigenvalues --    0.06878   0.13379   0.19252   0.19883   0.21110
  Beta virt. eigenvalues --    0.25371   0.30797   0.33981   0.34463   0.39057

 Mulliken charges and spin densities:
               1          2
     1  O   -0.393752   0.000000
     2  S    0.037939  -0.000000
     3  H    0.245459   0.000000
     4  H    0.110354   0.000000
 Sum of Mulliken charges =  -0.00000   0.00000

 Dipole moment (field-independent basis, Debye):
    X=              2.3011    Y=             -0.0548    Z=             -0.6834  Tot=              2.4011
 Quadrupole moment (field-independent basis, Debye-Ang):
   XX=            -18.4643   YY=            -19.7188   ZZ=            -19.1294
   XY=              3.1950   XZ=              3.9933   YZ=              3.1824

 Normal termination of Gaussian 16 at Thu May 15 13:20:46 2025.
