 Gaussian 16, Revision A.03,
 Gaussian 16:  ES64L-G16RevA.03 25-Dec-2016

 ---------------------------------------------------
 #p UM062X/6-311+G** force int=superfine pop=saveNBO
 ---------------------------------------------------

 -------------------
 Title Card Required
 -------------------
 Symbolic Z-matrix:
 Charge =  0 Multiplicity = 1

                         Standard orientation:
 ---------------------------------------------------------------------
 Center     Atomic      Atomic             Coordinates (Angstroms)
 Number     Number       Type             X           Y           Z
 ---------------------------------------------------------------------
      1          8           0        0.000000    0.000000    0.868562
      2          8           0        0.000000    0.000000   -0.868562
 ---------------------------------------------------------------------

 SCF Done:  E(UM062X) =  -150.071266618     A.U. after    9 cycles

 Unable to determine electronic state:  partially filled degenerate orbitals.
 Alpha  occ. eigenvalues --  -19.83546 -19.83531  -1.18750  -1.04594  -0.53694
 Alpha  occ. eigenvalues --   -0.52700  -0.47458  -0.45193
 Alpha virt. eigenvalues --   -0.24414  -0.12577   0.10427   0.13383   0.15214
 Alpha virt. eigenvalues --    0.15568   0.20869   0.21213   0.21225   0.33491
 Alpha virt. eigenvalues --    0.95756   0.96572   1.00271   1.06760   1.08138

  Beta  occ. eigenvalues --  -19.83546 -19.83531  -1.18750  -1.04594  -0.53694
  Beta  occ. eigenvalues --   -0.52700  -0.47458  -0.45193
  Beta virt. eigenvalues --   -0.24414  -0.12577   0.10427   0.13383   0.15214
  Beta virt. eigenvalues --    0.15568   0.20869   0.21213   0.21225   0.33491
  Beta virt. eigenvalues --    0.95756   0.96572   1.00271   1.06760   1.08138

 Mulliken charges and spin densities:
               1          2
     1  O    0.000000  -0.000000
     2  O    0.000000  -0.000000
 Sum of Mulliken charges =   0.00000  -0.00000

 Dipole moment (field-independent basis, Debye):
    X=             -0.0000    Y=             -0.0000    Z=             -0.0000  Tot=              0.0000
 Quadrupole moment (field-independent basis, Debye-Ang):
   XX=             -9.9798   YY=            -11.7058   ZZ=             -9.8740
   XY=              0.0000   XZ=              0.0000   YZ=              0.0000

 Summary of Natural Population Analysis:

                                       Natural Population
                Natural  -----------------------------------------------
    Atom  No    Charge         Core      Valence    Rydberg      Total
 -----------------------------------------------------------------------
      O    1    0.00000      1.00000     2.99782    0.00218     4.00000
      O    2   -0.00000      1.00000     2.99782    0.00218     4.00000
 =======================================================================
   * Total *   -0.00000      1.99999     5.99564    0.00437     8.00000

 Normal termination of Gaussian 16 at Mon Apr 21 19:53:51 2025.
