 Gaussian 16, Revision A.03,
 Gaussian 16:  ES64L-G16RevA.03 25-Dec-2016

 --------------------------------------------
 #p opt UM062X/6-311+G** nosymm int=superfine
 --------------------------------------------

 -------------------
 Title Card Required
 -------------------
 Symbolic Z-matrix:
 Charge =  0 Multiplicity = 1

 SCF Done:  E(UM062X) =  -581.199907322     A.U. after   12 cycles
 SCF Done:  E(UM062X) =  -581.199914207     A.U. after    9 cycles
 SCF Done:  E(UM062X) =  -581.199918887     A.U. after    9 cycles
 SCF Done:  E(UM062X) =  -581.199922620     A.U. after    9 cycles
 SCF Done:  E(UM062X) =  -581.199923168     A.U. after    8 cycles
 SCF Done:  E(UM062X) =  -581.199924122     A.U. after    8 cycles
 SCF Done:  E(UM062X) =  -581.199925315     A.U. after    9 cycles
 SCF Done:  E(UM062X) =  -581.199926961     A.U. after    9 cycles
 SCF Done:  E(UM062X) =  -581.199929554     A.U. after    9 cycles
 SCF Done:  E(UM062X) =  -581.199931852     A.U. after   10 cycles
 SCF Done:  E(UM062X) =  -581.199933979     A.U. after   10 cycles
 SCF Done:  E(UM062X) =  -581.199935879     A.U. after    9 cycles
 SCF Done:  E(UM062X) =  -581.199940258     A.U. after   10 cycles
 SCF Done:  E(UM062X) =  -581.199944683     A.U. after    9 cycles
 SCF Done:  E(UM062X) =  -581.199953638     A.U. after   10 cycles
 SCF Done:  E(UM062X) =  -581.199956338     A.U. after    9 cycles
 SCF Done:  E(UM062X) =  -581.199956896     A.U. after    9 cycles
 SCF Done:  E(UM062X) =  -581.199956988     A.U. after    8 cycles
 SCF Done:  E(UM062X) =  -581.199956996     A.U. after    8 cycles
 Optimization completed.
    -- Stationary point found.

                          Input orientation:
 ---------------------------------------------------------------------
 Center     Atomic      Atomic             Coordinates (Angstroms)
 Number     Number       Type             X           Y           Z
 ---------------------------------------------------------------------
      1         14           0       -1.612518    0.000000    0.000000
      2         14           0        1.612518    0.000000    0.000000
      3          1           0       -2.533932   -1.123807    0.381233
      4          1           0        1.645632    1.108454   -1.030390
      5          1           0       -2.533892    1.126072    0.374581
      6          1           0        1.645645   -1.114531   -1.023816
 ---------------------------------------------------------------------

 Alpha  occ. eigenvalues --  -67.04715 -66.99985  -5.59355  -5.54636  -3.90669
 Alpha  occ. eigenvalues --   -3.90108  -3.89984  -3.85867  -3.85400  -3.85287
 Alpha  occ. eigenvalues --   -0.60330  -0.55893  -0.41502  -0.37163  -0.31832
 Alpha  occ. eigenvalues --   -0.26263
 Alpha virt. eigenvalues --   -0.10287  -0.03966   0.01756   0.02755   0.03911
 Alpha virt. eigenvalues --    0.04465   0.05044   0.05705   0.06168   0.06436
 Alpha virt. eigenvalues --    0.08713   0.09073   0.11293   0.17834   0.27007

  Beta  occ. eigenvalues --  -67.04715 -66.99985  -5.59355  -5.54636  -3.90669
  Beta  occ. eigenvalues --   -3.90108  -3.89984  -3.85867  -3.85400  -3.85287
  Beta  occ. eigenvalues --   -0.60330  -0.55893  -0.41502  -0.37163  -0.31832
  Beta  occ. eigenvalues --   -0.26263
  Beta virt. eigenvalues --   -0.10287  -0.03966   0.01756   0.02755   0.03911
  Beta virt. eigenvalues --    0.04465   0.05044   0.05705   0.06168   0.06436
  Beta virt. eigenvalues --    0.08713   0.09073   0.11293   0.17834   0.27007

 Mulliken charges and spin densities:
               1          2
     1  Si   0.317095  -0.000000
     2  Si   0.186354   0.000000
     3  H   -0.116400  -0.000000
     4  H   -0.135325   0.000000
     5  H   -0.116400   0.000000
     6  H   -0.135324  -0.000000
 Sum of Mulliken charges =  -0.00000  -0.00000

 Dipole moment (field-independent basis, Debye):
    X=             -1.8992    Y=             -0.0004    Z=             -0.1424  Tot=              1.9046
 Quadrupole moment (field-independent basis, Debye-Ang):
   XX=            -27.5340   YY=            -31.9787   ZZ=            -31.7265
   XY=              0.0023   XZ=              0.7677   YZ=              0.0007

 Normal termination of Gaussian 16 at Mon Apr 21 22:49:51 2025.
