 Gaussian 16, Revision A.03,
 Gaussian 16:  ES64L-G16RevA.03 25-Dec-2016

 --------------------------------------------
 #p opt UM062X/6-311+G** nosymm int=superfine
 --------------------------------------------

 -------------------
 Title Card Required
 -------------------
 Symbolic Z-matrix:
 Charge =  0 Multiplicity = 1

 SCF Done:  E(UM062X) =  -380.957158677     A.U. after   18 cycles
 SCF Done:  E(UM062X) =  -380.958972949     A.U. after   14 cycles
 SCF Done:  E(UM062X) =  -380.960040234     A.U. after   14 cycles
 SCF Done:  E(UM062X) =  -380.960064605     A.U. after   13 cycles
 SCF Done:  E(UM062X) =  -380.960043427     A.U. after   15 cycles
 SCF Done:  E(UM062X) =  -380.960085819     A.U. after   17 cycles
 SCF Done:  E(UM062X) =  -380.960088061     A.U. after   12 cycles
 SCF Done:  E(UM062X) =  -380.960096992     A.U. after   13 cycles
 SCF Done:  E(UM062X) =  -380.960101623     A.U. after   15 cycles
 Optimization completed.
    -- Stationary point found.

                          Input orientation:
 ---------------------------------------------------------------------
 Center     Atomic      Atomic             Coordinates (Angstroms)
 Number     Number       Type             X           Y           Z
 ---------------------------------------------------------------------
      1          6           0       -1.530452    0.000000    0.000000
      2         15           0        1.530452    0.000000    0.000000
      3          1           0       -2.190852   -0.878569   -0.000721
      4          1           0        1.340197   -1.407761    0.000051
      5          1           0       -2.158112    0.901829   -0.001109
 ---------------------------------------------------------------------

 Alpha  occ. eigenvalues --  -78.04338 -10.64423  -6.86458  -4.98363  -4.97694
 Alpha  occ. eigenvalues --   -4.97340  -0.78058  -0.64984  -0.51369  -0.37772
 Alpha  occ. eigenvalues --   -0.34332  -0.23805
 Alpha virt. eigenvalues --   -0.10874  -0.08790   0.01389   0.04228   0.04770
 Alpha virt. eigenvalues --    0.06260   0.06943   0.07247   0.09076   0.11545
 Alpha virt. eigenvalues --    0.13751   0.17409   0.18487   0.30978   0.34035

  Beta  occ. eigenvalues --  -78.04338 -10.64423  -6.86458  -4.98363  -4.97694
  Beta  occ. eigenvalues --   -4.97340  -0.78058  -0.64984  -0.51369  -0.37772
  Beta  occ. eigenvalues --   -0.34332  -0.23805
  Beta virt. eigenvalues --   -0.10874  -0.08790   0.01389   0.04228   0.04770
  Beta virt. eigenvalues --    0.06260   0.06943   0.07247   0.09076   0.11545
  Beta virt. eigenvalues --    0.13751   0.17409   0.18487   0.30978   0.34035

 Mulliken charges and spin densities:
               1          2
     1  C   -0.347114  -0.000000
     2  P    0.046680   0.000000
     3  H    0.165159   0.000000
     4  H   -0.030325  -0.000000
     5  H    0.165599   0.000000
 Sum of Mulliken charges =  -0.00000  -0.00000

 Dipole moment (field-independent basis, Debye):
    X=             -2.6069    Y=             -0.5897    Z=             -0.0023  Tot=              2.6728
 Quadrupole moment (field-independent basis, Debye-Ang):
   XX=            -14.6865   YY=            -21.2028   ZZ=            -25.5652
   XY=             -1.4865   XZ=             -0.0030   YZ=              0.0006

 Normal termination of Gaussian 16 at Mon Apr 21 19:17:17 2025.
