 Gaussian 16, Revision A.03,
 Gaussian 16:  ES64L-G16RevA.03 25-Dec-2016

 ---------------------------------------
 #p UM062X/6-311+G** force int=superfine
 ---------------------------------------

 -------------------
 Title Card Required
 -------------------
 Symbolic Z-matrix:
 Charge =  1 Multiplicity = 2

                         Standard orientation:
 ---------------------------------------------------------------------
 Center     Atomic      Atomic             Coordinates (Angstroms)
 Number     Number       Type             X           Y           Z
 ---------------------------------------------------------------------
      1          6           0        0.943741    0.894146   -1.590738
      2          6           0       -0.943743   -0.894142    1.590740
      3          1           0       -1.855405   -1.010368    1.016892
      4          1           0        0.798728    0.011857   -2.202676
      5          1           0       -0.799014   -0.012407    2.203545
      6          1           0       -0.210080   -1.691245    1.607955
      7          1           0        1.855360    1.010589   -1.016867
      8          1           0        0.210422    1.691547   -1.608860
 ---------------------------------------------------------------------

 SCF Done:  E(UM062X) =  -79.3163862893     A.U. after   10 cycles

 The electronic state is 2-A.
 Alpha  occ. eigenvalues --  -10.83282 -10.83281  -1.01867  -1.01593  -0.72945
 Alpha  occ. eigenvalues --   -0.72944  -0.72861  -0.72860  -0.46917
 Alpha virt. eigenvalues --   -0.37730  -0.12586  -0.10117  -0.09275  -0.09275
 Alpha virt. eigenvalues --   -0.06207  -0.06207  -0.04396  -0.02792   0.00191
 Alpha virt. eigenvalues --    0.00193   0.01426   0.01428   0.02506   0.08903

  Beta  occ. eigenvalues --  -10.83059 -10.83059  -0.99209  -0.99050  -0.72415
  Beta  occ. eigenvalues --   -0.72415  -0.72316  -0.72316
  Beta virt. eigenvalues --   -0.32289  -0.26668  -0.16902  -0.10682  -0.10681
  Beta virt. eigenvalues --   -0.10235  -0.06180  -0.06180  -0.05465  -0.01832
  Beta virt. eigenvalues --    0.00012   0.00016   0.01680   0.01682   0.02304

 Mulliken charges and spin densities:
               1          2
     1  C   -0.245009   0.557379
     2  C   -0.245010   0.557378
     3  H    0.248350  -0.019130
     4  H    0.248329  -0.019112
     5  H    0.248350  -0.019114
     6  H    0.248310  -0.019133
     7  H    0.248351  -0.019131
     8  H    0.248329  -0.019136
 Sum of Mulliken charges =   1.00000   1.00000

 Dipole moment (field-independent basis, Debye):
    X=              0.0000    Y=             -0.0000    Z=             -0.0000  Tot=              0.0000
 Quadrupole moment (field-independent basis, Debye-Ang):
   XX=             -6.9176   YY=             -7.3488   ZZ=              0.8102
   XY=              3.9795   XZ=             -7.0790   YZ=             -6.7057

 Normal termination of Gaussian 16 at Tue Nov 19 08:45:06 2024.
