 Gaussian 16, Revision A.03,
 Gaussian 16:  ES64L-G16RevA.03 25-Dec-2016

 --------------------------------------------
 #p opt UM062X/6-311+G** nosymm int=superfine
 --------------------------------------------

 -------------------
 Title Card Required
 -------------------
 Symbolic Z-matrix:
 Charge =  0 Multiplicity = 1

 SCF Done:  E(UM062X) =  -683.611076541     A.U. after   11 cycles
 SCF Done:  E(UM062X) =  -683.611592515     A.U. after   10 cycles
 SCF Done:  E(UM062X) =  -683.612146208     A.U. after   12 cycles
 SCF Done:  E(UM062X) =  -683.612156639     A.U. after    9 cycles
 Optimization completed.
    -- Stationary point found.

                          Input orientation:
 ---------------------------------------------------------------------
 Center     Atomic      Atomic             Coordinates (Angstroms)
 Number     Number       Type             X           Y           Z
 ---------------------------------------------------------------------
      1         15           0       -1.984490    0.000000    0.000000
      2         15           0        1.984490    0.000000    0.000000
      3          1           0       -1.867787   -1.418661    0.000000
      4          1           0        1.867787    1.418661    0.000000
 ---------------------------------------------------------------------

 Alpha  occ. eigenvalues --  -78.08516 -78.08516  -6.90526  -6.90526  -5.01937
 Alpha  occ. eigenvalues --   -5.01937  -5.01922  -5.01922  -5.01737  -5.01737
 Alpha  occ. eigenvalues --   -0.68784  -0.67938  -0.40594  -0.40390  -0.26356
 Alpha  occ. eigenvalues --   -0.24382
 Alpha virt. eigenvalues --   -0.16666  -0.14583   0.01970   0.03059   0.03722
 Alpha virt. eigenvalues --    0.04564   0.05536   0.05890   0.06473   0.07753
 Alpha virt. eigenvalues --    0.08575   0.11740   0.28054   0.30236   0.30439

  Beta  occ. eigenvalues --  -78.08516 -78.08516  -6.90526  -6.90526  -5.01937
  Beta  occ. eigenvalues --   -5.01937  -5.01922  -5.01922  -5.01737  -5.01737
  Beta  occ. eigenvalues --   -0.68784  -0.67938  -0.40594  -0.40390  -0.26356
  Beta  occ. eigenvalues --   -0.24382
  Beta virt. eigenvalues --   -0.16666  -0.14583   0.01970   0.03059   0.03722
  Beta virt. eigenvalues --    0.04564   0.05536   0.05890   0.06473   0.07753
  Beta virt. eigenvalues --    0.08575   0.11740   0.28054   0.30236   0.30439

 Mulliken charges and spin densities:
               1          2
     1  P    0.008144  -0.000006
     2  P    0.008145   0.000006
     3  H   -0.008144   0.000000
     4  H   -0.008144  -0.000000
 Sum of Mulliken charges =  -0.00000  -0.00000

 Dipole moment (field-independent basis, Debye):
    X=              0.0000    Y=              0.0000    Z=              0.0000  Tot=              0.0000
 Quadrupole moment (field-independent basis, Debye-Ang):
   XX=            -26.7165   YY=            -28.4750   ZZ=            -30.8473
   XY=              3.1678   XZ=              0.0000   YZ=              0.0000

 Normal termination of Gaussian 16 at Mon Apr 21 21:08:07 2025.
