 Gaussian 16, Revision A.03,
 Gaussian 16:  ES64L-G16RevA.03 25-Dec-2016

 --------------------------------------------
 #p opt UM062X/6-311+G** nosymm int=superfine
 --------------------------------------------

 -------------------
 Title Card Required
 -------------------
 Symbolic Z-matrix:
 Charge = -1 Multiplicity = 2

 SCF Done:  E(UM062X) =  -51.9920182947     A.U. after   11 cycles
 SCF Done:  E(UM062X) =  -51.9931023070     A.U. after    9 cycles
 SCF Done:  E(UM062X) =  -51.9934435323     A.U. after   10 cycles
 SCF Done:  E(UM062X) =  -51.9934431553     A.U. after   10 cycles
 SCF Done:  E(UM062X) =  -51.9934147364     A.U. after   11 cycles
 SCF Done:  E(UM062X) =  -51.9934443756     A.U. after   10 cycles
 SCF Done:  E(UM062X) =  -51.9934454927     A.U. after   10 cycles
 SCF Done:  E(UM062X) =  -51.9934456313     A.U. after    7 cycles
 Optimization completed.
    -- Stationary point found.

                          Input orientation:
 ---------------------------------------------------------------------
 Center     Atomic      Atomic             Coordinates (Angstroms)
 Number     Number       Type             X           Y           Z
 ---------------------------------------------------------------------
      1          5           0       -1.072274    0.000000    0.000000
      2          5           0        1.072274    0.000000    0.000000
      3          1           0       -1.683160   -1.037950    0.000180
      4          1           0        1.683160    1.037950   -0.000316
      5          1           0       -1.683161    1.037950   -0.000221
      6          1           0        1.683161   -1.037950    0.000270
 ---------------------------------------------------------------------

 Alpha  occ. eigenvalues --   -6.83533  -6.83518  -0.36931  -0.32739  -0.20665
 Alpha  occ. eigenvalues --   -0.18015  -0.08320   0.00499
 Alpha virt. eigenvalues --    0.15748   0.16960   0.17076   0.19261   0.19429
 Alpha virt. eigenvalues --    0.22485   0.22750   0.25414   0.26632   0.33591
 Alpha virt. eigenvalues --    0.33740   0.35563   0.38201   0.43564   0.51456

  Beta  occ. eigenvalues --   -6.83509  -6.83498  -0.35074  -0.31563  -0.20374
  Beta  occ. eigenvalues --   -0.17952  -0.07429
  Beta virt. eigenvalues --    0.11533   0.14365   0.15152   0.16480   0.17068
  Beta virt. eigenvalues --    0.18484   0.18832   0.21745   0.23455   0.28144
  Beta virt. eigenvalues --    0.32855   0.34898   0.35588   0.37365   0.43565

 Mulliken charges and spin densities:
               1          2
     1  B   -0.377386   0.544895
     2  B   -0.377386   0.544895
     3  H   -0.061307  -0.022448
     4  H   -0.061307  -0.022448
     5  H   -0.061307  -0.022448
     6  H   -0.061307  -0.022448
 Sum of Mulliken charges =  -1.00000   1.00000

 Dipole moment (field-independent basis, Debye):
    X=              0.0000    Y=             -0.0000    Z=             -0.0000  Tot=              0.0000
 Quadrupole moment (field-independent basis, Debye-Ang):
   XX=            -29.8652   YY=            -23.2639   ZZ=            -23.6042
   XY=             -0.0000   XZ=              0.0000   YZ=             -0.0001

 Normal termination of Gaussian 16 at Mon Apr 21 17:21:11 2025.
