 Gaussian 16, Revision A.03,
 Gaussian 16:  ES64L-G16RevA.03 25-Dec-2016

 --------------------------------------------
 #p opt UM062X/6-311+G** nosymm int=superfine
 --------------------------------------------

 -------------------
 Title Card Required
 -------------------
 Symbolic Z-matrix:
 Charge =  0 Multiplicity = 1

 SCF Done:  E(UM062X) =  -79.7730772155     A.U. after    8 cycles
 SCF Done:  E(UM062X) =  -79.7805532418     A.U. after    8 cycles
 SCF Done:  E(UM062X) =  -79.7813075771     A.U. after    7 cycles
 Optimization completed.
    -- Stationary point found.

                          Input orientation:
 ---------------------------------------------------------------------
 Center     Atomic      Atomic             Coordinates (Angstroms)
 Number     Number       Type             X           Y           Z
 ---------------------------------------------------------------------
      1          6           0       -0.870444    0.000000    0.000000
      2          6           0        0.870533    0.000000    0.000000
      3          1           0        1.218657   -0.892212    0.516264
      4          1           0       -1.218578   -0.893212   -0.514521
      5          1           0        1.218668    0.893213    0.514519
      6          1           0        1.218608   -0.001007   -1.030824
      7          1           0       -1.218568    0.892212   -0.516264
      8          1           0       -1.218521    0.001006    1.030823
 ---------------------------------------------------------------------

 Alpha  occ. eigenvalues --  -10.53361 -10.53343  -0.81584  -0.71201  -0.49101
 Alpha  occ. eigenvalues --   -0.49101  -0.42326  -0.42326  -0.38187
 Alpha virt. eigenvalues --    0.02235   0.03784   0.05610   0.05610   0.08653
 Alpha virt. eigenvalues --    0.08653   0.09149   0.13587   0.18425   0.18425
 Alpha virt. eigenvalues --    0.20137   0.21651   0.21652   0.24209   0.27639

  Beta  occ. eigenvalues --  -10.53361 -10.53343  -0.81584  -0.71201  -0.49101
  Beta  occ. eigenvalues --   -0.49101  -0.42326  -0.42326  -0.38187
  Beta virt. eigenvalues --    0.02235   0.03784   0.05610   0.05610   0.08653
  Beta virt. eigenvalues --    0.08653   0.09149   0.13587   0.18425   0.18425
  Beta virt. eigenvalues --    0.20137   0.21651   0.21652   0.24209   0.27639

 Mulliken charges and spin densities:
               1          2
     1  C   -0.485206  -0.000000
     2  C   -0.485206  -0.000000
     3  H    0.161736   0.000000
     4  H    0.161736   0.000000
     5  H    0.161736   0.000000
     6  H    0.161735   0.000000
     7  H    0.161736   0.000000
     8  H    0.161735   0.000000
 Sum of Mulliken charges =  -0.00000   0.00000

 Dipole moment (field-independent basis, Debye):
    X=              0.0000    Y=             -0.0000    Z=             -0.0000  Tot=              0.0000
 Quadrupole moment (field-independent basis, Debye-Ang):
   XX=            -15.6177   YY=            -14.9409   ZZ=            -14.9410
   XY=              0.0000   XZ=              0.0001   YZ=             -0.0000

 Normal termination of Gaussian 16 at Tue Nov 19 11:58:33 2024.
