 Gaussian 16, Revision A.03,
 Gaussian 16:  ES64L-G16RevA.03 25-Dec-2016

 --------------------------------------------
 #p opt UM062X/6-311+G** nosymm int=superfine
 --------------------------------------------

 -------------------
 Title Card Required
 -------------------
 Symbolic Z-matrix:
 Charge =  0 Multiplicity = 1

 SCF Done:  E(UM062X) =  -81.8357139131     A.U. after   12 cycles
 SCF Done:  E(UM062X) =  -81.8402671995     A.U. after   10 cycles
 SCF Done:  E(UM062X) =  -81.8424163021     A.U. after   11 cycles
 SCF Done:  E(UM062X) =  -81.8365377403     A.U. after   12 cycles
 SCF Done:  E(UM062X) =  -81.8425511885     A.U. after   10 cycles
 SCF Done:  E(UM062X) =  -81.8402337700     A.U. after   14 cycles
 SCF Done:  E(UM062X) =  -81.8436729782     A.U. after   12 cycles
 SCF Done:  E(UM062X) =  -81.8425273579     A.U. after   13 cycles
 SCF Done:  E(UM062X) =  -81.8443003359     A.U. after   11 cycles
 SCF Done:  E(UM062X) =  -81.8461012498     A.U. after   13 cycles
 SCF Done:  E(UM062X) =  -81.8510818764     A.U. after   12 cycles
 SCF Done:  E(UM062X) =  -81.8546945282     A.U. after   11 cycles
 SCF Done:  E(UM062X) =  -81.8532929944     A.U. after   12 cycles
 SCF Done:  E(UM062X) =  -81.8568539482     A.U. after   10 cycles
 SCF Done:  E(UM062X) =  -81.8569114323     A.U. after   10 cycles
 SCF Done:  E(UM062X) =  -81.8569152527     A.U. after    8 cycles
 SCF Done:  E(UM062X) =  -81.8569156442     A.U. after    8 cycles
 Optimization completed.
    -- Stationary point found.

                          Input orientation:
 ---------------------------------------------------------------------
 Center     Atomic      Atomic             Coordinates (Angstroms)
 Number     Number       Type             X           Y           Z
 ---------------------------------------------------------------------
      1          5           0       -1.170399    0.000000    0.000000
      2          7           0        1.170399    0.000000    0.000000
      3          1           0       -1.609671   -1.089381   -0.034803
      4          1           0        1.325635    0.812926    0.598132
      5          1           0       -1.609688    1.089380   -0.034595
      6          1           0        1.325630   -0.813038    0.597981
 ---------------------------------------------------------------------

 Alpha  occ. eigenvalues --  -14.72562  -7.14733  -0.88807  -0.60125  -0.50328
 Alpha  occ. eigenvalues --   -0.47196  -0.35587  -0.29617
 Alpha virt. eigenvalues --   -0.05902  -0.00950   0.01423   0.03318   0.05146
 Alpha virt. eigenvalues --    0.06076   0.11381   0.13824   0.14160   0.16871
 Alpha virt. eigenvalues --    0.20442   0.20789   0.21426   0.29601   0.33760

  Beta  occ. eigenvalues --  -14.72562  -7.14733  -0.88807  -0.60125  -0.50328
  Beta  occ. eigenvalues --   -0.47196  -0.35587  -0.29617
  Beta virt. eigenvalues --   -0.05902  -0.00950   0.01423   0.03318   0.05146
  Beta virt. eigenvalues --    0.06076   0.11381   0.13824   0.14160   0.16871
  Beta virt. eigenvalues --    0.20442   0.20789   0.21426   0.29601   0.33760

 Mulliken charges and spin densities:
               1          2
     1  B    0.196901  -0.000000
     2  N   -0.745069   0.000000
     3  H    0.041160   0.000000
     4  H    0.232924  -0.000000
     5  H    0.041161   0.000000
     6  H    0.232924  -0.000000
 Sum of Mulliken charges =  -0.00000   0.00000

 Dipole moment (field-independent basis, Debye):
    X=             -2.6594    Y=             -0.0002    Z=              1.6243  Tot=              3.1162
 Quadrupole moment (field-independent basis, Debye-Ang):
   XX=            -14.8751   YY=            -13.3383   ZZ=            -14.4628
   XY=             -0.0002   XZ=              2.5911   YZ=              0.0001

 Normal termination of Gaussian 16 at Mon Apr 21 17:44:11 2025.
