 Gaussian 16, Revision A.03,
 Gaussian 16:  ES64L-G16RevA.03 25-Dec-2016

 ---------------------------------------------------
 #p UM062X/6-311+G** force int=superfine pop=saveNBO
 ---------------------------------------------------

 -------------------
 Title Card Required
 -------------------
 Symbolic Z-matrix:
 Charge =  0 Multiplicity = 1

                         Standard orientation:
 ---------------------------------------------------------------------
 Center     Atomic      Atomic             Coordinates (Angstroms)
 Number     Number       Type             X           Y           Z
 ---------------------------------------------------------------------
      1          6           0        0.000000    0.000000   -2.238976
      2         16           0        0.000000    0.000000    0.839616
 ---------------------------------------------------------------------

 SCF Done:  E(UM062X) =  -435.852926870     A.U. after   19 cycles

 The electronic state is 1-SG.
 Alpha  occ. eigenvalues --  -89.92488 -10.78965  -8.28441  -6.21035  -6.19760
 Alpha  occ. eigenvalues --   -6.19760  -0.73365  -0.69591  -0.33846  -0.30212
 Alpha  occ. eigenvalues --   -0.30212
 Alpha virt. eigenvalues --   -0.15966  -0.15966  -0.14485   0.03084   0.05340
 Alpha virt. eigenvalues --    0.05872   0.05872   0.08748   0.08748   0.08815
 Alpha virt. eigenvalues --    0.14349   0.36462   0.36462   0.37218   0.51295

  Beta  occ. eigenvalues --  -89.92488 -10.78965  -8.28441  -6.21035  -6.19760
  Beta  occ. eigenvalues --   -6.19760  -0.73365  -0.69591  -0.33846  -0.30212
  Beta  occ. eigenvalues --   -0.30212
  Beta virt. eigenvalues --   -0.15966  -0.15966  -0.14485   0.03084   0.05340
  Beta virt. eigenvalues --    0.05872   0.05872   0.08748   0.08748   0.08815
  Beta virt. eigenvalues --    0.14349   0.36462   0.36462   0.37218   0.51295

 Mulliken charges and spin densities:
               1          2
     1  C    0.183178  -0.000000
     2  S   -0.183178   0.000000
 Sum of Mulliken charges =   0.00000  -0.00000

 Dipole moment (field-independent basis, Debye):
    X=              0.0000    Y=              0.0000    Z=             -2.6962  Tot=              2.6962
 Quadrupole moment (field-independent basis, Debye-Ang):
   XX=            -20.8059   YY=            -20.8059   ZZ=            -14.5625
   XY=              0.0000   XZ=              0.0000   YZ=              0.0000

 Summary of Natural Population Analysis:

                                       Natural Population
                Natural  -----------------------------------------------
    Atom  No    Charge         Core      Valence    Rydberg      Total
 -----------------------------------------------------------------------
      C    1    0.13159      1.00000     1.86799    0.00042     2.86841
      S    2   -0.13159      4.99999     3.13105    0.00056     8.13159
 =======================================================================
   * Total *    0.00000      5.99999     4.99903    0.00097    11.00000

 Normal termination of Gaussian 16 at Mon Apr 21 19:45:59 2025.
