 Gaussian 16, Revision A.03,
 Gaussian 16:  ES64L-G16RevA.03 25-Dec-2016

 ---------------------------------------------------
 #p UM062X/6-311+G** force int=superfine pop=saveNBO
 ---------------------------------------------------

 -------------------
 Title Card Required
 -------------------
 Symbolic Z-matrix:
 Charge =  0 Multiplicity = 1

                         Standard orientation:
 ---------------------------------------------------------------------
 Center     Atomic      Atomic             Coordinates (Angstroms)
 Number     Number       Type             X           Y           Z
 ---------------------------------------------------------------------
      1         16           0        0.000000    0.000000    2.450200
      2         16           0        0.000000    0.000000   -2.450200
 ---------------------------------------------------------------------

 SCF Done:  E(UM062X) =  -795.999513124     A.U. after    9 cycles

 Unable to determine electronic state:  partially filled degenerate orbitals.
 Alpha  occ. eigenvalues --  -89.98277 -89.98277  -8.34136  -8.34136  -6.26160
 Alpha  occ. eigenvalues --   -6.26160  -6.26145  -6.26144  -6.25327  -6.25327
 Alpha  occ. eigenvalues --   -0.77695  -0.77423  -0.34572  -0.34468  -0.30745
 Alpha  occ. eigenvalues --   -0.30196
 Alpha virt. eigenvalues --   -0.24387  -0.23822   0.02771   0.03979   0.04574
 Alpha virt. eigenvalues --    0.04966   0.06566   0.06823   0.07270   0.11343
 Alpha virt. eigenvalues --    0.31322   0.33531   0.34344   0.34814   0.35623

  Beta  occ. eigenvalues --  -89.98277 -89.98277  -8.34136  -8.34136  -6.26160
  Beta  occ. eigenvalues --   -6.26160  -6.26145  -6.26144  -6.25327  -6.25327
  Beta  occ. eigenvalues --   -0.77695  -0.77423  -0.34572  -0.34468  -0.30745
  Beta  occ. eigenvalues --   -0.30196
  Beta virt. eigenvalues --   -0.24387  -0.23822   0.02771   0.03979   0.04574
  Beta virt. eigenvalues --    0.04966   0.06566   0.06823   0.07270   0.11343
  Beta virt. eigenvalues --    0.31322   0.33531   0.34344   0.34814   0.35623

 Mulliken charges and spin densities:
               1          2
     1  S   -0.000000   0.000000
     2  S   -0.000000   0.000000
 Sum of Mulliken charges =  -0.00000   0.00000

 Dipole moment (field-independent basis, Debye):
    X=              0.0000    Y=              0.0000    Z=              0.0000  Tot=              0.0000
 Quadrupole moment (field-independent basis, Debye-Ang):
   XX=            -30.4067   YY=            -25.3026   ZZ=            -23.3918
   XY=              0.0000   XZ=             -0.0000   YZ=              0.0000

 Summary of Natural Population Analysis:

                                       Natural Population
                Natural  -----------------------------------------------
    Atom  No    Charge         Core      Valence    Rydberg      Total
 -----------------------------------------------------------------------
      S    1   -0.00000      5.00000     2.99944    0.00056     8.00000
      S    2   -0.00000      5.00000     2.99944    0.00056     8.00000
 =======================================================================
   * Total *   -0.00000      9.99999     5.99888    0.00113    16.00000

 Normal termination of Gaussian 16 at Mon Apr 21 20:03:58 2025.
