 Gaussian 16, Revision A.03,
 Gaussian 16:  ES64L-G16RevA.03 25-Dec-2016

 ---------------------------------------
 #p UM062X/6-311+G** force int=superfine
 ---------------------------------------

 -------------------
 Title Card Required
 -------------------
 Symbolic Z-matrix:
 Charge =  1 Multiplicity = 2

                         Standard orientation:
 ---------------------------------------------------------------------
 Center     Atomic      Atomic             Coordinates (Angstroms)
 Number     Number       Type             X           Y           Z
 ---------------------------------------------------------------------
      1          7           0        0.000000    0.000000    1.605391
      2          7           0        0.000000    0.000000   -1.605391
 ---------------------------------------------------------------------

 SCF Done:  E(UM062X) =  -108.361041299     A.U. after   11 cycles

 Unable to determine electronic state:  partially filled degenerate orbitals.
 Alpha  occ. eigenvalues --  -15.32146 -15.32141  -1.20726  -1.19742  -0.66734
 Alpha  occ. eigenvalues --   -0.65537  -0.64111
 Alpha virt. eigenvalues --   -0.57627  -0.54976  -0.53731  -0.12878  -0.08256
 Alpha virt. eigenvalues --   -0.08252  -0.08098  -0.03691  -0.02914  -0.02721
 Alpha virt. eigenvalues --    0.03996   0.46828   0.50309   0.51535   0.52600

  Beta  occ. eigenvalues --  -15.31655 -15.31651  -1.16981  -1.16081  -0.63831
  Beta  occ. eigenvalues --   -0.62331
  Beta virt. eigenvalues --   -0.53166  -0.51799  -0.44805  -0.44170  -0.13914
  Beta virt. eigenvalues --   -0.08979  -0.08577  -0.08183  -0.04001  -0.03211
  Beta virt. eigenvalues --   -0.02959   0.02645   0.46889   0.51371   0.51710

 Mulliken charges and spin densities:
               1          2
     1  N    0.500000   0.500000
     2  N    0.500000   0.500000
 Sum of Mulliken charges =   1.00000   1.00000

 Dipole moment (field-independent basis, Debye):
    X=              0.0000    Y=              0.0000    Z=              0.0000  Tot=              0.0000
 Quadrupole moment (field-independent basis, Debye-Ang):
   XX=             -8.5692   YY=            -10.0162   ZZ=              4.0051
   XY=             -0.0000   XZ=             -0.0000   YZ=              0.0000

 Optimization completed.
    -- Stationary point found.
 Normal termination of Gaussian 16 at Wed Feb 26 14:01:59 2025.
