 Gaussian 16, Revision A.03,
 Gaussian 16:  ES64L-G16RevA.03 25-Dec-2016

 --------------------------------------------
 #p opt UM062X/6-311+G** nosymm int=superfine
 --------------------------------------------

 -------------------
 Title Card Required
 -------------------
 Symbolic Z-matrix:
 Charge =  0 Multiplicity = 1

 SCF Done:  E(UM062X) =  -79.6057133274     A.U. after   10 cycles
 SCF Done:  E(UM062X) =  -79.6079722838     A.U. after    9 cycles
 SCF Done:  E(UM062X) =  -79.6086724146     A.U. after    9 cycles
 SCF Done:  E(UM062X) =  -79.6086735932     A.U. after    7 cycles
 Optimization completed.
    -- Stationary point found.

                          Input orientation:
 ---------------------------------------------------------------------
 Center     Atomic      Atomic             Coordinates (Angstroms)
 Number     Number       Type             X           Y           Z
 ---------------------------------------------------------------------
      1          6           0       -1.621675    0.000000    0.000000
      2          6           0        1.621800    0.000000    0.000000
      3          1           0        1.728056   -0.930469    0.538410
      4          1           0       -1.727922   -0.931519   -0.536594
      5          1           0        1.728049    0.931519    0.536593
      6          1           0        1.728053   -0.001049   -1.075017
      7          1           0       -1.727930    0.930469   -0.538410
      8          1           0       -1.727931    0.001048    1.075017
 ---------------------------------------------------------------------

 Alpha  occ. eigenvalues --  -10.56950 -10.56948  -0.76956  -0.76068  -0.48845
 Alpha  occ. eigenvalues --   -0.48844  -0.48392  -0.48392  -0.23623
 Alpha virt. eigenvalues --   -0.08583   0.02976   0.05362   0.05362   0.05496
 Alpha virt. eigenvalues --    0.07740   0.07740   0.11177   0.12471   0.18430
 Alpha virt. eigenvalues --    0.18430   0.21019   0.21019   0.23842   0.25098

  Beta  occ. eigenvalues --  -10.56950 -10.56948  -0.76956  -0.76068  -0.48845
  Beta  occ. eigenvalues --   -0.48844  -0.48392  -0.48392  -0.23623
  Beta virt. eigenvalues --   -0.08583   0.02976   0.05362   0.05362   0.05496
  Beta virt. eigenvalues --    0.07740   0.07740   0.11177   0.12471   0.18430
  Beta virt. eigenvalues --    0.18430   0.21019   0.21019   0.23842   0.25098

 Mulliken charges and spin densities:
               1          2
     1  C   -0.525640   0.000000
     2  C   -0.525640  -0.000000
     3  H    0.175213   0.000000
     4  H    0.175214  -0.000000
     5  H    0.175214   0.000000
     6  H    0.175213   0.000000
     7  H    0.175213  -0.000000
     8  H    0.175213  -0.000000
 Sum of Mulliken charges =  -0.00000   0.00000

 Dipole moment (field-independent basis, Debye):
    X=             -0.0000    Y=             -0.0000    Z=             -0.0000  Tot=              0.0000
 Quadrupole moment (field-independent basis, Debye-Ang):
   XX=            -15.3991   YY=            -14.8195   ZZ=            -14.8196
   XY=             -0.0000   XZ=             -0.0000   YZ=              0.0000

 Normal termination of Gaussian 16 at Tue Dec  3 10:02:12 2024.
