 Gaussian 16, Revision A.03,
 Gaussian 16:  ES64L-G16RevA.03 25-Dec-2016

 --------------------------------------------
 #p opt UM062X/6-311+G** nosymm int=superfine
 --------------------------------------------

 -------------------
 Title Card Required
 -------------------
 Symbolic Z-matrix:
 Charge =  0 Multiplicity = 1

 SCF Done:  E(UM062X) =  -438.461688425     A.U. after   15 cycles
 SCF Done:  E(UM062X) =  -438.475445340     A.U. after   13 cycles
 SCF Done:  E(UM062X) =  -438.482928593     A.U. after   13 cycles
 SCF Done:  E(UM062X) =  -438.482997358     A.U. after   10 cycles
 SCF Done:  E(UM062X) =  -438.483005096     A.U. after   11 cycles
 SCF Done:  E(UM062X) =  -438.483046663     A.U. after   11 cycles
 SCF Done:  E(UM062X) =  -438.483049979     A.U. after    9 cycles
 SCF Done:  E(UM062X) =  -438.483050507     A.U. after   10 cycles
 SCF Done:  E(UM062X) =  -438.483050583     A.U. after    8 cycles
 Optimization completed.
    -- Stationary point found.

                          Input orientation:
 ---------------------------------------------------------------------
 Center     Atomic      Atomic             Coordinates (Angstroms)
 Number     Number       Type             X           Y           Z
 ---------------------------------------------------------------------
      1          6           0       -2.285220    0.000000    0.000000
      2         16           0        2.285220    0.000000    0.000000
      3          1           0        2.263103   -1.344439   -0.001134
      4          1           0       -2.239624    1.080141    0.002630
      5          1           0       -2.322507   -0.536296   -0.937974
      6          1           0       -2.322748   -0.540852    0.935344
 ---------------------------------------------------------------------

 Alpha  occ. eigenvalues --  -89.87268 -10.65159  -8.23603  -6.15640  -6.15586
 Alpha  occ. eigenvalues --   -6.15032  -0.83719  -0.75235  -0.55780  -0.55720
 Alpha  occ. eigenvalues --   -0.41785  -0.27723  -0.25491
 Alpha virt. eigenvalues --   -0.17667   0.00753   0.03555   0.03803   0.05430
 Alpha virt. eigenvalues --    0.07422   0.08246   0.08400   0.10629   0.13177
 Alpha virt. eigenvalues --    0.15242   0.15287   0.19747   0.35084   0.37546

  Beta  occ. eigenvalues --  -89.87268 -10.65159  -8.23603  -6.15640  -6.15586
  Beta  occ. eigenvalues --   -6.15032  -0.83719  -0.75235  -0.55780  -0.55720
  Beta  occ. eigenvalues --   -0.41785  -0.27723  -0.25491
  Beta virt. eigenvalues --   -0.17667   0.00753   0.03555   0.03803   0.05430
  Beta virt. eigenvalues --    0.07422   0.08246   0.08400   0.10629   0.13177
  Beta virt. eigenvalues --    0.15242   0.15287   0.19747   0.35084   0.37546

 Mulliken charges and spin densities:
               1          2
     1  C   -0.359907   0.000002
     2  S   -0.298829  -0.000002
     3  H    0.050209   0.000000
     4  H    0.204859  -0.000000
     5  H    0.201840  -0.000000
     6  H    0.201829  -0.000000
 Sum of Mulliken charges =  -0.00000   0.00000

 Dipole moment (field-independent basis, Debye):
    X=             -5.7721    Y=             -0.9592    Z=             -0.0008  Tot=              5.8513
 Quadrupole moment (field-independent basis, Debye-Ang):
   XX=            -21.1651   YY=            -19.6191   ZZ=            -23.6694
   XY=             -2.2098   XZ=             -0.0019   YZ=              0.0034

 Normal termination of Gaussian 16 at Mon Apr 21 19:40:37 2025.
