 Gaussian 16, Revision A.03,
 Gaussian 16:  ES64L-G16RevA.03 25-Dec-2016

 --------------------------------------------
 #p opt UM062X/6-311+G** nosymm int=superfine
 --------------------------------------------

 -------------------
 Title Card Required
 -------------------
 Symbolic Z-matrix:
 Charge =  0 Multiplicity = 3

 SCF Done:  E(UM062X) =  -75.0610434943     A.U. after   10 cycles
 SCF Done:  E(UM062X) =  -75.0610434943     A.U. after    1 cycles
 Optimization completed.
    -- Stationary point found.

                          Input orientation:
 ---------------------------------------------------------------------
 Center     Atomic      Atomic             Coordinates (Angstroms)
 Number     Number       Type             X           Y           Z
 ---------------------------------------------------------------------
      1          8           0       -0.745068    0.000000    0.000000
 ---------------------------------------------------------------------

 Alpha  occ. eigenvalues --  -19.76266  -1.14778  -0.55065  -0.55065  -0.48378
 Alpha virt. eigenvalues --    0.12341   0.16307   0.16307   0.16917   0.98715
 Alpha virt. eigenvalues --    0.98715   1.02785   1.21722   2.73111   2.73111
 Alpha virt. eigenvalues --    2.78034   2.78034   2.79645   4.88044   4.88044

  Beta  occ. eigenvalues --  -19.72624  -0.96362  -0.41020
  Beta virt. eigenvalues --   -0.11211  -0.11211   0.09951   0.17372   0.17906
  Beta virt. eigenvalues --    0.17907   1.04224   1.04224   1.04361   1.26625
  Beta virt. eigenvalues --    2.86181   2.86181   2.87509   2.87722   2.87722

 Mulliken charges and spin densities:
               1          2
     1  O   -0.000000   2.000000
 Sum of Mulliken charges =  -0.00000   2.00000

 Dipole moment (field-independent basis, Debye):
    X=              0.0000    Y=             -0.0000    Z=              0.0000  Tot=              0.0000
 Quadrupole moment (field-independent basis, Debye-Ang):
   XX=             -4.9183   YY=             -5.8036   ZZ=             -4.7577
   XY=              0.4615   XZ=             -0.0844   YZ=              0.1980

 Normal termination of Gaussian 16 at Wed Apr 16 08:48:20 2025.
