 Gaussian 16, Revision A.03,
 Gaussian 16:  ES64L-G16RevA.03 25-Dec-2016

 ---------------------------------------
 #p UM062X/6-311+G** force int=superfine
 ---------------------------------------

 -------------------
 Title Card Required
 -------------------
 Symbolic Z-matrix:
 Charge =  0 Multiplicity = 1

                         Standard orientation:
 ---------------------------------------------------------------------
 Center     Atomic      Atomic             Coordinates (Angstroms)
 Number     Number       Type             X           Y           Z
 ---------------------------------------------------------------------
      1          6           0       -0.026477   -0.174634   -1.178026
      2          6           0        0.026477    0.174634    1.178026
      3          1           0        0.692059    1.024206    1.260292
      4          1           0       -0.418211    0.770082   -1.532427
      5          1           0        0.418209   -0.770081    1.532430
      6          1           0       -1.016137    0.366837    1.396110
      7          1           0       -0.692059   -1.024206   -1.260292
      8          1           0        1.016136   -0.366836   -1.396114
 ---------------------------------------------------------------------

 SCF Done:  E(UM062X) =  -79.6899554836     A.U. after    8 cycles

 The electronic state is 1-A.
 Alpha  occ. eigenvalues --  -10.55606 -10.55601  -0.77576  -0.73983  -0.48269
 Alpha  occ. eigenvalues --   -0.48269  -0.46121  -0.46120  -0.28835
 Alpha virt. eigenvalues --   -0.01045   0.02513   0.05541   0.05541   0.07220
 Alpha virt. eigenvalues --    0.08270   0.08270   0.10038   0.13049   0.18162
 Alpha virt. eigenvalues --    0.18162   0.22055   0.22055   0.24364   0.26245

  Beta  occ. eigenvalues --  -10.55606 -10.55601  -0.77576  -0.73983  -0.48269
  Beta  occ. eigenvalues --   -0.48269  -0.46121  -0.46120  -0.28835
  Beta virt. eigenvalues --   -0.01045   0.02513   0.05541   0.05541   0.07220
  Beta virt. eigenvalues --    0.08270   0.08270   0.10038   0.13049   0.18162
  Beta virt. eigenvalues --    0.18162   0.22055   0.22055   0.24364   0.26245

 Mulliken charges and spin densities:
               1          2
     1  C   -0.509128  -0.000000
     2  C   -0.509127   0.000000
     3  H    0.169709  -0.000000
     4  H    0.169709   0.000000
     5  H    0.169709  -0.000000
     6  H    0.169709  -0.000000
     7  H    0.169709   0.000000
     8  H    0.169709   0.000000
 Sum of Mulliken charges =  -0.00000   0.00000

 Dipole moment (field-independent basis, Debye):
    X=             -0.0000    Y=              0.0000    Z=              0.0000  Tot=              0.0000
 Quadrupole moment (field-independent basis, Debye-Ang):
   XX=            -14.8119   YY=            -14.8271   ZZ=            -15.5202
   XY=             -0.0023   XZ=             -0.0159   YZ=             -0.1050

 Normal termination of Gaussian 16 at Tue Nov 19 12:56:33 2024.
