 Gaussian 16, Revision A.03,
 Gaussian 16:  ES64L-G16RevA.03 25-Dec-2016

 --------------------------------------------
 #p opt UM062X/6-311+G** nosymm int=superfine
 --------------------------------------------

 -------------------
 Title Card Required
 -------------------
 Symbolic Z-matrix:
 Charge =  0 Multiplicity = 1

 SCF Done:  E(UM062X) =  -683.563956683     A.U. after   11 cycles
 SCF Done:  E(UM062X) =  -683.564050993     A.U. after   10 cycles
 SCF Done:  E(UM062X) =  -683.564296586     A.U. after   13 cycles
 SCF Done:  E(UM062X) =  -683.564435791     A.U. after   13 cycles
 SCF Done:  E(UM062X) =  -683.564464540     A.U. after   16 cycles
 SCF Done:  E(UM062X) =  -683.564472100     A.U. after    9 cycles
 SCF Done:  E(UM062X) =  -683.564472307     A.U. after   14 cycles
 Optimization completed.
    -- Stationary point found.

                          Input orientation:
 ---------------------------------------------------------------------
 Center     Atomic      Atomic             Coordinates (Angstroms)
 Number     Number       Type             X           Y           Z
 ---------------------------------------------------------------------
      1         15           0       -2.509490    0.000000    0.000000
      2         15           0        2.509490    0.000000    0.000000
      3          1           0       -2.338551   -1.413682   -0.000000
      4          1           0        2.338551    1.413682   -0.000000
 ---------------------------------------------------------------------

 Alpha  occ. eigenvalues --  -78.08075 -78.08075  -6.90171  -6.90171  -5.01575
 Alpha  occ. eigenvalues --   -5.01575  -5.01561  -5.01561  -5.01391  -5.01391
 Alpha  occ. eigenvalues --   -0.68463  -0.68197  -0.40512  -0.40489  -0.24097
 Alpha  occ. eigenvalues --   -0.23415
 Alpha virt. eigenvalues --   -0.17678  -0.16870   0.01784   0.03002   0.03712
 Alpha virt. eigenvalues --    0.04363   0.05478   0.06001   0.06290   0.07258
 Alpha virt. eigenvalues --    0.07946   0.11092   0.29164   0.29183   0.30445

  Beta  occ. eigenvalues --  -78.08075 -78.08075  -6.90171  -6.90171  -5.01575
  Beta  occ. eigenvalues --   -5.01575  -5.01561  -5.01561  -5.01391  -5.01391
  Beta  occ. eigenvalues --   -0.68463  -0.68197  -0.40512  -0.40489  -0.24097
  Beta  occ. eigenvalues --   -0.23415
  Beta virt. eigenvalues --   -0.17678  -0.16870   0.01784   0.03002   0.03712
  Beta virt. eigenvalues --    0.04363   0.05478   0.06001   0.06290   0.07258
  Beta virt. eigenvalues --    0.07946   0.11092   0.29164   0.29183   0.30445

 Mulliken charges and spin densities:
               1          2
     1  P    0.014315  -0.000000
     2  P    0.014315   0.000000
     3  H   -0.014315  -0.000000
     4  H   -0.014315  -0.000000
 Sum of Mulliken charges =  -0.00000   0.00000

 Dipole moment (field-independent basis, Debye):
    X=              0.0000    Y=             -0.0000    Z=              0.0000  Tot=              0.0000
 Quadrupole moment (field-independent basis, Debye-Ang):
   XX=            -27.9436   YY=            -28.5213   ZZ=            -30.6870
   XY=              3.6916   XZ=             -0.0000   YZ=             -0.0000

 Normal termination of Gaussian 16 at Mon Apr 21 21:10:20 2025.
