 Gaussian 16, Revision A.03,
 Gaussian 16:  ES64L-G16RevA.03 25-Dec-2016

 --------------------------------------------
 #p opt UM062X/6-311+G** nosymm int=superfine
 --------------------------------------------

 -------------------
 Title Card Required
 -------------------
 Symbolic Z-matrix:
 Charge =  0 Multiplicity = 1

 SCF Done:  E(UM062X) =  -115.575084292     A.U. after   11 cycles
 SCF Done:  E(UM062X) =  -115.588224753     A.U. after   11 cycles
 SCF Done:  E(UM062X) =  -115.591678052     A.U. after   11 cycles
 SCF Done:  E(UM062X) =  -115.591700185     A.U. after    9 cycles
 SCF Done:  E(UM062X) =  -115.591707811     A.U. after    9 cycles
 SCF Done:  E(UM062X) =  -115.591708191     A.U. after    8 cycles
 Optimization completed.
    -- Stationary point found.

                          Input orientation:
 ---------------------------------------------------------------------
 Center     Atomic      Atomic             Coordinates (Angstroms)
 Number     Number       Type             X           Y           Z
 ---------------------------------------------------------------------
      1          6           0       -1.107203    0.000000    0.000000
      2          8           0        1.107203    0.000000    0.000000
      3          1           0        1.202293   -0.960188    0.000184
      4          1           0       -1.283925   -0.521375    0.930357
      5          1           0       -1.194434    1.076673   -0.000796
      6          1           0       -1.284000   -0.522747   -0.929574
 ---------------------------------------------------------------------

 Alpha  occ. eigenvalues --  -19.60980 -10.63572  -1.03749  -0.81409  -0.53373
 Alpha  occ. eigenvalues --   -0.53342  -0.47580  -0.35603  -0.34635
 Alpha virt. eigenvalues --   -0.06670   0.01080   0.04611   0.05105   0.06883
 Alpha virt. eigenvalues --    0.14875   0.16956   0.17110   0.20302   0.22936
 Alpha virt. eigenvalues --    0.23282   0.24247   0.33078   0.40834   0.41794

  Beta  occ. eigenvalues --  -19.60980 -10.63572  -1.03749  -0.81409  -0.53373
  Beta  occ. eigenvalues --   -0.53342  -0.47580  -0.35603  -0.34635
  Beta virt. eigenvalues --   -0.06670   0.01080   0.04611   0.05105   0.06883
  Beta virt. eigenvalues --    0.14875   0.16956   0.17110   0.20302   0.22936
  Beta virt. eigenvalues --    0.23282   0.24247   0.33078   0.40834   0.41794

 Mulliken charges and spin densities:
               1          2
     1  C   -0.303424  -0.000000
     2  O   -0.511838   0.000000
     3  H    0.224153   0.000000
     4  H    0.191326  -0.000000
     5  H    0.208478  -0.000000
     6  H    0.191305  -0.000000
 Sum of Mulliken charges =  -0.00000  -0.00000

 Dipole moment (field-independent basis, Debye):
    X=             -3.5206    Y=             -1.5340    Z=              0.0003  Tot=              3.8403
 Quadrupole moment (field-independent basis, Debye-Ang):
   XX=            -13.4144   YY=            -11.4143   ZZ=            -13.8136
   XY=             -2.1679   XZ=              0.0004   YZ=             -0.0005

 Normal termination of Gaussian 16 at Mon Apr 21 18:41:30 2025.
