 Gaussian 16, Revision A.03,
 Gaussian 16:  ES64L-G16RevA.03 25-Dec-2016

 --------------------------------------------
 #p opt UM062X/6-311+G** nosymm int=superfine
 --------------------------------------------

 -------------------
 Title Card Required
 -------------------
 Symbolic Z-matrix:
 Charge =  0 Multiplicity = 1

 SCF Done:  E(UM062X) =  -79.7046942236     A.U. after    8 cycles
 SCF Done:  E(UM062X) =  -79.7282566526     A.U. after    8 cycles
 SCF Done:  E(UM062X) =  -79.7417641200     A.U. after   10 cycles
 SCF Done:  E(UM062X) =  -79.7419067862     A.U. after    7 cycles
 Optimization completed.
    -- Stationary point found.

                          Input orientation:
 ---------------------------------------------------------------------
 Center     Atomic      Atomic             Coordinates (Angstroms)
 Number     Number       Type             X           Y           Z
 ---------------------------------------------------------------------
      1          6           0       -1.007882    0.000000    0.000000
      2          6           0        1.007985    0.000000    0.000000
      3          1           0        1.298073   -0.905139    0.523787
      4          1           0       -1.297972   -0.906162   -0.522022
      5          1           0        1.298077    0.906161    0.522020
      6          1           0        1.298138   -0.001021   -1.045748
      7          1           0       -1.297970    0.905140   -0.523787
      8          1           0       -1.298037    0.001021    1.045746
 ---------------------------------------------------------------------

 Alpha  occ. eigenvalues --  -10.54539 -10.54530  -0.79107  -0.72524  -0.48420
 Alpha  occ. eigenvalues --   -0.48419  -0.44282  -0.44282  -0.33373
 Alpha virt. eigenvalues --    0.02331   0.02671   0.05634   0.05634   0.08494
 Alpha virt. eigenvalues --    0.08494   0.09491   0.11342   0.13809   0.18207
 Alpha virt. eigenvalues --    0.18208   0.22022   0.22022   0.24295   0.27009

  Beta  occ. eigenvalues --  -10.54539 -10.54530  -0.79107  -0.72524  -0.48420
  Beta  occ. eigenvalues --   -0.48419  -0.44282  -0.44282  -0.33373
  Beta virt. eigenvalues --    0.02331   0.02671   0.05634   0.05634   0.08494
  Beta virt. eigenvalues --    0.08494   0.09491   0.11342   0.13809   0.18207
  Beta virt. eigenvalues --    0.18208   0.22022   0.22022   0.24295   0.27009

 Mulliken charges and spin densities:
               1          2
     1  C   -0.497575  -0.000000
     2  C   -0.497575   0.000000
     3  H    0.165859  -0.000000
     4  H    0.165858   0.000000
     5  H    0.165859   0.000000
     6  H    0.165857   0.000000
     7  H    0.165859   0.000000
     8  H    0.165857   0.000000
 Sum of Mulliken charges =  -0.00000  -0.00000

 Dipole moment (field-independent basis, Debye):
    X=             -0.0000    Y=              0.0000    Z=              0.0000  Tot=              0.0000
 Quadrupole moment (field-independent basis, Debye-Ang):
   XX=            -15.5939   YY=            -14.8806   ZZ=            -14.8804
   XY=              0.0000   XZ=             -0.0001   YZ=              0.0000

 Normal termination of Gaussian 16 at Tue Nov 19 12:06:14 2024.
