 Gaussian 16, Revision A.03,
 Gaussian 16:  ES64L-G16RevA.03 25-Dec-2016

 --------------------------------------------
 #p opt UM062X/6-311+G** nosymm int=superfine
 --------------------------------------------

 -------------------
 Title Card Required
 -------------------
 Symbolic Z-matrix:
 Charge =  0 Multiplicity = 1

 SCF Done:  E(UM062X) =  -115.497690120     A.U. after   15 cycles
 SCF Done:  E(UM062X) =  -115.513572837     A.U. after   11 cycles
 SCF Done:  E(UM062X) =  -115.521887849     A.U. after   11 cycles
 SCF Done:  E(UM062X) =  -115.522019168     A.U. after   12 cycles
 SCF Done:  E(UM062X) =  -115.522096877     A.U. after   10 cycles
 SCF Done:  E(UM062X) =  -115.522111906     A.U. after    9 cycles
 SCF Done:  E(UM062X) =  -115.522113428     A.U. after   10 cycles
 SCF Done:  E(UM062X) =  -115.522113873     A.U. after    8 cycles
 SCF Done:  E(UM062X) =  -115.522114179     A.U. after   10 cycles
 SCF Done:  E(UM062X) =  -115.522114321     A.U. after    8 cycles
 Optimization completed.
    -- Stationary point found.

                          Input orientation:
 ---------------------------------------------------------------------
 Center     Atomic      Atomic             Coordinates (Angstroms)
 Number     Number       Type             X           Y           Z
 ---------------------------------------------------------------------
      1          6           0       -1.407203    0.000000    0.000000
      2          8           0        1.407203    0.000000    0.000000
      3          1           0        1.450897   -0.964593    0.000273
      4          1           0       -1.503293   -0.530375    0.936944
      5          1           0       -1.382115    1.080321   -0.000769
      6          1           0       -1.503338   -0.531712   -0.936181
 ---------------------------------------------------------------------

 Alpha  occ. eigenvalues --  -19.59440 -10.66078  -1.01699  -0.83584  -0.55685
 Alpha  occ. eigenvalues --   -0.55420  -0.46162  -0.33114  -0.30831
 Alpha virt. eigenvalues --   -0.13304   0.00698   0.04119   0.04554   0.06498
 Alpha virt. eigenvalues --    0.14080   0.15703   0.15943   0.20134   0.22920
 Alpha virt. eigenvalues --    0.23043   0.24651   0.31281   0.39837   0.40263

  Beta  occ. eigenvalues --  -19.59440 -10.66078  -1.01699  -0.83584  -0.55685
  Beta  occ. eigenvalues --   -0.55420  -0.46162  -0.33114  -0.30831
  Beta virt. eigenvalues --   -0.13304   0.00698   0.04119   0.04554   0.06498
  Beta virt. eigenvalues --    0.14080   0.15703   0.15943   0.20134   0.22920
  Beta virt. eigenvalues --    0.23043   0.24651   0.31281   0.39837   0.40263

 Mulliken charges and spin densities:
               1          2
     1  C   -0.288700  -0.000003
     2  O   -0.563297   0.000003
     3  H    0.215384  -0.000000
     4  H    0.206617   0.000000
     5  H    0.223390   0.000000
     6  H    0.206605   0.000000
 Sum of Mulliken charges =  -0.00000  -0.00000

 Dipole moment (field-independent basis, Debye):
    X=             -4.9353    Y=             -1.5497    Z=              0.0004  Tot=              5.1728
 Quadrupole moment (field-independent basis, Debye-Ang):
   XX=            -13.2387   YY=            -11.4224   ZZ=            -13.8476
   XY=             -2.4502   XZ=              0.0007   YZ=             -0.0007

 Normal termination of Gaussian 16 at Mon Apr 21 18:43:36 2025.
