 Gaussian 16, Revision A.03,
 Gaussian 16:  ES64L-G16RevA.03 25-Dec-2016

 --------------------------------------------
 #p opt UM062X/6-311+G** nosymm int=superfine
 --------------------------------------------

 -------------------
 Title Card Required
 -------------------
 Symbolic Z-matrix:
 Charge =  0 Multiplicity = 1

 SCF Done:  E(UM062X) =  -379.965205862     A.U. after   11 cycles
 SCF Done:  E(UM062X) =  -379.965210519     A.U. after    7 cycles
 Optimization completed.
    -- Stationary point found.

                          Input orientation:
 ---------------------------------------------------------------------
 Center     Atomic      Atomic             Coordinates (Angstroms)
 Number     Number       Type             X           Y           Z
 ---------------------------------------------------------------------
      1          6           0       -0.815377    0.000000    0.000000
      2         15           0        0.815377    0.000000    0.000000
      3          1           0       -1.891574    0.000000    0.000000
 ---------------------------------------------------------------------

 Alpha  occ. eigenvalues --  -78.04528 -10.59679  -6.86916  -4.98361  -4.98361
 Alpha  occ. eigenvalues --   -4.98249  -0.79386  -0.62152  -0.42344  -0.32911
 Alpha  occ. eigenvalues --   -0.32911
 Alpha virt. eigenvalues --   -0.03420  -0.03420   0.01320   0.03173   0.04845
 Alpha virt. eigenvalues --    0.04845   0.07054   0.11200   0.11200   0.13091
 Alpha virt. eigenvalues --    0.16449   0.23054   0.32745   0.32745   0.37705

  Beta  occ. eigenvalues --  -78.04528 -10.59679  -6.86916  -4.98361  -4.98361
  Beta  occ. eigenvalues --   -4.98249  -0.79386  -0.62152  -0.42344  -0.32911
  Beta  occ. eigenvalues --   -0.32911
  Beta virt. eigenvalues --   -0.03420  -0.03420   0.01320   0.03173   0.04845
  Beta virt. eigenvalues --    0.04845   0.07054   0.11200   0.11200   0.13091
  Beta virt. eigenvalues --    0.16449   0.23054   0.32745   0.32745   0.37705

 Mulliken charges and spin densities:
               1          2
     1  C   -0.272415  -0.000000
     2  P    0.084203   0.000000
     3  H    0.188213  -0.000000
 Sum of Mulliken charges =  -0.00000  -0.00000

 Dipole moment (field-independent basis, Debye):
    X=             -0.2797    Y=             -0.0000    Z=              0.0000  Tot=              0.2797
 Quadrupole moment (field-independent basis, Debye-Ang):
   XX=            -15.6021   YY=            -20.4209   ZZ=            -20.4209
   XY=             -0.0000   XZ=             -0.0000   YZ=              0.0000

 Normal termination of Gaussian 16 at Mon Apr 21 19:28:57 2025.
