 Gaussian 16, Revision A.03,
 Gaussian 16:  ES64L-G16RevA.03 25-Dec-2016

 --------------------------------------------
 #p opt UM062X/6-311+G** nosymm int=superfine
 --------------------------------------------

 -------------------
 Title Card Required
 -------------------
 Symbolic Z-matrix:
 Charge =  0 Multiplicity = 3

 SCF Done:  E(UM062X) =  -50.5196104700     A.U. after   13 cycles
 SCF Done:  E(UM062X) =  -50.5206864654     A.U. after    9 cycles
 SCF Done:  E(UM062X) =  -50.5206959333     A.U. after    9 cycles
 Optimization completed.
    -- Stationary point found.

                          Input orientation:
 ---------------------------------------------------------------------
 Center     Atomic      Atomic             Coordinates (Angstroms)
 Number     Number       Type             X           Y           Z
 ---------------------------------------------------------------------
      1          5           0       -1.428410    0.000000    0.000000
      2          5           0        1.428410    0.000000    0.000000
      3          1           0       -2.636805   -0.000082    0.000000
      4          1           0        2.636805    0.000082   -0.000000
 ---------------------------------------------------------------------

 Alpha  occ. eigenvalues --   -7.13413  -7.13411  -0.56573  -0.55685  -0.36402
 Alpha  occ. eigenvalues --   -0.25153  -0.19339
 Alpha virt. eigenvalues --   -0.07315  -0.06985  -0.03813   0.02638   0.02697
 Alpha virt. eigenvalues --    0.05985   0.07162   0.07213   0.08091   0.08119
 Alpha virt. eigenvalues --    0.12274   0.19793   0.23313   0.36847   0.39270

  Beta  occ. eigenvalues --   -7.12462  -7.12460  -0.53015  -0.52507  -0.28137
  Beta virt. eigenvalues --   -0.05090  -0.04707  -0.04574  -0.01477  -0.01109
  Beta virt. eigenvalues --    0.01591   0.02870   0.06728   0.06946   0.07547
  Beta virt. eigenvalues --    0.08853   0.10118   0.10270   0.21230   0.24579

 Mulliken charges and spin densities:
               1          2
     1  B   -0.064520   0.909106
     2  B   -0.064520   0.909106
     3  H    0.064520   0.090894
     4  H    0.064520   0.090894
 Sum of Mulliken charges =  -0.00000   2.00000

 Dipole moment (field-independent basis, Debye):
    X=              0.0000    Y=             -0.0000    Z=              0.0000  Tot=              0.0000
 Quadrupole moment (field-independent basis, Debye-Ang):
   XX=            -11.2331   YY=            -13.3915   ZZ=            -17.4345
   XY=              0.0002   XZ=             -0.0000   YZ=             -0.0065

 1\1\GINC-NODE06\FOpt\UM062X\6-311+G(d,p)\B2H2(3)\SZHAO\21-Apr-2025\0\\
 #p opt UM062X/6-311+G** nosymm int=superfine\\Title Card Required\\0,3
 \B,-1.42841047,0.,0.\B,1.42841047,0.,0.\H,-2.636805009,-0.0000823667,0
 .0000001318\H,2.6368050749,0.0000823629,-0.0000001318\\Version=ES64L-G
 16RevA.03\HF=-50.5206959\S2=2.009599\S2-1=0.\S2A=2.00001\RMSD=3.219e-0
 9\RMSF=2.048e-06\Dipole=0.0000001,0.,0.\Quadrupole=2.0717693,0.4670416
 ,-2.5388109,0.0001263,-0.0000002,-0.0048132\PG=C*V [C*(H1B1B1H1)]\\@

 Normal termination of Gaussian 16 at Mon Apr 21 17:28:28 2025.
