 Gaussian 16, Revision A.03,
 Gaussian 16:  ES64L-G16RevA.03 25-Dec-2016

 --------------------------------------------
 #p opt UM062X/6-311+G** nosymm int=superfine
 --------------------------------------------

 -------------------
 Title Card Required
 -------------------
 Symbolic Z-matrix:
 Charge = -1 Multiplicity = 2

 SCF Done:  E(UM062X) =  -53.2206654505     A.U. after   11 cycles
 SCF Done:  E(UM062X) =  -53.2223781597     A.U. after   10 cycles
 SCF Done:  E(UM062X) =  -53.2227364693     A.U. after   10 cycles
 Optimization completed.
    -- Stationary point found.

                          Input orientation:
 ---------------------------------------------------------------------
 Center     Atomic      Atomic             Coordinates (Angstroms)
 Number     Number       Type             X           Y           Z
 ---------------------------------------------------------------------
      1          5           0       -1.515672    0.000000    0.000000
      2          5           0        1.515672    0.000000    0.000000
      3          1           0        1.632666   -1.194438   -0.000011
      4          1           0       -1.632410   -0.597238    1.034431
      5          1           0        1.632560    0.597254   -1.034406
      6          1           0        1.632362    0.597224    1.034443
      7          1           0       -1.632673    1.194437    0.000002
      8          1           0       -1.632504   -0.597242   -1.034419
 ---------------------------------------------------------------------

 Alpha  occ. eigenvalues --   -6.82575  -6.82573  -0.39181  -0.37038  -0.20568
 Alpha  occ. eigenvalues --   -0.20568  -0.19359  -0.19359  -0.00370
 Alpha virt. eigenvalues --    0.15014   0.17221   0.17604   0.17604   0.18953
 Alpha virt. eigenvalues --    0.18953   0.22252   0.22475   0.22844   0.32968
 Alpha virt. eigenvalues --    0.32968   0.36408   0.36408   0.38910   0.40262

  Beta  occ. eigenvalues --   -6.82527  -6.82526  -0.36943  -0.35525  -0.20222
  Beta  occ. eigenvalues --   -0.20221  -0.19189  -0.19188
  Beta virt. eigenvalues --    0.13594   0.14679   0.16793   0.16793   0.16957
  Beta virt. eigenvalues --    0.18499   0.18499   0.23689   0.24183   0.28420
  Beta virt. eigenvalues --    0.32535   0.32535   0.36383   0.36384   0.39217

 Mulliken charges and spin densities:
               1          2
     1  B   -0.292390   0.602063
     2  B   -0.292390   0.602063
     3  H   -0.069220  -0.034033
     4  H   -0.069193  -0.034014
     5  H   -0.069201  -0.034016
     6  H   -0.069190  -0.034014
     7  H   -0.069220  -0.034033
     8  H   -0.069197  -0.034015
 Sum of Mulliken charges =  -1.00000   1.00000

 Dipole moment (field-independent basis, Debye):
    X=              0.0000    Y=             -0.0000    Z=              0.0000  Tot=              0.0000
 Quadrupole moment (field-independent basis, Debye-Ang):
   XX=            -36.1755   YY=            -24.1051   ZZ=            -24.1050
   XY=              0.0001   XZ=              0.0000   YZ=              0.0000

 Normal termination of Gaussian 16 at Mon Apr 21 16:48:16 2025.
