 Gaussian 16, Revision A.03,
 Gaussian 16:  ES64L-G16RevA.03 25-Dec-2016

 --------------------------------------------
 #p opt UM062X/6-311+G** nosymm int=superfine
 --------------------------------------------

 -------------------
 Title Card Required
 -------------------
 Symbolic Z-matrix:
 Charge =  1 Multiplicity = 2

 SCF Done:  E(UM062X) =  -379.575100107     A.U. after   24 cycles
 SCF Done:  E(UM062X) =  -379.575105648     A.U. after  108 cycles
 Optimization completed.
    -- Stationary point found.

                          Input orientation:
 ---------------------------------------------------------------------
 Center     Atomic      Atomic             Coordinates (Angstroms)
 Number     Number       Type             X           Y           Z
 ---------------------------------------------------------------------
      1          6           0       -0.844427    0.000000    0.000000
      2         15           0        0.844427    0.000000    0.000000
      3          1           0       -1.932209   -0.000000    0.000000
 ---------------------------------------------------------------------

 Alpha  occ. eigenvalues --  -78.38669 -10.92109  -7.20393  -5.32408  -5.31533
 Alpha  occ. eigenvalues --   -5.31482  -1.10554  -0.91167  -0.71827  -0.64192
 Alpha  occ. eigenvalues --   -0.61968
 Alpha virt. eigenvalues --   -0.33355  -0.31450  -0.17099  -0.14490  -0.10443
 Alpha virt. eigenvalues --   -0.10351  -0.10031  -0.08265  -0.05163  -0.04870
 Alpha virt. eigenvalues --   -0.00362   0.04925   0.12838   0.12910   0.15259

  Beta  occ. eigenvalues --  -78.38402 -10.91797  -7.20350  -5.31581  -5.31522
  Beta  occ. eigenvalues --   -5.31477  -1.06321  -0.89641  -0.70758  -0.59929
  Beta virt. eigenvalues --   -0.42727  -0.30086  -0.27104  -0.16433  -0.14870
  Beta virt. eigenvalues --   -0.10397  -0.10172  -0.10086  -0.08049  -0.04883
  Beta virt. eigenvalues --   -0.04779  -0.00962   0.05355   0.10673   0.12695

 Mulliken charges and spin densities:
               1          2
     1  C    0.047523   0.645490
     2  P    0.649432   0.378314
     3  H    0.303045  -0.023804
 Sum of Mulliken charges =   1.00000   1.00000

 Dipole moment (field-independent basis, Debye):
    X=              0.2355    Y=             -0.0000    Z=              0.0000  Tot=              0.2355
 Quadrupole moment (field-independent basis, Debye-Ang):
   XX=             -7.5955   YY=            -16.9597   ZZ=            -14.9513
   XY=              0.0000   XZ=             -0.0000   YZ=              0.7867

 Normal termination of Gaussian 16 at Mon Apr 21 19:23:52 2025.
