 Gaussian 16, Revision A.03,
 Gaussian 16:  ES64L-G16RevA.03 25-Dec-2016

 ----------------------------------------------------------------------
 #p opt UM062X/6-311+G** nosymm int=superfine SCF=(MaxCycle=200,NoVarAc
 c,noincfock) guess=read
 ----------------------------------------------------------------------

 -------------------
 Title Card Required
 -------------------
 Symbolic Z-matrix:
 Charge =  1 Multiplicity = 2

 SCF Done:  E(UM062X) =  -92.6515957420     A.U. after   10 cycles
 SCF Done:  E(UM062X) =  -92.6519704561     A.U. after   11 cycles
 SCF Done:  E(UM062X) =  -92.6519739812     A.U. after  112 cycles
 Optimization completed.
    -- Stationary point found.

                          Input orientation:
 ---------------------------------------------------------------------
 Center     Atomic      Atomic             Coordinates (Angstroms)
 Number     Number       Type             X           Y           Z
 ---------------------------------------------------------------------
      1          6           0       -1.376540    0.000000    0.000000
      2          7           0        1.376540    0.000000    0.000000
      3          1           0       -2.497278   -0.000000    0.000000
 ---------------------------------------------------------------------

 Alpha  occ. eigenvalues --  -15.13950 -11.02036  -1.16781  -0.99527  -0.68665
 Alpha  occ. eigenvalues --   -0.68638  -0.65807
 Alpha virt. eigenvalues --   -0.46019  -0.37181  -0.33450  -0.15620  -0.10164
 Alpha virt. eigenvalues --   -0.09302  -0.08333  -0.04300  -0.01664  -0.01476
 Alpha virt. eigenvalues --    0.00647   0.08336   0.23661   0.30382   0.30458

  Beta  occ. eigenvalues --  -15.10173 -11.04512  -1.08691  -0.95421  -0.78272
  Beta  occ. eigenvalues --   -0.67204
  Beta virt. eigenvalues --   -0.42899  -0.30061  -0.29386  -0.29352  -0.15540
  Beta virt. eigenvalues --   -0.11463  -0.09336  -0.09216  -0.06362  -0.00026
  Beta virt. eigenvalues --    0.00076   0.00087   0.05361   0.23268   0.29759

 Mulliken charges and spin densities:
               1          2
     1  C    0.353142  -1.609023
     2  N    0.285849   2.710013
     3  H    0.361009  -0.100990
 Sum of Mulliken charges =   1.00000   1.00000

 Dipole moment (field-independent basis, Debye):
    X=             -4.7312    Y=             -0.0000    Z=              0.0000  Tot=              4.7312
 Quadrupole moment (field-independent basis, Debye-Ang):
   XX=              6.6716   YY=             -9.7638   ZZ=            -10.2821
   XY=              0.0000   XZ=             -0.0000   YZ=              0.7716

 Normal termination of Gaussian 16 at Mon Apr 21 23:06:25 2025.
