 Gaussian 16, Revision A.03,
 Gaussian 16:  ES64L-G16RevA.03 25-Dec-2016

 ---------------------------------------------------
 #p UM062X/6-311+G** force int=superfine pop=saveNBO
 ---------------------------------------------------

 -------------------
 Title Card Required
 -------------------
 Symbolic Z-matrix:
 Charge =  0 Multiplicity = 1

                         Standard orientation:
 ---------------------------------------------------------------------
 Center     Atomic      Atomic             Coordinates (Angstroms)
 Number     Number       Type             X           Y           Z
 ---------------------------------------------------------------------
      1         15           0        0.000000    0.000000    1.413495
      2         15           0        0.000000    0.000000   -1.413495
 ---------------------------------------------------------------------

 SCF Done:  E(UM062X) =  -682.457536612     A.U. after    9 cycles

 The electronic state is 1-SGG.
 Alpha  occ. eigenvalues --  -78.11445 -78.11445  -6.92984  -6.92981  -5.04317
 Alpha  occ. eigenvalues --   -5.04317  -5.04317  -5.04317  -5.04236  -5.04234
 Alpha  occ. eigenvalues --   -0.66828  -0.60620  -0.31586  -0.27663  -0.27663
 Alpha virt. eigenvalues --   -0.14375  -0.14375  -0.07795   0.02465   0.03586
 Alpha virt. eigenvalues --    0.04568   0.04568   0.06053   0.06652   0.06652
 Alpha virt. eigenvalues --    0.11799   0.29042   0.30357   0.30357   0.33150

  Beta  occ. eigenvalues --  -78.11445 -78.11445  -6.92984  -6.92981  -5.04317
  Beta  occ. eigenvalues --   -5.04317  -5.04317  -5.04317  -5.04236  -5.04234
  Beta  occ. eigenvalues --   -0.66828  -0.60620  -0.31586  -0.27663  -0.27663
  Beta virt. eigenvalues --   -0.14375  -0.14375  -0.07795   0.02465   0.03586
  Beta virt. eigenvalues --    0.04568   0.04568   0.06053   0.06652   0.06652
  Beta virt. eigenvalues --    0.11799   0.29042   0.30357   0.30357   0.33150

 Mulliken charges and spin densities:
               1          2
     1  P    0.000000   0.000000
     2  P    0.000000   0.000000
 Sum of Mulliken charges =   0.00000   0.00000

 Dipole moment (field-independent basis, Debye):
    X=              0.0000    Y=             -0.0000    Z=              0.0000  Tot=              0.0000
 Quadrupole moment (field-independent basis, Debye-Ang):
   XX=            -28.9382   YY=            -28.9382   ZZ=            -25.0508
   XY=              0.0000   XZ=             -0.0000   YZ=              0.0000

 Summary of Natural Population Analysis:

                                       Natural Population
                Natural  -----------------------------------------------
    Atom  No    Charge         Core      Valence    Rydberg      Total
 -----------------------------------------------------------------------
      P    1    0.00000      4.99997     2.49786    0.00217     7.50000
      P    2    0.00000      4.99997     2.49786    0.00217     7.50000
 =======================================================================
   * Total *    0.00000      9.99994     4.99572    0.00433    15.00000

 Normal termination of Gaussian 16 at Mon Apr 21 21:20:50 2025.
