 Gaussian 16, Revision A.03,
 Gaussian 16:  ES64L-G16RevA.03 25-Dec-2016

 --------------------------------------------
 #p opt UM062X/6-311+G** nosymm int=superfine
 --------------------------------------------

 -------------------
 Title Card Required
 -------------------
 Symbolic Z-matrix:
 Charge =  1 Multiplicity = 2

 SCF Done:  E(UM062X) =  -582.165704345     A.U. after    9 cycles
 SCF Done:  E(UM062X) =  -582.165891073     A.U. after    8 cycles
 SCF Done:  E(UM062X) =  -582.165903223     A.U. after    8 cycles
 Optimization completed.
    -- Stationary point found.

                          Input orientation:
 ---------------------------------------------------------------------
 Center     Atomic      Atomic             Coordinates (Angstroms)
 Number     Number       Type             X           Y           Z
 ---------------------------------------------------------------------
      1         14           0       -1.651292    0.000000    0.000000
      2         14           0        1.651292    0.000000    0.000000
      3          1           0        1.818070   -1.455581    0.000010
      4          1           0       -1.817838   -0.727688    1.260650
      5          1           0        1.818332    0.727822   -1.260505
      6          1           0        1.817689    0.727779    1.260617
      7          1           0       -1.818095    1.455578   -0.000096
      8          1           0       -1.818158   -0.727920   -1.260472
 ---------------------------------------------------------------------

 Alpha  occ. eigenvalues --  -67.23717 -67.23717  -5.78563  -5.78563  -4.10254
 Alpha  occ. eigenvalues --   -4.10253  -4.09441  -4.09441  -4.09441  -4.09441
 Alpha  occ. eigenvalues --   -0.83608  -0.81333  -0.63141  -0.63141  -0.62268
 Alpha  occ. eigenvalues --   -0.62268  -0.47937
 Alpha virt. eigenvalues --   -0.25640  -0.14748  -0.11880  -0.11380  -0.11379
 Alpha virt. eigenvalues --   -0.10251  -0.10251  -0.09868  -0.08565  -0.08564
 Alpha virt. eigenvalues --   -0.07692  -0.06459  -0.06458  -0.03757   0.00783

  Beta  occ. eigenvalues --  -67.23456 -67.23456  -5.78492  -5.78491  -4.09613
  Beta  occ. eigenvalues --   -4.09613  -4.09353  -4.09353  -4.09353  -4.09353
  Beta  occ. eigenvalues --   -0.81215  -0.79865  -0.62799  -0.62799  -0.62050
  Beta  occ. eigenvalues --   -0.62049
  Beta virt. eigenvalues --   -0.29964  -0.20588  -0.14627  -0.11651  -0.11650
  Beta virt. eigenvalues --   -0.10908  -0.10413  -0.10413  -0.09648  -0.07924
  Beta virt. eigenvalues --   -0.07924  -0.06238  -0.06238  -0.06119  -0.03352

 Mulliken charges and spin densities:
               1          2
     1  Si   0.499967   0.551580
     2  Si   0.499967   0.551580
     3  H    0.000015  -0.017193
     4  H    0.000005  -0.017191
     5  H    0.000017  -0.017200
     6  H   -0.000000  -0.017187
     7  H    0.000016  -0.017194
     8  H    0.000012  -0.017195
 Sum of Mulliken charges =   1.00000   1.00000

 Dipole moment (field-independent basis, Debye):
    X=              0.0000    Y=              0.0000    Z=             -0.0000  Tot=              0.0000
 Quadrupole moment (field-independent basis, Debye-Ang):
   XX=             -8.0218   YY=            -25.8892   ZZ=            -25.8894
   XY=             -0.0001   XZ=              0.0000   YZ=              0.0000

 Normal termination of Gaussian 16 at Mon Apr 21 20:14:21 2025.
