 Gaussian 16, Revision A.03,
 Gaussian 16:  ES64L-G16RevA.03 25-Dec-2016

 --------------------------------------------
 #p opt UM062X/6-311+G** nosymm int=superfine
 --------------------------------------------

 -------------------
 Title Card Required
 -------------------
 Symbolic Z-matrix:
 Charge =  0 Multiplicity = 1

 SCF Done:  E(UM062X) =  -797.510487992     A.U. after   12 cycles
 SCF Done:  E(UM062X) =  -797.511968012     A.U. after   11 cycles
 SCF Done:  E(UM062X) =  -797.512047404     A.U. after   13 cycles
 SCF Done:  E(UM062X) =  -797.512209677     A.U. after   12 cycles
 SCF Done:  E(UM062X) =  -797.512213953     A.U. after   10 cycles
 SCF Done:  E(UM062X) =  -797.512214227     A.U. after   10 cycles
 Optimization completed.
    -- Stationary point found.

                          Input orientation:
 ---------------------------------------------------------------------
 Center     Atomic      Atomic             Coordinates (Angstroms)
 Number     Number       Type             X           Y           Z
 ---------------------------------------------------------------------
      1         16           0       -1.318191    0.000000    0.000000
      2         16           0        1.318191    0.000000    0.000000
      3          1           0       -1.333652   -1.343073   -0.051489
      4          1           0        1.333720    0.089666    1.341013
 ---------------------------------------------------------------------

 Alpha  occ. eigenvalues --  -89.94166 -89.94166  -8.30341  -8.30339  -6.22494
 Alpha  occ. eigenvalues --   -6.22493  -6.22236  -6.22236  -6.21703  -6.21702
 Alpha  occ. eigenvalues --   -0.84058  -0.78955  -0.47952  -0.47184  -0.38094
 Alpha  occ. eigenvalues --   -0.33310  -0.32866
 Alpha virt. eigenvalues --   -0.12036   0.01799   0.03328   0.04797   0.05055
 Alpha virt. eigenvalues --    0.06104   0.07483   0.07526   0.07651   0.12143
 Alpha virt. eigenvalues --    0.13421   0.30954   0.31106   0.32367   0.34890

  Beta  occ. eigenvalues --  -89.94166 -89.94166  -8.30341  -8.30339  -6.22494
  Beta  occ. eigenvalues --   -6.22493  -6.22236  -6.22236  -6.21703  -6.21702
  Beta  occ. eigenvalues --   -0.84058  -0.78955  -0.47952  -0.47184  -0.38094
  Beta  occ. eigenvalues --   -0.33310  -0.32866
  Beta virt. eigenvalues --   -0.12036   0.01799   0.03328   0.04797   0.05055
  Beta virt. eigenvalues --    0.06104   0.07483   0.07526   0.07651   0.12143
  Beta virt. eigenvalues --    0.13421   0.30954   0.31106   0.32367   0.34890

 Mulliken charges and spin densities:
               1          2
     1  S   -0.089855  -0.000000
     2  S   -0.089873   0.000000
     3  H    0.089867   0.000000
     4  H    0.089861  -0.000000
 Sum of Mulliken charges =  -0.00000  -0.00000

 Dipole moment (field-independent basis, Debye):
    X=             -0.0001    Y=             -0.9862    Z=              1.0147  Tot=              1.4150
 Quadrupole moment (field-independent basis, Debye-Ang):
   XX=            -25.9911   YY=            -27.7180   ZZ=            -27.7429
   XY=              1.8934   XZ=              1.8405   YZ=              0.4356

 Normal termination of Gaussian 16 at Mon Apr 21 21:10:53 2025.
