 Gaussian 16, Revision A.03,
 Gaussian 16:  ES64L-G16RevA.03 25-Dec-2016

 --------------------------------------------
 #p opt UM062X/6-311+G** nosymm int=superfine
 --------------------------------------------

 -------------------
 Title Card Required
 -------------------
 Symbolic Z-matrix:
 Charge = -1 Multiplicity = 2

 SCF Done:  E(UM062X) =  -53.2163046819     A.U. after   11 cycles
 SCF Done:  E(UM062X) =  -53.2185685237     A.U. after   10 cycles
 SCF Done:  E(UM062X) =  -53.2190540130     A.U. after   10 cycles
 Optimization completed.
    -- Stationary point found.

                          Input orientation:
 ---------------------------------------------------------------------
 Center     Atomic      Atomic             Coordinates (Angstroms)
 Number     Number       Type             X           Y           Z
 ---------------------------------------------------------------------
      1          5           0       -1.615672    0.000000    0.000000
      2          5           0        1.615672    0.000000    0.000000
      3          1           0        1.718820   -1.195217   -0.000013
      4          1           0       -1.718405   -0.597639    1.035112
      5          1           0        1.718557    0.597656   -1.035088
      6          1           0        1.718351    0.597626    1.035124
      7          1           0       -1.718828    1.195217    0.000001
      8          1           0       -1.718496   -0.597644   -1.035101
 ---------------------------------------------------------------------

 Alpha  occ. eigenvalues --   -6.83033  -6.83032  -0.39239  -0.37627  -0.20774
 Alpha  occ. eigenvalues --   -0.20774  -0.19883  -0.19883   0.00076
 Alpha virt. eigenvalues --    0.14376   0.17193   0.17653   0.17653   0.18827
 Alpha virt. eigenvalues --    0.18827   0.21479   0.22722   0.22765   0.32958
 Alpha virt. eigenvalues --    0.32959   0.36009   0.36010   0.38734   0.39879

  Beta  occ. eigenvalues --   -6.82990  -6.82989  -0.37146  -0.36108  -0.20484
  Beta  occ. eigenvalues --   -0.20484  -0.19720  -0.19720
  Beta virt. eigenvalues --    0.13395   0.14458   0.16296   0.16482   0.16482
  Beta virt. eigenvalues --    0.18389   0.18390   0.23298   0.23881   0.27398
  Beta virt. eigenvalues --    0.32327   0.32328   0.35818   0.35819   0.38834

 Mulliken charges and spin densities:
               1          2
     1  B   -0.303372   0.594469
     2  B   -0.303372   0.594468
     3  H   -0.065581  -0.031521
     4  H   -0.065522  -0.031474
     5  H   -0.065529  -0.031474
     6  H   -0.065519  -0.031474
     7  H   -0.065581  -0.031521
     8  H   -0.065526  -0.031474
 Sum of Mulliken charges =  -1.00000   1.00000

 Dipole moment (field-independent basis, Debye):
    X=              0.0000    Y=             -0.0000    Z=              0.0001  Tot=              0.0001
 Quadrupole moment (field-independent basis, Debye-Ang):
   XX=            -37.4833   YY=            -24.1524   ZZ=            -24.1521
   XY=              0.0002   XZ=              0.0000   YZ=              0.0000

 Normal termination of Gaussian 16 at Mon Apr 21 16:53:29 2025.
