 Gaussian 16, Revision A.03,
 Gaussian 16:  ES64L-G16RevA.03 25-Dec-2016

 --------------------------------------------
 #p opt UM062X/6-311+G** nosymm int=superfine
 --------------------------------------------

 -------------------
 Title Card Required
 -------------------
 Symbolic Z-matrix:
 Charge =  0 Multiplicity = 3

 SCF Done:  E(UM062X) =  -50.6784745946     A.U. after   10 cycles
 SCF Done:  E(UM062X) =  -50.6784785441     A.U. after    7 cycles
 Optimization completed.
    -- Stationary point found.

                          Input orientation:
 ---------------------------------------------------------------------
 Center     Atomic      Atomic             Coordinates (Angstroms)
 Number     Number       Type             X           Y           Z
 ---------------------------------------------------------------------
      1          5           0       -0.978410    0.000000    0.000000
      2          5           0        0.978410    0.000000    0.000000
      3          1           0       -2.153019   -0.000080    0.000000
      4          1           0        2.153019    0.000080   -0.000000
 ---------------------------------------------------------------------

 Alpha  occ. eigenvalues --   -7.11939  -7.11913  -0.59109  -0.54517  -0.41914
 Alpha  occ. eigenvalues --   -0.24418  -0.24418
 Alpha virt. eigenvalues --   -0.02611  -0.02611   0.01779   0.02475   0.05123
 Alpha virt. eigenvalues --    0.06018   0.06018   0.07272   0.07879   0.07879
 Alpha virt. eigenvalues --    0.13815   0.22267   0.27279   0.36982   0.39526

  Beta  occ. eigenvalues --   -7.11699  -7.11672  -0.54737  -0.52644  -0.40277
  Beta virt. eigenvalues --   -0.06592  -0.06592   0.00846   0.01186   0.01186
  Beta virt. eigenvalues --    0.02981   0.05365   0.07141   0.09202   0.09202
  Beta virt. eigenvalues --    0.12403   0.12403   0.14878   0.23447   0.30552

 Mulliken charges and spin densities:
               1          2
     1  B   -0.095182   1.034056
     2  B   -0.095182   1.034056
     3  H    0.095182  -0.034056
     4  H    0.095182  -0.034056
 Sum of Mulliken charges =  -0.00000   2.00000

 Dipole moment (field-independent basis, Debye):
    X=              0.0000    Y=              0.0000    Z=              0.0000  Tot=              0.0000
 Quadrupole moment (field-independent basis, Debye-Ang):
   XX=            -11.3829   YY=            -15.5598   ZZ=            -15.5598
   XY=              0.0001   XZ=             -0.0000   YZ=             -0.0000

 1\1\GINC-NODE06\FOpt\UM062X\6-311+G(d,p)\B2H2(3)\SZHAO\21-Apr-2025\0\\
 #p opt UM062X/6-311+G** nosymm int=superfine\\Title Card Required\\0,3
 \B,-0.97841047,0.,0.\B,0.97841047,0.,0.\H,-2.1530191688,-0.0000803884,
 0.0000000249\H,2.1530191688,0.0000803884,-0.0000000001\\Version=ES64L-
 G16RevA.03\HF=-50.6784785\S2=2.007331\S2-1=0.\S2A=2.000018\RMSD=4.312e
 -09\RMSF=1.335e-05\Dipole=0.,0.,0.\Quadrupole=2.0703119,-1.0351559,-1.
 0351559,0.0000867,0.,0.\PG=C*V [C*(H1B1B1H1)]\\@

 Normal termination of Gaussian 16 at Mon Apr 21 17:27:39 2025.
