 Gaussian 16, Revision A.03,
 Gaussian 16:  ES64L-G16RevA.03 25-Dec-2016

 --------------------------------------------
 #p opt UM062X/6-311+G** nosymm int=superfine
 --------------------------------------------

 -------------------
 Title Card Required
 -------------------
 Symbolic Z-matrix:
 Charge =  0 Multiplicity = 1

 SCF Done:  E(UM062X) =  -438.477901392     A.U. after   13 cycles
 SCF Done:  E(UM062X) =  -438.491607921     A.U. after   11 cycles
 SCF Done:  E(UM062X) =  -438.498772082     A.U. after   12 cycles
 SCF Done:  E(UM062X) =  -438.498847522     A.U. after   11 cycles
 SCF Done:  E(UM062X) =  -438.498866860     A.U. after   11 cycles
 SCF Done:  E(UM062X) =  -438.498907204     A.U. after   12 cycles
 SCF Done:  E(UM062X) =  -438.498911890     A.U. after   11 cycles
 SCF Done:  E(UM062X) =  -438.498912554     A.U. after    9 cycles
 SCF Done:  E(UM062X) =  -438.498912743     A.U. after   10 cycles
 SCF Done:  E(UM062X) =  -438.498913090     A.U. after   11 cycles
 SCF Done:  E(UM062X) =  -438.498822285     A.U. after   13 cycles
 SCF Done:  E(UM062X) =  -438.498790188     A.U. after   20 cycles
 SCF Done:  E(UM062X) =  -438.498693648     A.U. after   14 cycles
 SCF Done:  E(UM062X) =  -438.498914360     A.U. after   13 cycles
 SCF Done:  E(UM062X) =  -438.498896145     A.U. after   13 cycles
 SCF Done:  E(UM062X) =  -438.498914642     A.U. after   14 cycles
 SCF Done:  E(UM062X) =  -438.498914728     A.U. after   12 cycles
 SCF Done:  E(UM062X) =  -438.498914745     A.U. after   13 cycles
 SCF Done:  E(UM062X) =  -438.498914751     A.U. after   16 cycles
 SCF Done:  E(UM062X) =  -438.498914755     A.U. after   10 cycles
 Optimization completed.
    -- Stationary point found.

                          Input orientation:
 ---------------------------------------------------------------------
 Center     Atomic      Atomic             Coordinates (Angstroms)
 Number     Number       Type             X           Y           Z
 ---------------------------------------------------------------------
      1          6           0       -2.010220    0.000000    0.000000
      2         16           0        2.010220    0.000000    0.000000
      3          1           0        1.967487   -1.342370   -0.068595
      4          1           0       -1.993502    1.080901    0.014290
      5          1           0       -2.047304   -0.525896   -0.943900
      6          1           0       -2.045130   -0.550840    0.929648
 ---------------------------------------------------------------------

 Alpha  occ. eigenvalues --  -89.87559 -10.65128  -8.23867  -6.15909  -6.15848
 Alpha  occ. eigenvalues --   -6.15297  -0.83485  -0.75418  -0.55543  -0.55467
 Alpha  occ. eigenvalues --   -0.41962  -0.27905  -0.26480
 Alpha virt. eigenvalues --   -0.16527   0.00954   0.03689   0.04061   0.05571
 Alpha virt. eigenvalues --    0.07508   0.08423   0.08443   0.10728   0.13450
 Alpha virt. eigenvalues --    0.15489   0.15648   0.20490   0.34560   0.35451

  Beta  occ. eigenvalues --  -89.87559 -10.65128  -8.23867  -6.15909  -6.15848
  Beta  occ. eigenvalues --   -6.15297  -0.83485  -0.75418  -0.55543  -0.55467
  Beta  occ. eigenvalues --   -0.41962  -0.27905  -0.26480
  Beta virt. eigenvalues --   -0.16527   0.00954   0.03689   0.04061   0.05571
  Beta virt. eigenvalues --    0.07508   0.08423   0.08443   0.10728   0.13450
  Beta virt. eigenvalues --    0.15489   0.15648   0.20490   0.34560   0.35451

 Mulliken charges and spin densities:
               1          2
     1  C   -0.377087   0.000001
     2  S   -0.293412  -0.000001
     3  H    0.050471   0.000000
     4  H    0.208567  -0.000000
     5  H    0.205572  -0.000000
     6  H    0.205889  -0.000000
 Sum of Mulliken charges =  -0.00000   0.00000

 Dipole moment (field-independent basis, Debye):
    X=             -5.1864    Y=             -0.9538    Z=             -0.0487  Tot=              5.2736
 Quadrupole moment (field-independent basis, Debye-Ang):
   XX=            -20.8958   YY=            -19.6355   ZZ=            -23.6662
   XY=             -1.9612   XZ=             -0.1006   YZ=              0.2063

 Normal termination of Gaussian 16 at Mon Apr 21 19:43:55 2025.
