 Gaussian 16, Revision A.03,
 Gaussian 16:  ES64L-G16RevA.03 25-Dec-2016

 ---------------------------------------
 #p UM062X/6-311+G** force int=superfine
 ---------------------------------------

 -------------------
 Title Card Required
 -------------------
 Symbolic Z-matrix:
 Charge =  0 Multiplicity = 1

                         Standard orientation:
 ---------------------------------------------------------------------
 Center     Atomic      Atomic             Coordinates (Angstroms)
 Number     Number       Type             X           Y           Z
 ---------------------------------------------------------------------
      1          7           0        0.000000    0.000000    0.570048
      2          7           0        0.000000    0.000000   -0.570048
 ---------------------------------------------------------------------

 SCF Done:  E(UM062X) =  -109.515372890     A.U. after    9 cycles

 The electronic state is 1-SGG.
 Alpha  occ. eigenvalues --  -14.87266 -14.87088  -1.22255  -0.65792  -0.52797
 Alpha  occ. eigenvalues --   -0.52797  -0.51201
 Alpha virt. eigenvalues --    0.00401   0.00401   0.08356   0.08796   0.10424
 Alpha virt. eigenvalues --    0.10424   0.15577   0.17986   0.17986   0.26941
 Alpha virt. eigenvalues --    0.52251   0.71731   0.75850   0.75850   0.85927

  Beta  occ. eigenvalues --  -14.87266 -14.87088  -1.22255  -0.65792  -0.52797
  Beta  occ. eigenvalues --   -0.52797  -0.51201
  Beta virt. eigenvalues --    0.00401   0.00401   0.08356   0.08796   0.10424
  Beta virt. eigenvalues --    0.10424   0.15577   0.17986   0.17986   0.26941
  Beta virt. eigenvalues --    0.52251   0.71731   0.75850   0.75850   0.85927

 Mulliken charges and spin densities:
               1          2
     1  N    0.000000   0.000000
     2  N    0.000000   0.000000
 Sum of Mulliken charges =   0.00000   0.00000

 Dipole moment (field-independent basis, Debye):
    X=              0.0000    Y=              0.0000    Z=             -0.0000  Tot=              0.0000
 Quadrupole moment (field-independent basis, Debye-Ang):
   XX=            -10.4631   YY=            -10.4631   ZZ=            -11.9712
   XY=              0.0000   XZ=              0.0000   YZ=             -0.0000

 Optimization completed.
    -- Stationary point found.
 Normal termination of Gaussian 16 at Wed Feb 26 13:45:17 2025.
