 Gaussian 16, Revision A.03,
 Gaussian 16:  ES64L-G16RevA.03 25-Dec-2016

 --------------------------------------------
 #p opt UM062X/6-311+G** nosymm int=superfine
 --------------------------------------------

 -------------------
 Title Card Required
 -------------------
 Symbolic Z-matrix:
 Charge =  0 Multiplicity = 1

 SCF Done:  E(UM062X) =  -684.902842054     A.U. after   11 cycles
 SCF Done:  E(UM062X) =  -684.903325459     A.U. after   10 cycles
 SCF Done:  E(UM062X) =  -684.903525833     A.U. after   10 cycles
 SCF Done:  E(UM062X) =  -684.903963455     A.U. after   14 cycles
 SCF Done:  E(UM062X) =  -684.904208045     A.U. after   11 cycles
 SCF Done:  E(UM062X) =  -684.904289906     A.U. after   11 cycles
 SCF Done:  E(UM062X) =  -684.904308670     A.U. after   11 cycles
 SCF Done:  E(UM062X) =  -684.904317500     A.U. after   11 cycles
 SCF Done:  E(UM062X) =  -684.904309798     A.U. after   12 cycles
 SCF Done:  E(UM062X) =  -684.904346129     A.U. after   12 cycles
 SCF Done:  E(UM062X) =  -684.904488104     A.U. after   12 cycles
 SCF Done:  E(UM062X) =  -684.904485829     A.U. after   12 cycles
 SCF Done:  E(UM062X) =  -684.904490706     A.U. after   10 cycles
 SCF Done:  E(UM062X) =  -684.904488599     A.U. after   11 cycles
 SCF Done:  E(UM062X) =  -684.904490021     A.U. after   10 cycles
 SCF Done:  E(UM062X) =  -684.904490643     A.U. after   10 cycles
 SCF Done:  E(UM062X) =  -684.904490771     A.U. after   11 cycles
 SCF Done:  E(UM062X) =  -684.904491049     A.U. after   10 cycles
 SCF Done:  E(UM062X) =  -684.904491117     A.U. after   10 cycles
 SCF Done:  E(UM062X) =  -684.904491145     A.U. after   10 cycles
 Optimization completed.
    -- Stationary point found.

                          Input orientation:
 ---------------------------------------------------------------------
 Center     Atomic      Atomic             Coordinates (Angstroms)
 Number     Number       Type             X           Y           Z
 ---------------------------------------------------------------------
      1         15           0       -2.492217    0.000000    0.000000
      2         15           0        2.492217    0.000000    0.000000
      3          1           0        2.379620   -0.856586    1.125626
      4          1           0       -2.380733    0.898167    1.092935
      5          1           0        2.376447   -1.091345   -0.899393
      6          1           0       -2.371887    1.056382   -0.939532
 ---------------------------------------------------------------------

 Alpha  occ. eigenvalues --  -78.04903 -78.04902  -6.87331  -6.87330  -4.98873
 Alpha  occ. eigenvalues --   -4.98872  -4.98756  -4.98756  -4.98574  -4.98574
 Alpha  occ. eigenvalues --   -0.71166  -0.70984  -0.45133  -0.45082  -0.36266
 Alpha  occ. eigenvalues --   -0.36218  -0.23453
 Alpha virt. eigenvalues --   -0.16080   0.01490   0.02817   0.03188   0.04001
 Alpha virt. eigenvalues --    0.04824   0.05806   0.05994   0.06070   0.06075
 Alpha virt. eigenvalues --    0.07826   0.12424   0.18068   0.29241   0.29935

  Beta  occ. eigenvalues --  -78.04903 -78.04902  -6.87331  -6.87330  -4.98873
  Beta  occ. eigenvalues --   -4.98872  -4.98756  -4.98756  -4.98574  -4.98574
  Beta  occ. eigenvalues --   -0.71166  -0.70984  -0.45133  -0.45082  -0.36266
  Beta  occ. eigenvalues --   -0.36218  -0.23453
  Beta virt. eigenvalues --   -0.16080   0.01490   0.02817   0.03188   0.04001
  Beta virt. eigenvalues --    0.04824   0.05806   0.05994   0.06070   0.06075
  Beta virt. eigenvalues --    0.07826   0.12424   0.18068   0.29241   0.29935

 Mulliken charges and spin densities:
               1          2
     1  P    0.012541  -0.000000
     2  P    0.012393   0.000000
     3  H   -0.006642  -0.000000
     4  H   -0.006654   0.000000
     5  H   -0.005830  -0.000000
     6  H   -0.005808   0.000000
 Sum of Mulliken charges =  -0.00000   0.00000

 Dipole moment (field-independent basis, Debye):
    X=              0.0009    Y=              0.0036    Z=              0.1733  Tot=              0.1733
 Quadrupole moment (field-independent basis, Debye-Ang):
   XX=            -29.3591   YY=            -31.2300   ZZ=            -28.5390
   XY=             -4.8127   XZ=              0.0869   YZ=              0.0504

 Normal termination of Gaussian 16 at Mon Apr 21 21:04:43 2025.
