 Gaussian 16, Revision A.03,
 Gaussian 16:  ES64L-G16RevA.03 25-Dec-2016

 --------------------------------------------
 #p opt UM062X/6-311+G** nosymm int=superfine
 --------------------------------------------

 -------------------
 Title Card Required
 -------------------
 Symbolic Z-matrix:
 Charge =  1 Multiplicity = 2

 SCF Done:  E(UM062X) =  -582.147588019     A.U. after   11 cycles
 SCF Done:  E(UM062X) =  -582.148164678     A.U. after    9 cycles
 SCF Done:  E(UM062X) =  -582.148260657     A.U. after    8 cycles
 Optimization completed.
    -- Stationary point found.

                          Input orientation:
 ---------------------------------------------------------------------
 Center     Atomic      Atomic             Coordinates (Angstroms)
 Number     Number       Type             X           Y           Z
 ---------------------------------------------------------------------
      1         14           0       -2.026292    0.000000    0.000000
      2         14           0        2.026292    0.000000    0.000000
      3          1           0        2.159947   -1.458679   -0.000003
      4          1           0       -2.159482   -0.729231    1.263364
      5          1           0        2.159997    0.729379   -1.263222
      6          1           0        2.159292    0.729321    1.263333
      7          1           0       -2.159973    1.458677   -0.000116
      8          1           0       -2.159782   -0.729474   -1.263191
 ---------------------------------------------------------------------

 Alpha  occ. eigenvalues --  -67.23059 -67.23059  -5.77885  -5.77883  -4.09563
 Alpha  occ. eigenvalues --   -4.09562  -4.08756  -4.08756  -4.08756  -4.08756
 Alpha  occ. eigenvalues --   -0.81792  -0.81041  -0.61991  -0.61991  -0.61754
 Alpha  occ. eigenvalues --   -0.61753  -0.42991
 Alpha virt. eigenvalues --   -0.28779  -0.13007  -0.11998  -0.10308  -0.10308
 Alpha virt. eigenvalues --   -0.09927  -0.09034  -0.09034  -0.07818  -0.07763
 Alpha virt. eigenvalues --   -0.07763  -0.06309  -0.06308  -0.04455   0.00805

  Beta  occ. eigenvalues --  -67.22798 -67.22798  -5.77808  -5.77805  -4.08948
  Beta  occ. eigenvalues --   -4.08948  -4.08667  -4.08667  -4.08667  -4.08667
  Beta  occ. eigenvalues --   -0.79941  -0.79502  -0.61826  -0.61826  -0.61588
  Beta  occ. eigenvalues --   -0.61588
  Beta virt. eigenvalues --   -0.30684  -0.22537  -0.14421  -0.12658  -0.12656
  Beta virt. eigenvalues --   -0.11010  -0.10609  -0.09477  -0.09476  -0.07324
  Beta virt. eigenvalues --   -0.07324  -0.07046  -0.05993  -0.05992  -0.05045

 Mulliken charges and spin densities:
               1          2
     1  Si   0.496772   0.549275
     2  Si   0.496772   0.549274
     3  H    0.001068  -0.016445
     4  H    0.001076  -0.016415
     5  H    0.001088  -0.016416
     6  H    0.001072  -0.016413
     7  H    0.001069  -0.016445
     8  H    0.001083  -0.016415
 Sum of Mulliken charges =   1.00000   1.00000

 Dipole moment (field-independent basis, Debye):
    X=              0.0000    Y=             -0.0000    Z=              0.0000  Tot=              0.0000
 Quadrupole moment (field-independent basis, Debye-Ang):
   XX=             -0.7473   YY=            -26.1420   ZZ=            -26.1418
   XY=              0.0004   XZ=              0.0001   YZ=              0.0000

 Normal termination of Gaussian 16 at Mon Apr 21 20:15:59 2025.
