 Gaussian 16, Revision A.03,
 Gaussian 16:  ES64L-G16RevA.03 25-Dec-2016

 ---------------------------------------
 #p UM062X/6-311+G** force int=superfine
 ---------------------------------------

 -------------------
 Title Card Required
 -------------------
 Symbolic Z-matrix:
 Charge =  1 Multiplicity = 2

                         Standard orientation:
 ---------------------------------------------------------------------
 Center     Atomic      Atomic             Coordinates (Angstroms)
 Number     Number       Type             X           Y           Z
 ---------------------------------------------------------------------
      1          7           0        0.000000    0.000000    2.055391
      2          7           0        0.000000    0.000000   -2.055391
 ---------------------------------------------------------------------

 SCF Done:  E(UM062X) =  -108.319311147     A.U. after   10 cycles

 Unable to determine electronic state:  partially filled degenerate orbitals.
 Alpha  occ. eigenvalues --  -15.29480 -15.29478  -1.18298  -1.17984  -0.63626
 Alpha  occ. eigenvalues --   -0.61519  -0.60997
 Alpha virt. eigenvalues --   -0.56713  -0.54078  -0.53735  -0.12839  -0.07902
 Alpha virt. eigenvalues --   -0.07122  -0.06939  -0.04671  -0.02983  -0.02796
 Alpha virt. eigenvalues --    0.03149   0.52257   0.53463   0.53550   0.53750

  Beta  occ. eigenvalues --  -15.28992 -15.28990  -1.14566  -1.14306  -0.59760
  Beta  occ. eigenvalues --   -0.59219
  Beta virt. eigenvalues --   -0.52293  -0.51889  -0.42542  -0.42409  -0.13483
  Beta virt. eigenvalues --   -0.08764  -0.07186  -0.06941  -0.04848  -0.03265
  Beta virt. eigenvalues --   -0.02992   0.02318   0.53271   0.53616   0.53951

 Mulliken charges and spin densities:
               1          2
     1  N    0.500000   0.500000
     2  N    0.500000   0.500000
 Sum of Mulliken charges =   1.00000   1.00000

 Dipole moment (field-independent basis, Debye):
    X=              0.0000    Y=              0.0000    Z=              0.0000  Tot=              0.0000
 Quadrupole moment (field-independent basis, Debye-Ang):
   XX=             -9.9876   YY=             -8.5496   ZZ=             11.4438
   XY=             -0.0000   XZ=             -0.0000   YZ=             -0.0000

 Optimization completed.
    -- Stationary point found.
 Normal termination of Gaussian 16 at Wed Feb 26 14:00:46 2025.
