 Gaussian 16, Revision A.03,
 Gaussian 16:  ES64L-G16RevA.03 25-Dec-2016

 ---------------------------------------
 #p UM062X/6-311+G** force int=superfine
 ---------------------------------------

 -------------------
 Title Card Required
 -------------------
 Symbolic Z-matrix:
 Charge =  1 Multiplicity = 2

                         Standard orientation:
 ---------------------------------------------------------------------
 Center     Atomic      Atomic             Coordinates (Angstroms)
 Number     Number       Type             X           Y           Z
 ---------------------------------------------------------------------
      1          6           0        0.702534    0.871535   -1.671359
      2          6           0       -0.702536   -0.871530    1.671360
      3          1           0       -1.623068   -1.148785    1.171504
      4          1           0        0.642653   -0.064393   -2.214085
      5          1           0       -0.642798    0.063890    2.214981
      6          1           0        0.131643   -1.562799    1.691054
      7          1           0        1.622996    1.148997   -1.171490
      8          1           0       -0.131410    1.563062   -1.691972
 ---------------------------------------------------------------------

 SCF Done:  E(UM062X) =  -79.3173306650     A.U. after   10 cycles

 The electronic state is 2-A.
 Alpha  occ. eigenvalues --  -10.83427 -10.83426  -1.02000  -1.01693  -0.73064
 Alpha  occ. eigenvalues --   -0.73064  -0.72964  -0.72964  -0.47245
 Alpha virt. eigenvalues --   -0.37661  -0.12677  -0.10141  -0.09362  -0.09362
 Alpha virt. eigenvalues --   -0.06214  -0.06214  -0.04389  -0.02868   0.00043
 Alpha virt. eigenvalues --    0.00046   0.01393   0.01395   0.02608   0.08796

  Beta  occ. eigenvalues --  -10.83206 -10.83206  -0.99344  -0.99158  -0.72538
  Beta  occ. eigenvalues --   -0.72538  -0.72422  -0.72421
  Beta virt. eigenvalues --   -0.32430  -0.26663  -0.16738  -0.10796  -0.10795
  Beta virt. eigenvalues --   -0.10228  -0.06197  -0.06197  -0.05341  -0.01913
  Beta virt. eigenvalues --   -0.00169  -0.00166   0.01651   0.01654   0.02397

 Mulliken charges and spin densities:
               1          2
     1  C   -0.247940   0.557253
     2  C   -0.247940   0.557253
     3  H    0.249334  -0.019080
     4  H    0.249288  -0.019090
     5  H    0.249309  -0.019092
     6  H    0.249296  -0.019081
     7  H    0.249335  -0.019080
     8  H    0.249316  -0.019083
 Sum of Mulliken charges =   1.00000   1.00000

 Dipole moment (field-independent basis, Debye):
    X=              0.0000    Y=             -0.0001    Z=             -0.0000  Tot=              0.0001
 Quadrupole moment (field-independent basis, Debye-Ang):
   XX=             -8.7820   YY=             -7.5253   ZZ=              2.0872
   XY=              2.8955   XZ=             -5.5519   YZ=             -6.8860

 Normal termination of Gaussian 16 at Tue Nov 19 08:44:39 2024.
