 Gaussian 16, Revision A.03,
 Gaussian 16:  ES64L-G16RevA.03 25-Dec-2016

 --------------------------------------------
 #p opt UM062X/6-311+G** nosymm int=superfine
 --------------------------------------------

 -------------------
 Title Card Required
 -------------------
 Symbolic Z-matrix:
 Charge =  1 Multiplicity = 2

 SCF Done:  E(UM062X) =  -77.7000646995     A.U. after    9 cycles
 SCF Done:  E(UM062X) =  -77.7558277065     A.U. after   10 cycles
 SCF Done:  E(UM062X) =  -77.8047656772     A.U. after   10 cycles
 SCF Done:  E(UM062X) =  -77.8191356963     A.U. after    9 cycles
 SCF Done:  E(UM062X) =  -77.8228710065     A.U. after    9 cycles
 SCF Done:  E(UM062X) =  -77.8230512013     A.U. after    8 cycles
 SCF Done:  E(UM062X) =  -77.8230621528     A.U. after    8 cycles
 Optimization completed.
    -- Stationary point found.

                          Input orientation:
 ---------------------------------------------------------------------
 Center     Atomic      Atomic             Coordinates (Angstroms)
 Number     Number       Type             X           Y           Z
 ---------------------------------------------------------------------
      1          6           0       -0.473618    0.000000    0.000000
      2          6           0        0.473618    0.000000    0.000000
      3          1           0       -1.263868   -0.813115   -0.000000
      4          1           0       -1.257651    0.821083    0.000000
      5          1           0        1.263868    0.813115   -0.000000
      6          1           0        1.257651   -0.821083    0.000000
 ---------------------------------------------------------------------

 Alpha  occ. eigenvalues --  -10.81162 -10.79070  -1.25064  -0.96640  -0.88046
 Alpha  occ. eigenvalues --   -0.87936  -0.73323  -0.64202
 Alpha virt. eigenvalues --   -0.17661  -0.15256  -0.15146  -0.13773  -0.10850
 Alpha virt. eigenvalues --   -0.08920  -0.07508  -0.06584  -0.02422  -0.01781
 Alpha virt. eigenvalues --   -0.00021   0.02817   0.14354   0.18332   0.18719

  Beta  occ. eigenvalues --  -10.81196 -10.79082  -1.24179  -0.91866  -0.85020
  Beta  occ. eigenvalues --   -0.83298  -0.73088
  Beta virt. eigenvalues --   -0.43448  -0.16270  -0.15110  -0.14994  -0.13478
  Beta virt. eigenvalues --   -0.10628  -0.08800  -0.04973  -0.04331  -0.02170
  Beta virt. eigenvalues --   -0.00842   0.00480   0.03631   0.14199   0.18042

 Mulliken charges and spin densities:
               1          2
     1  C   -0.149017   0.100694
     2  C   -0.149017   0.100694
     3  H    0.324405   0.198079
     4  H    0.324613   0.201228
     5  H    0.324405   0.198079
     6  H    0.324613   0.201228
 Sum of Mulliken charges =   1.00000   1.00000

 Dipole moment (field-independent basis, Debye):
    X=             -0.0000    Y=              0.0000    Z=              0.0000  Tot=              0.0000
 Quadrupole moment (field-independent basis, Debye-Ang):
   XX=             -2.5738   YY=             -7.4814   ZZ=            -12.2084
   XY=             -0.0197   XZ=              0.0000   YZ=              0.0000

 Normal termination of Gaussian 16 at Tue Nov 19 10:42:29 2024.
