 Gaussian 16, Revision A.03,
 Gaussian 16:  ES64L-G16RevA.03 25-Dec-2016

 ---------------------------------------
 #p UM062X/6-311+G** force int=superfine
 ---------------------------------------

 -------------------
 Title Card Required
 -------------------
 Symbolic Z-matrix:
 Charge =  1 Multiplicity = 2

                         Standard orientation:
 ---------------------------------------------------------------------
 Center     Atomic      Atomic             Coordinates (Angstroms)
 Number     Number       Type             X           Y           Z
 ---------------------------------------------------------------------
      1          7           0        0.000000    0.000000    1.205391
      2          7           0        0.000000    0.000000   -1.205391
 ---------------------------------------------------------------------

 SCF Done:  E(UM062X) =  -108.467281518     A.U. after   10 cycles

 Unable to determine electronic state:  partially filled degenerate orbitals.
 Alpha  occ. eigenvalues --  -15.35849 -15.35838  -1.25492  -1.20779  -0.73092
 Alpha  occ. eigenvalues --   -0.71527  -0.68920
 Alpha virt. eigenvalues --   -0.57953  -0.55283  -0.50860  -0.13075  -0.08896
 Alpha virt. eigenvalues --   -0.08719  -0.08660  -0.03321  -0.03099  -0.02835
 Alpha virt. eigenvalues --    0.05052   0.45328   0.45550   0.46748   0.53886

  Beta  occ. eigenvalues --  -15.35378 -15.35370  -1.21698  -1.17266  -0.71241
  Beta  occ. eigenvalues --   -0.67197
  Beta virt. eigenvalues --   -0.53467  -0.49032  -0.48436  -0.45764  -0.14402
  Beta virt. eigenvalues --   -0.09181  -0.09170  -0.08902  -0.03940  -0.03090
  Beta virt. eigenvalues --   -0.03079   0.03628   0.46136   0.46924   0.46940

 Mulliken charges and spin densities:
               1          2
     1  N    0.500000   0.500000
     2  N    0.500000   0.500000
 Sum of Mulliken charges =   1.00000   1.00000

 Dipole moment (field-independent basis, Debye):
    X=              0.0000    Y=              0.0000    Z=              0.0000  Tot=              0.0000
 Quadrupole moment (field-independent basis, Debye-Ang):
   XX=             -9.9943   YY=             -8.5385   ZZ=             -1.4068
   XY=              0.0000   XZ=             -0.0000   YZ=             -0.0000

 Optimization completed.
    -- Stationary point found.
 Normal termination of Gaussian 16 at Wed Feb 26 13:54:12 2025.
