 Gaussian 16, Revision A.03,
 Gaussian 16:  ES64L-G16RevA.03 25-Dec-2016

 --------------------------------------------
 #p opt UM062X/6-311+G** nosymm int=superfine
 --------------------------------------------

 -------------------
 Title Card Required
 -------------------
 Symbolic Z-matrix:
 Charge = -1 Multiplicity = 2

 SCF Done:  E(UM062X) =  -53.2033575073     A.U. after   11 cycles
 SCF Done:  E(UM062X) =  -53.2071452553     A.U. after   11 cycles
 SCF Done:  E(UM062X) =  -53.2079782442     A.U. after   10 cycles
 SCF Done:  E(UM062X) =  -53.2079806232     A.U. after    8 cycles
 Optimization completed.
    -- Stationary point found.

                          Input orientation:
 ---------------------------------------------------------------------
 Center     Atomic      Atomic             Coordinates (Angstroms)
 Number     Number       Type             X           Y           Z
 ---------------------------------------------------------------------
      1          5           0       -1.965672    0.000000    0.000000
      2          5           0        1.965672    0.000000    0.000000
      3          1           0        2.035807   -1.196815   -0.000014
      4          1           0       -2.035677   -0.598403    1.036483
      5          1           0        2.035833    0.598421   -1.036463
      6          1           0        2.035617    0.598389    1.036495
      7          1           0       -2.035815    1.196815   -0.000000
      8          1           0       -2.035765   -0.598408   -1.036475
 ---------------------------------------------------------------------

 Alpha  occ. eigenvalues --   -6.84380  -6.84379  -0.39835  -0.39221  -0.21634
 Alpha  occ. eigenvalues --   -0.21634  -0.21331  -0.21331   0.00998
 Alpha virt. eigenvalues --    0.12000   0.16898   0.17740   0.17740   0.18402
 Alpha virt. eigenvalues --    0.18402   0.19432   0.22842   0.23819   0.32886
 Alpha virt. eigenvalues --    0.32887   0.34663   0.34663   0.37035   0.38917

  Beta  occ. eigenvalues --   -6.84342  -6.84342  -0.38056  -0.37661  -0.21458
  Beta  occ. eigenvalues --   -0.21458  -0.21161  -0.21161
  Beta virt. eigenvalues --    0.11433   0.13601   0.13930   0.15258   0.15258
  Beta virt. eigenvalues --    0.17941   0.17941   0.21511   0.22337   0.25381
  Beta virt. eigenvalues --    0.31839   0.31839   0.33935   0.33936   0.36036

 Mulliken charges and spin densities:
               1          2
     1  B   -0.340125   0.564336
     2  B   -0.340125   0.564336
     3  H   -0.053276  -0.021423
     4  H   -0.053298  -0.021457
     5  H   -0.053304  -0.021456
     6  H   -0.053295  -0.021457
     7  H   -0.053276  -0.021423
     8  H   -0.053301  -0.021456
 Sum of Mulliken charges =  -1.00000   1.00000

 Dipole moment (field-independent basis, Debye):
    X=             -0.0000    Y=             -0.0000    Z=              0.0001  Tot=              0.0001
 Quadrupole moment (field-independent basis, Debye-Ang):
   XX=            -42.7363   YY=            -24.2909   ZZ=            -24.2911
   XY=             -0.0000   XZ=              0.0000   YZ=              0.0000

 Normal termination of Gaussian 16 at Mon Apr 21 16:55:30 2025.
