 Gaussian 16, Revision A.03,
 Gaussian 16:  ES64L-G16RevA.03 25-Dec-2016

 --------------------------------------------
 #p opt UM062X/6-311+G** nosymm int=superfine
 --------------------------------------------

 -------------------
 Title Card Required
 -------------------
 Symbolic Z-matrix:
 Charge =  0 Multiplicity = 1

 SCF Done:  E(UM062X) =  -83.1431490672     A.U. after   10 cycles
 SCF Done:  E(UM062X) =  -83.1545551206     A.U. after    9 cycles
 SCF Done:  E(UM062X) =  -83.1556744737     A.U. after    8 cycles
 SCF Done:  E(UM062X) =  -83.1556763058     A.U. after    7 cycles
 Optimization completed.
    -- Stationary point found.

                          Input orientation:
 ---------------------------------------------------------------------
 Center     Atomic      Atomic             Coordinates (Angstroms)
 Number     Number       Type             X           Y           Z
 ---------------------------------------------------------------------
      1          5           0       -1.302429    0.000000    0.000000
      2          7           0        1.302429    0.000000    0.000000
      3          1           0        1.657336   -0.948808    0.000001
      4          1           0       -1.369424   -0.594004    1.028812
      5          1           0        1.657209    0.474466   -0.821715
      6          1           0        1.657197    0.474463    0.821722
      7          1           0       -1.369451    1.187977    0.000014
      8          1           0       -1.369433   -0.593982   -1.028824
 ---------------------------------------------------------------------

 Alpha  occ. eigenvalues --  -14.75326  -7.02282  -0.98159  -0.56062  -0.56062
 Alpha  occ. eigenvalues --   -0.55806  -0.38035  -0.38035  -0.36659
 Alpha virt. eigenvalues --   -0.00071   0.02393   0.04808   0.04808   0.07311
 Alpha virt. eigenvalues --    0.08857   0.11065   0.11065   0.16892   0.16893
 Alpha virt. eigenvalues --    0.17986   0.20405   0.20405   0.23247   0.29912

  Beta  occ. eigenvalues --  -14.75326  -7.02282  -0.98159  -0.56062  -0.56062
  Beta  occ. eigenvalues --   -0.55806  -0.38035  -0.38035  -0.36659
  Beta virt. eigenvalues --   -0.00071   0.02393   0.04808   0.04808   0.07311
  Beta virt. eigenvalues --    0.08857   0.11065   0.11065   0.16892   0.16893
  Beta virt. eigenvalues --    0.17986   0.20405   0.20405   0.23247   0.29912

 Mulliken charges and spin densities:
               1          2
     1  B    0.013810  -0.000000
     2  N   -0.748055   0.000000
     3  H    0.264423  -0.000000
     4  H   -0.019675   0.000000
     5  H    0.264424   0.000000
     6  H    0.264425  -0.000000
     7  H   -0.019678   0.000000
     8  H   -0.019674   0.000000
 Sum of Mulliken charges =  -0.00000   0.00000

 Dipole moment (field-independent basis, Debye):
    X=              2.8699    Y=              0.0002    Z=              0.0000  Tot=              2.8699
 Quadrupole moment (field-independent basis, Debye-Ang):
   XX=            -12.9254   YY=            -15.8219   ZZ=            -15.8220
   XY=             -0.0000   XZ=             -0.0000   YZ=              0.0000

 Normal termination of Gaussian 16 at Mon Apr 21 17:33:00 2025.
