 Gaussian 16, Revision A.03,
 Gaussian 16:  ES64L-G16RevA.03 25-Dec-2016

 --------------------------------------------
 #p opt UM062X/6-311+G** nosymm int=superfine
 --------------------------------------------

 -------------------
 Title Card Required
 -------------------
 Symbolic Z-matrix:
 Charge =  1 Multiplicity = 2

 SCF Done:  E(UM062X) =  -579.687314749     A.U. after   15 cycles
 SCF Done:  E(UM062X) =  -579.690932055     A.U. after   13 cycles
 SCF Done:  E(UM062X) =  -579.695959115     A.U. after   15 cycles
 SCF Done:  E(UM062X) =  -579.696166564     A.U. after   12 cycles
 SCF Done:  E(UM062X) =  -579.696231702     A.U. after   12 cycles
 SCF Done:  E(UM062X) =  -579.696262734     A.U. after   11 cycles
 SCF Done:  E(UM062X) =  -579.696313114     A.U. after   12 cycles
 SCF Done:  E(UM062X) =  -579.696330442     A.U. after   12 cycles
 SCF Done:  E(UM062X) =  -579.696333408     A.U. after   10 cycles
 SCF Done:  E(UM062X) =  -579.696333446     A.U. after    9 cycles
 Optimization completed.
    -- Stationary point found.

                          Input orientation:
 ---------------------------------------------------------------------
 Center     Atomic      Atomic             Coordinates (Angstroms)
 Number     Number       Type             X           Y           Z
 ---------------------------------------------------------------------
      1         14           0       -1.802975    0.000000    0.000000
      2         14           0        1.802975    0.000000    0.000000
      3          1           0       -1.956570   -1.498438    0.000000
      4          1           0        1.956483    1.498446    0.000000
 ---------------------------------------------------------------------

 Alpha  occ. eigenvalues --  -67.27085 -67.27085  -5.81254  -5.81253  -4.12361
 Alpha  occ. eigenvalues --   -4.12361  -4.12285  -4.12284  -4.11626  -4.11626
 Alpha  occ. eigenvalues --   -0.76884  -0.75348  -0.53250  -0.52865  -0.43329
 Alpha virt. eigenvalues --   -0.28952  -0.27055  -0.26839  -0.11571  -0.10123
 Alpha virt. eigenvalues --   -0.08900  -0.08604  -0.08105  -0.07189  -0.05723
 Alpha virt. eigenvalues --   -0.05703  -0.05516  -0.02927   0.12621   0.14190

  Beta  occ. eigenvalues --  -67.26822 -67.26822  -5.81171  -5.81169  -4.12218
  Beta  occ. eigenvalues --   -4.12218  -4.11687  -4.11687  -4.11482  -4.11482
  Beta  occ. eigenvalues --   -0.74889  -0.73635  -0.52744  -0.51709
  Beta virt. eigenvalues --   -0.28971  -0.28499  -0.26297  -0.22171  -0.13055
  Beta virt. eigenvalues --   -0.10343  -0.08891  -0.08885  -0.08260  -0.06886
  Beta virt. eigenvalues --   -0.05630  -0.05442  -0.05350  -0.02704   0.11446

 Mulliken charges and spin densities:
               1          2
     1  Si   0.574600   0.510864
     2  Si   0.574609   0.510853
     3  H   -0.074603  -0.010859
     4  H   -0.074606  -0.010858
 Sum of Mulliken charges =   1.00000   1.00000

 Dipole moment (field-independent basis, Debye):
    X=              0.0000    Y=              0.0000    Z=              0.0000  Tot=              0.0000
 Quadrupole moment (field-independent basis, Debye-Ang):
   XX=             -3.8912   YY=            -27.3887   ZZ=            -19.7438
   XY=              1.8646   XZ=              0.0000   YZ=             -0.0000

 Normal termination of Gaussian 16 at Mon Apr 21 20:40:54 2025.
