 Gaussian 16, Revision A.03,
 Gaussian 16:  ES64L-G16RevA.03 25-Dec-2016

 --------------------------------------------
 #p opt UM062X/6-311+G** nosymm int=superfine
 --------------------------------------------

 -------------------
 Title Card Required
 -------------------
 Symbolic Z-matrix:
 Charge =  0 Multiplicity = 1

 SCF Done:  E(UM062X) =  -95.5859828121     A.U. after   15 cycles
 SCF Done:  E(UM062X) =  -95.6015537170     A.U. after   11 cycles
 SCF Done:  E(UM062X) =  -95.6127381178     A.U. after   14 cycles
 SCF Done:  E(UM062X) =  -95.6132232509     A.U. after   10 cycles
 SCF Done:  E(UM062X) =  -95.6136667316     A.U. after   12 cycles
 SCF Done:  E(UM062X) =  -95.6138418657     A.U. after   12 cycles
 SCF Done:  E(UM062X) =  -95.6138798085     A.U. after   12 cycles
 SCF Done:  E(UM062X) =  -95.6138867980     A.U. after   10 cycles
 SCF Done:  E(UM062X) =  -95.6138881436     A.U. after   11 cycles
 SCF Done:  E(UM062X) =  -95.6138896500     A.U. after   10 cycles
 SCF Done:  E(UM062X) =  -95.6138912602     A.U. after   10 cycles
 SCF Done:  E(UM062X) =  -95.6138921102     A.U. after   11 cycles
 Optimization completed.
    -- Stationary point found.

                          Input orientation:
 ---------------------------------------------------------------------
 Center     Atomic      Atomic             Coordinates (Angstroms)
 Number     Number       Type             X           Y           Z
 ---------------------------------------------------------------------
      1          6           0       -1.830542    0.000000    0.000000
      2          7           0        1.830542    0.000000    0.000000
      3          1           0        1.777643   -1.015139    0.138724
      4          1           0       -1.820486    1.080341    0.010301
      5          1           0        1.778102    0.368279    0.956127
      6          1           0       -1.820730   -0.525687   -0.943874
      7          1           0       -1.955676   -0.548266    0.922870
 ---------------------------------------------------------------------

 Alpha  occ. eigenvalues --  -14.74849 -10.62084  -0.90174  -0.80933  -0.53120
 Alpha  occ. eigenvalues --   -0.52940  -0.50672  -0.35931  -0.25046
 Alpha virt. eigenvalues --   -0.14114   0.01749   0.04634   0.04988   0.07080
 Alpha virt. eigenvalues --    0.09929   0.13070   0.15879   0.16745   0.16884
 Alpha virt. eigenvalues --    0.18274   0.20567   0.22177   0.27164   0.41105

  Beta  occ. eigenvalues --  -14.74849 -10.62084  -0.90174  -0.80933  -0.53120
  Beta  occ. eigenvalues --   -0.52940  -0.50672  -0.35931  -0.25046
  Beta virt. eigenvalues --   -0.14114   0.01749   0.04634   0.04988   0.07080
  Beta virt. eigenvalues --    0.09929   0.13070   0.15879   0.16745   0.16884
  Beta virt. eigenvalues --    0.18274   0.20567   0.22177   0.27164   0.41105

 Mulliken charges and spin densities:
               1          2
     1  C   -0.431148   0.000000
     2  N   -0.579546  -0.000000
     3  H    0.210423   0.000000
     4  H    0.200404  -0.000000
     5  H    0.210425   0.000000
     6  H    0.200425  -0.000000
     7  H    0.189017  -0.000000
 Sum of Mulliken charges =  -0.00000  -0.00000

 Dipole moment (field-independent basis, Debye):
    X=             -3.3323    Y=             -0.9988    Z=              1.6906  Tot=              3.8678
 Quadrupole moment (field-independent basis, Debye-Ang):
   XX=            -15.6831   YY=            -13.4463   ZZ=            -14.2472
   XY=             -1.8756   XZ=              3.1769   YZ=              0.7273

 Normal termination of Gaussian 16 at Mon Apr 21 18:16:24 2025.
