 Gaussian 16, Revision A.03,
 Gaussian 16:  ES64L-G16RevA.03 25-Dec-2016

 --------------------------------------------
 #p opt UM062X/6-311+G** nosymm int=superfine
 --------------------------------------------

 -------------------
 Title Card Required
 -------------------
 Symbolic Z-matrix:
 Charge =  1 Multiplicity = 2

 SCF Done:  E(UM062X) =  -92.6608923583     A.U. after   56 cycles
 SCF Done:  E(UM062X) =  -92.6611990662     A.U. after   59 cycles
 SCF Done:  E(UM062X) =  -92.6612005606     A.U. after   12 cycles
 Optimization completed.
    -- Stationary point found.

                          Input orientation:
 ---------------------------------------------------------------------
 Center     Atomic      Atomic             Coordinates (Angstroms)
 Number     Number       Type             X           Y           Z
 ---------------------------------------------------------------------
      1          6           0       -1.276540    0.000000    0.000000
      2          7           0        1.276540    0.000000    0.000000
      3          1           0       -2.394487   -0.000000    0.000000
 ---------------------------------------------------------------------

 Alpha  occ. eigenvalues --  -15.16155 -11.01527  -1.18510  -0.99357  -0.70343
 Alpha  occ. eigenvalues --   -0.70301  -0.68024
 Alpha virt. eigenvalues --   -0.44915  -0.36892  -0.33176  -0.15445  -0.10333
 Alpha virt. eigenvalues --   -0.09186  -0.08174  -0.04408  -0.01954  -0.01739
 Alpha virt. eigenvalues --    0.01339   0.08579   0.24523   0.30593   0.30597

  Beta  occ. eigenvalues --  -15.12448 -11.03926  -1.08322  -0.97408  -0.77607
  Beta  occ. eigenvalues --   -0.66754
  Beta virt. eigenvalues --   -0.42609  -0.31245  -0.30755  -0.30747  -0.15322
  Beta virt. eigenvalues --   -0.11552  -0.09314  -0.09182  -0.06136  -0.00531
  Beta virt. eigenvalues --   -0.00432   0.00243   0.05244   0.23724   0.29733

 Mulliken charges and spin densities:
               1          2
     1  C    0.311337  -1.568399
     2  N    0.332157   2.659457
     3  H    0.356507  -0.091058
 Sum of Mulliken charges =   1.00000   1.00000

 Dipole moment (field-independent basis, Debye):
    X=             -4.1603    Y=             -0.0000    Z=              0.0000  Tot=              4.1603
 Quadrupole moment (field-independent basis, Debye-Ang):
   XX=              5.0006   YY=             -9.5893   ZZ=            -10.4393
   XY=              0.0000   XZ=             -0.0000   YZ=             -0.7033

 Normal termination of Gaussian 16 at Mon Apr 21 18:32:58 2025.
