 Gaussian 16, Revision A.03,
 Gaussian 16:  ES64L-G16RevA.03 25-Dec-2016

 ---------------------------------------------------------
 #p opt UM062X/6-311+G** nosymm int=superfine SCF=NoVarAcc
 ---------------------------------------------------------

 -------------------
 Title Card Required
 -------------------
 Symbolic Z-matrix:
 Charge =  0 Multiplicity = 1

 SCF Done:  E(UM062X) =  -76.9390505706     A.U. after   92 cycles
 SCF Done:  E(UM062X) =  -76.9390668793     A.U. after    8 cycles
 Optimization completed.
    -- Stationary point found.

                          Input orientation:
 ---------------------------------------------------------------------
 Center     Atomic      Atomic             Coordinates (Angstroms)
 Number     Number       Type             X           Y           Z
 ---------------------------------------------------------------------
      1          6           0       -7.432625    0.000000    0.000000
      2          6           0        7.432625    0.000000    0.000000
      3          1           0       -8.551786   -0.000006    0.000006
      4          1           0        8.551786    0.000004   -0.000004
 ---------------------------------------------------------------------

 Alpha  occ. eigenvalues --  -10.63951 -10.62978  -0.73283  -0.68726  -0.38706
 Alpha  occ. eigenvalues --   -0.35864  -0.31158
 Alpha virt. eigenvalues --   -0.09337  -0.07283  -0.04676   0.02874   0.03832
 Alpha virt. eigenvalues --    0.08295   0.08377   0.08550   0.08578   0.09157
 Alpha virt. eigenvalues --    0.10775   0.17693   0.19144   0.45399   0.46239

  Beta  occ. eigenvalues --  -10.63951 -10.62978  -0.73283  -0.68726  -0.38706
  Beta  occ. eigenvalues --   -0.35864  -0.31158
  Beta virt. eigenvalues --   -0.09337  -0.07283  -0.04676   0.02874   0.03832
  Beta virt. eigenvalues --    0.08295   0.08377   0.08550   0.08578   0.09157
  Beta virt. eigenvalues --    0.10775   0.17693   0.19144   0.45399   0.46239

 Mulliken charges and spin densities:
               1          2
     1  C   -0.118525  -1.032495
     2  C   -0.118525   1.032495
     3  H    0.118525   0.032495
     4  H    0.118525  -0.032495
 Sum of Mulliken charges =  -0.00000   0.00000

 Dipole moment (field-independent basis, Debye):
    X=              0.0000    Y=             -0.0000    Z=              0.0000  Tot=              0.0000
 Quadrupole moment (field-independent basis, Debye-Ang):
   XX=             34.3193   YY=            -13.5840   ZZ=            -13.6228
   XY=              0.0001   XZ=             -0.0001   YZ=             -0.0002

 Normal termination of Gaussian 16 at Tue Dec  3 20:22:26 2024.
