 Gaussian 16, Revision A.03,
 Gaussian 16:  ES64L-G16RevA.03 25-Dec-2016

 --------------------------------------------
 #p opt UM062X/6-311+G** nosymm int=superfine
 --------------------------------------------

 -------------------
 Title Card Required
 -------------------
 Symbolic Z-matrix:
 Charge =  0 Multiplicity = 1

 SCF Done:  E(UM062X) =  -51.7789883564     A.U. after   10 cycles
 SCF Done:  E(UM062X) =  -51.7845126232     A.U. after    9 cycles
 SCF Done:  E(UM062X) =  -51.7879418129     A.U. after   11 cycles
 SCF Done:  E(UM062X) =  -51.7879453570     A.U. after   11 cycles
 SCF Done:  E(UM062X) =  -51.7879449082     A.U. after    8 cycles
 SCF Done:  E(UM062X) =  -51.7879450897     A.U. after    9 cycles
 Optimization completed.
    -- Stationary point found.

                          Input orientation:
 ---------------------------------------------------------------------
 Center     Atomic      Atomic             Coordinates (Angstroms)
 Number     Number       Type             X           Y           Z
 ---------------------------------------------------------------------
      1          5           0       -2.220607    0.000000    0.000000
      2          5           0        2.220607    0.000000    0.000000
      3          1           0       -2.672081   -1.089744    0.000053
      4          1           0        2.672081    1.089729   -0.005814
      5          1           0       -2.672082    1.089743    0.000263
      6          1           0        2.672082   -1.089726    0.006125
 ---------------------------------------------------------------------

 Alpha  occ. eigenvalues --   -7.11646  -7.11645  -0.58051  -0.57857  -0.45461
 Alpha  occ. eigenvalues --   -0.45420  -0.19231
 Alpha virt. eigenvalues --   -0.08554  -0.05166  -0.04409   0.02233   0.03067
 Alpha virt. eigenvalues --    0.03838   0.05330   0.06130   0.07140   0.08422
 Alpha virt. eigenvalues --    0.09948   0.15085   0.15672   0.17244   0.23255

  Beta  occ. eigenvalues --   -7.11646  -7.11645  -0.58051  -0.57857  -0.45461
  Beta  occ. eigenvalues --   -0.45420  -0.19231
  Beta virt. eigenvalues --   -0.08554  -0.05166  -0.04409   0.02233   0.03067
  Beta virt. eigenvalues --    0.03838   0.05330   0.06130   0.07140   0.08422
  Beta virt. eigenvalues --    0.09948   0.15085   0.15672   0.17244   0.23255

 Mulliken charges and spin densities:
               1          2
     1  B   -0.063945   0.000004
     2  B   -0.063945  -0.000004
     3  H    0.031973   0.000000
     4  H    0.031973  -0.000000
     5  H    0.031973   0.000000
     6  H    0.031973  -0.000000
 Sum of Mulliken charges =  -0.00000   0.00000

 Dipole moment (field-independent basis, Debye):
    X=              0.0000    Y=              0.0000    Z=              0.0004  Tot=              0.0004
 Quadrupole moment (field-independent basis, Debye-Ang):
   XX=            -10.0558   YY=            -16.9734   ZZ=            -14.6627
   XY=             -0.0000   XZ=              0.0000   YZ=              0.0062

 Normal termination of Gaussian 16 at Mon Apr 21 17:19:01 2025.
