 Gaussian 16, Revision A.03,
 Gaussian 16:  ES64L-G16RevA.03 25-Dec-2016

 ---------------------------------------
 #p UM062X/6-311+G** force int=superfine
 ---------------------------------------

 -------------------
 Title Card Required
 -------------------
 Symbolic Z-matrix:
 Charge =  1 Multiplicity = 2

                         Standard orientation:
 ---------------------------------------------------------------------
 Center     Atomic      Atomic             Coordinates (Angstroms)
 Number     Number       Type             X           Y           Z
 ---------------------------------------------------------------------
      1          7           0        0.000000    0.000000    1.630391
      2          7           0        0.000000    0.000000   -1.630391
 ---------------------------------------------------------------------

 SCF Done:  E(UM062X) =  -108.357377149     A.U. after   11 cycles

 Unable to determine electronic state:  partially filled degenerate orbitals.
 Alpha  occ. eigenvalues --  -15.31956 -15.31951  -1.20546  -1.19637  -0.66516
 Alpha  occ. eigenvalues --   -0.65230  -0.63892
 Alpha virt. eigenvalues --   -0.57576  -0.54926  -0.53769  -0.12885  -0.08230
 Alpha virt. eigenvalues --   -0.08202  -0.08047  -0.03755  -0.02910  -0.02718
 Alpha virt. eigenvalues --    0.03950   0.47688   0.50519   0.51742   0.52583

  Beta  occ. eigenvalues --  -15.31465 -15.31462  -1.16801  -1.15976  -0.63516
  Beta  occ. eigenvalues --   -0.62113
  Beta virt. eigenvalues --   -0.53119  -0.51847  -0.44644  -0.44061  -0.13901
  Beta virt. eigenvalues --   -0.08964  -0.08513  -0.08126  -0.04054  -0.03214
  Beta virt. eigenvalues --   -0.02954   0.02620   0.47777   0.51568   0.51913

 Mulliken charges and spin densities:
               1          2
     1  N    0.500000   0.500000
     2  N    0.500000   0.500000
 Sum of Mulliken charges =   1.00000   1.00000

 Dipole moment (field-independent basis, Debye):
    X=              0.0000    Y=              0.0000    Z=              0.0000  Tot=              0.0000
 Quadrupole moment (field-independent basis, Debye-Ang):
   XX=            -10.0154   YY=             -8.5689   ZZ=              4.3703
   XY=             -0.0000   XZ=             -0.0000   YZ=             -0.0000

 Optimization completed.
    -- Stationary point found.
 Normal termination of Gaussian 16 at Wed Feb 26 14:02:01 2025.
