 Gaussian 16, Revision A.03,
 Gaussian 16:  ES64L-G16RevA.03 25-Dec-2016

 --------------------------------------------
 #p opt UM062X/6-311+G** nosymm int=superfine
 --------------------------------------------

 -------------------
 Title Card Required
 -------------------
 Symbolic Z-matrix:
 Charge =  0 Multiplicity = 1

 SCF Done:  E(UM062X) =  -80.4562721971     A.U. after   20 cycles

 Alpha  occ. eigenvalues --  -14.77297  -7.19177  -0.84198  -0.59844  -0.41055
 Alpha  occ. eigenvalues --   -0.33133  -0.28070
 Alpha virt. eigenvalues --   -0.08596  -0.07601  -0.05333   0.00833   0.04097
 Alpha virt. eigenvalues --    0.05029   0.05206   0.12418   0.16078   0.17831
 Alpha virt. eigenvalues --    0.19003   0.21242   0.26031   0.35366   0.38904

  Beta  occ. eigenvalues --  -14.77297  -7.19177  -0.84198  -0.59844  -0.41055
  Beta  occ. eigenvalues --   -0.33133  -0.28070
  Beta virt. eigenvalues --   -0.08596  -0.07601  -0.05333   0.00833   0.04097
  Beta virt. eigenvalues --    0.05029   0.05206   0.12418   0.16078   0.17831
  Beta virt. eigenvalues --    0.19003   0.21242   0.26031   0.35366   0.38904

 Mulliken charges and spin densities:
               1          2
     1  B    0.094476   0.000000
     2  N   -0.314027   0.000000
     3  H    0.045871  -0.000000
     4  H    0.173680  -0.000000
 Sum of Mulliken charges =  -0.00000   0.00000

 Dipole moment (field-independent basis, Debye):
    X=             -4.1164    Y=              0.7894    Z=              0.7022  Tot=              4.2498
 Quadrupole moment (field-independent basis, Debye-Ang):
   XX=            -10.0872   YY=            -13.7117   ZZ=            -14.0243
   XY=              1.7007   XZ=              1.5149   YZ=              1.3545

 Optimization completed.
    -- Stationary point found.

                          Input orientation:
 ---------------------------------------------------------------------
 Center     Atomic      Atomic             Coordinates (Angstroms)
 Number     Number       Type             X           Y           Z
 ---------------------------------------------------------------------
      1          5           0       -1.292066   -0.000051    0.000045
      2          7           0        1.292066    0.000040   -0.000033
      3          1           0       -2.456767   -0.243870   -0.218920
      4          1           0        1.259533    0.772832    0.689106
 ---------------------------------------------------------------------

 Normal termination of Gaussian 16 at Mon Apr 21 22:21:55 2025.
