 Gaussian 16, Revision A.03,
 Gaussian 16:  ES64L-G16RevA.03 25-Dec-2016

 --------------------------------------------
 #p opt UM062X/6-311+G** nosymm int=superfine
 --------------------------------------------

 -------------------
 Title Card Required
 -------------------
 Symbolic Z-matrix:
 Charge =  1 Multiplicity = 2

 SCF Done:  E(UM062X) =  -76.4983189758     A.U. after   12 cycles
 SCF Done:  E(UM062X) =  -76.5346085090     A.U. after   13 cycles
 SCF Done:  E(UM062X) =  -76.5947625589     A.U. after   12 cycles
 SCF Done:  E(UM062X) =  -76.6385390841     A.U. after   15 cycles
 SCF Done:  E(UM062X) =  -76.6385927938     A.U. after   11 cycles
 Optimization completed.
    -- Stationary point found.

                          Input orientation:
 ---------------------------------------------------------------------
 Center     Atomic      Atomic             Coordinates (Angstroms)
 Number     Number       Type             X           Y           Z
 ---------------------------------------------------------------------
      1          6           0       -0.944441    0.000000    0.000000
      2          6           0        0.944441    0.000000    0.000000
      3          1           0       -2.047874   -0.000000   -0.000000
      4          1           0        2.047851    0.000000    0.000000
 ---------------------------------------------------------------------

 Alpha  occ. eigenvalues --  -11.01048 -11.01024  -1.07160  -0.99671  -0.81030
 Alpha  occ. eigenvalues --   -0.60970  -0.58955
 Alpha virt. eigenvalues --   -0.38552  -0.36581  -0.34826  -0.14094  -0.11840
 Alpha virt. eigenvalues --   -0.10065  -0.08743  -0.08517  -0.05370  -0.05086
 Alpha virt. eigenvalues --    0.00516   0.03154   0.06104   0.23818   0.30938

  Beta  occ. eigenvalues --  -11.00781 -11.00765  -1.03757  -0.97802  -0.79957
  Beta  occ. eigenvalues --   -0.57101
  Beta virt. eigenvalues --   -0.39147  -0.34832  -0.32808  -0.29867  -0.15015
  Beta virt. eigenvalues --   -0.12157  -0.10661  -0.09097  -0.08954  -0.05396
  Beta virt. eigenvalues --   -0.05171  -0.00456   0.03241   0.06213   0.24082

 Mulliken charges and spin densities:
               1          2
     1  C    0.124622   0.522883
     2  C    0.124620   0.522883
     3  H    0.375384  -0.022884
     4  H    0.375374  -0.022883
 Sum of Mulliken charges =   1.00000   1.00000

 Dipole moment (field-independent basis, Debye):
    X=             -0.0001    Y=             -0.0000    Z=             -0.0000  Tot=              0.0001
 Quadrupole moment (field-independent basis, Debye-Ang):
   XX=              4.9928   YY=            -12.5272   ZZ=            -11.6651
   XY=              0.0000   XZ=              0.0000   YZ=             -0.9882

 Normal termination of Gaussian 16 at Tue Nov 19 13:27:09 2024.
