 Gaussian 16, Revision A.03,
 Gaussian 16:  ES64L-G16RevA.03 25-Dec-2016

 --------------------------------------------
 #p opt UM062X/6-311+G** nosymm int=superfine
 --------------------------------------------

 -------------------
 Title Card Required
 -------------------
 Symbolic Z-matrix:
 Charge =  1 Multiplicity = 2

 SCF Done:  E(UM062X) =  -76.6144415055     A.U. after   11 cycles
 SCF Done:  E(UM062X) =  -76.6526991228     A.U. after   14 cycles
 SCF Done:  E(UM062X) =  -76.7109079306     A.U. after   50 cycles
 SCF Done:  E(UM062X) =  -76.7159790574     A.U. after   11 cycles
 SCF Done:  E(UM062X) =  -76.7159999259     A.U. after   41 cycles
 Optimization completed.
    -- Stationary point found.

                          Input orientation:
 ---------------------------------------------------------------------
 Center     Atomic      Atomic             Coordinates (Angstroms)
 Number     Number       Type             X           Y           Z
 ---------------------------------------------------------------------
      1          6           0       -0.863666    0.000000    0.000000
      2          6           0        0.863666    0.000000    0.000000
      3          1           0       -1.961068   -0.000000    0.000000
      4          1           0        1.961045    0.000000    0.000000
 ---------------------------------------------------------------------

 Alpha  occ. eigenvalues --  -11.00206 -11.00173  -1.09548  -0.99312  -0.83691
 Alpha  occ. eigenvalues --   -0.63043  -0.60949
 Alpha virt. eigenvalues --   -0.36758  -0.34770  -0.29235  -0.14174  -0.11404
 Alpha virt. eigenvalues --   -0.10479  -0.09011  -0.08777  -0.05329  -0.05022
 Alpha virt. eigenvalues --    0.01233   0.03658   0.07208   0.22886   0.31365

  Beta  occ. eigenvalues --  -10.99953 -10.99930  -1.05794  -0.97524  -0.82769
  Beta  occ. eigenvalues --   -0.59006
  Beta virt. eigenvalues --   -0.40462  -0.33045  -0.28492  -0.27135  -0.15192
  Beta virt. eigenvalues --   -0.11726  -0.10956  -0.09386  -0.09219  -0.05291
  Beta virt. eigenvalues --   -0.05012   0.00319   0.03756   0.07479   0.23528

 Mulliken charges and spin densities:
               1          2
     1  C    0.135315   0.522000
     2  C    0.135312   0.522000
     3  H    0.364691  -0.022000
     4  H    0.364682  -0.022000
 Sum of Mulliken charges =   1.00000   1.00000

 Dipole moment (field-independent basis, Debye):
    X=             -0.0001    Y=             -0.0000    Z=              0.0000  Tot=              0.0001
 Quadrupole moment (field-independent basis, Debye-Ang):
   XX=              3.4672   YY=            -10.7592   ZZ=            -12.8317
   XY=              0.0000   XZ=             -0.0000   YZ=              0.1632

 Normal termination of Gaussian 16 at Tue Nov 19 13:16:38 2024.
