 Gaussian 16, Revision A.03,
 Gaussian 16:  ES64L-G16RevA.03 25-Dec-2016

 --------------------------------------------
 #p opt UM062X/6-311+G** nosymm int=superfine
 --------------------------------------------

 -------------------
 Title Card Required
 -------------------
 Symbolic Z-matrix:
 Charge =  1 Multiplicity = 2

 SCF Done:  E(UM062X) =  -78.1809277086     A.U. after    9 cycles
 SCF Done:  E(UM062X) =  -78.1817350153     A.U. after    8 cycles
 SCF Done:  E(UM062X) =  -78.1817906204     A.U. after    7 cycles
 Optimization completed.
    -- Stationary point found.

                          Input orientation:
 ---------------------------------------------------------------------
 Center     Atomic      Atomic             Coordinates (Angstroms)
 Number     Number       Type             X           Y           Z
 ---------------------------------------------------------------------
      1          6           0       -0.735168    0.000000    0.000000
      2          6           0        0.735168    0.000000    0.000000
      3          1           0       -1.279698   -0.939313   -0.000000
      4          1           0       -1.279864    0.939152    0.000000
      5          1           0        1.279698    0.939313   -0.000000
      6          1           0        1.279864   -0.939152    0.000000
 ---------------------------------------------------------------------

 Alpha  occ. eigenvalues --  -10.89998 -10.89936  -1.16779  -0.98025  -0.84103
 Alpha  occ. eigenvalues --   -0.78375  -0.73517  -0.65329
 Alpha virt. eigenvalues --   -0.30426  -0.14645  -0.12795  -0.12186  -0.09529
 Alpha virt. eigenvalues --   -0.07703  -0.06962  -0.04740  -0.04512  -0.02355
 Alpha virt. eigenvalues --   -0.00730   0.00971   0.05484   0.10567   0.19980

  Beta  occ. eigenvalues --  -10.89770 -10.89722  -1.12926  -0.96074  -0.83068
  Beta  occ. eigenvalues --   -0.77399  -0.73186
  Beta virt. eigenvalues --   -0.41247  -0.23137  -0.16396  -0.12687  -0.12376
  Beta virt. eigenvalues --   -0.09957  -0.08547  -0.07022  -0.04723  -0.03790
  Beta virt. eigenvalues --   -0.01835  -0.01103   0.01757   0.06731   0.11031

 Mulliken charges and spin densities:
               1          2
     1  C   -0.054145   0.538072
     2  C   -0.054145   0.538072
     3  H    0.277066  -0.019038
     4  H    0.277079  -0.019034
     5  H    0.277066  -0.019038
     6  H    0.277079  -0.019034
 Sum of Mulliken charges =   1.00000   1.00000

 Dipole moment (field-independent basis, Debye):
    X=             -0.0000    Y=             -0.0000    Z=             -0.0000  Tot=              0.0000
 Quadrupole moment (field-independent basis, Debye-Ang):
   XX=             -5.2762   YY=             -8.4516   ZZ=            -11.6137
   XY=             -0.0002   XZ=              0.0000   YZ=              0.0000

 Normal termination of Gaussian 16 at Tue Nov 19 11:01:32 2024.
