 Gaussian 16, Revision A.03,
 Gaussian 16:  ES64L-G16RevA.03 25-Dec-2016

 --------------------------------------------
 #p opt UM062X/6-311+G** nosymm int=superfine
 --------------------------------------------

 -------------------
 Title Card Required
 -------------------
 Symbolic Z-matrix:
 Charge =  0 Multiplicity = 1

 SCF Done:  E(UM062X) =  -94.2548718979     A.U. after   13 cycles
 SCF Done:  E(UM062X) =  -94.2583469691     A.U. after   11 cycles
 SCF Done:  E(UM062X) =  -94.2602699998     A.U. after   11 cycles
 SCF Done:  E(UM062X) =  -94.2607664370     A.U. after   16 cycles
 SCF Done:  E(UM062X) =  -94.2620677282     A.U. after   16 cycles
 SCF Done:  E(UM062X) =  -94.2627925621     A.U. after   17 cycles
 SCF Done:  E(UM062X) =  -94.2627328805     A.U. after   29 cycles
 SCF Done:  E(UM062X) =  -94.2628166913     A.U. after   19 cycles
 SCF Done:  E(UM062X) =  -94.2628179532     A.U. after   16 cycles
 Optimization completed.
    -- Stationary point found.

                          Input orientation:
 ---------------------------------------------------------------------
 Center     Atomic      Atomic             Coordinates (Angstroms)
 Number     Number       Type             X           Y           Z
 ---------------------------------------------------------------------
      1          6           0       -1.656637    0.000000    0.000000
      2          7           0        1.656637    0.000000    0.000000
      3          1           0       -2.504434   -0.710113   -0.000057
      4          1           0        1.216149   -0.937672    0.000809
      5          1           0       -2.142410    0.992462    0.000019
 ---------------------------------------------------------------------

 Alpha  occ. eigenvalues --  -14.80861 -10.63178  -0.87201  -0.77553  -0.49897
 Alpha  occ. eigenvalues --   -0.44106  -0.33593  -0.31574
 Alpha virt. eigenvalues --   -0.10231  -0.10025   0.01484   0.05359   0.07079
 Alpha virt. eigenvalues --    0.07748   0.12681   0.14157   0.16074   0.17567
 Alpha virt. eigenvalues --    0.18119   0.19470   0.25021   0.43292   0.46494

  Beta  occ. eigenvalues --  -14.80861 -10.63178  -0.87201  -0.77553  -0.49897
  Beta  occ. eigenvalues --   -0.44106  -0.33593  -0.31574
  Beta virt. eigenvalues --   -0.10231  -0.10025   0.01484   0.05359   0.07079
  Beta virt. eigenvalues --    0.07748   0.12681   0.14157   0.16074   0.17567
  Beta virt. eigenvalues --    0.18119   0.19470   0.25021   0.43292   0.46494

 Mulliken charges and spin densities:
               1          2
     1  C   -0.303792   0.000000
     2  N   -0.205629  -0.000000
     3  H    0.150414  -0.000000
     4  H    0.209322   0.000000
     5  H    0.149684   0.000000
 Sum of Mulliken charges =  -0.00000   0.00000

 Dipole moment (field-independent basis, Debye):
    X=             -3.3271    Y=             -1.1328    Z=              0.0013  Tot=              3.5147
 Quadrupole moment (field-independent basis, Debye-Ang):
   XX=             -9.7857   YY=            -12.7238   ZZ=            -14.9352
   XY=             -3.1898   XZ=              0.0026   YZ=             -0.0025

 Normal termination of Gaussian 16 at Mon Apr 21 18:23:43 2025.
