 Gaussian 16, Revision A.03,
 Gaussian 16:  ES64L-G16RevA.03 25-Dec-2016

 --------------------------------------------
 #p opt UM062X/6-311+G** nosymm int=superfine
 --------------------------------------------

 -------------------
 Title Card Required
 -------------------
 Symbolic Z-matrix:
 Charge =  0 Multiplicity = 1

 SCF Done:  E(UM062X) =  -76.8738121143     A.U. after   15 cycles
 SCF Done:  E(UM062X) =  -76.8744833878     A.U. after   15 cycles
 SCF Done:  E(UM062X) =  -76.8757293458     A.U. after   16 cycles
 SCF Done:  E(UM062X) =  -76.8761733330     A.U. after   16 cycles
 SCF Done:  E(UM062X) =  -76.8762821646     A.U. after   15 cycles
 SCF Done:  E(UM062X) =  -76.8763036598     A.U. after   15 cycles
 SCF Done:  E(UM062X) =  -76.8763038126     A.U. after   16 cycles
 Optimization completed.
    -- Stationary point found.

                          Input orientation:
 ---------------------------------------------------------------------
 Center     Atomic      Atomic             Coordinates (Angstroms)
 Number     Number       Type             X           Y           Z
 ---------------------------------------------------------------------
      1          6           0       -1.832625    0.000000    0.000000
      2          6           0        1.832625    0.000000    0.000000
      3          1           0       -1.666980   -0.652530    0.892633
      4          1           0        1.667112    0.654095   -0.891508
 ---------------------------------------------------------------------

 Alpha  occ. eigenvalues --  -10.67672 -10.67671  -0.72999  -0.72432  -0.39143
 Alpha  occ. eigenvalues --   -0.38890  -0.23960
 Alpha virt. eigenvalues --   -0.12520  -0.10404  -0.09491   0.03287   0.04605
 Alpha virt. eigenvalues --    0.07238   0.07327   0.09306   0.09721   0.10959
 Alpha virt. eigenvalues --    0.13974   0.18111   0.19375   0.43991   0.45310

  Beta  occ. eigenvalues --  -10.67672 -10.67671  -0.72999  -0.72432  -0.39143
  Beta  occ. eigenvalues --   -0.38890  -0.23960
  Beta virt. eigenvalues --   -0.12520  -0.10404  -0.09491   0.03287   0.04605
  Beta virt. eigenvalues --    0.07238   0.07327   0.09306   0.09721   0.10959
  Beta virt. eigenvalues --    0.13974   0.18111   0.19375   0.43991   0.45310

 Mulliken charges and spin densities:
               1          2
     1  C   -0.143804   0.000000
     2  C   -0.143822  -0.000000
     3  H    0.143813   0.000000
     4  H    0.143812  -0.000000
 Sum of Mulliken charges =  -0.00000  -0.00000

 Dipole moment (field-independent basis, Debye):
    X=              0.0001    Y=              0.0023    Z=              0.0017  Tot=              0.0029
 Quadrupole moment (field-independent basis, Debye-Ang):
   XX=            -16.9626   YY=            -12.9532   ZZ=            -13.7640
   XY=              3.5676   XZ=             -4.8715   YZ=              1.2808

 Normal termination of Gaussian 16 at Tue Dec  3 23:46:17 2024.
