 Gaussian 16, Revision A.03,
 Gaussian 16:  ES64L-G16RevA.03 25-Dec-2016

 ---------------------------------------------------
 #p UM062X/6-311+G** force int=superfine pop=saveNBO
 ---------------------------------------------------

 -------------------
 Title Card Required
 -------------------
 Symbolic Z-matrix:
 Charge =  0 Multiplicity = 1

                         Standard orientation:
 ---------------------------------------------------------------------
 Center     Atomic      Atomic             Coordinates (Angstroms)
 Number     Number       Type             X           Y           Z
 ---------------------------------------------------------------------
      1          6           0        0.000000    0.000000   -2.012665
      2          8           0        0.000000    0.000000    1.509499
 ---------------------------------------------------------------------

 SCF Done:  E(UM062X) =  -112.632971961     A.U. after   22 cycles

 The electronic state is 1-SG.
 Alpha  occ. eigenvalues --  -19.68361 -10.86840  -0.97555  -0.74393  -0.32601
 Alpha  occ. eigenvalues --   -0.31449  -0.31449
 Alpha virt. eigenvalues --   -0.23091  -0.23091  -0.21789   0.01798   0.05496
 Alpha virt. eigenvalues --    0.05496   0.07112   0.19663   0.22086   0.22086
 Alpha virt. eigenvalues --    0.26109   0.49080   0.49080   0.50533   0.59300

  Beta  occ. eigenvalues --  -19.68361 -10.86840  -0.97555  -0.74393  -0.32601
  Beta  occ. eigenvalues --   -0.31449  -0.31449
  Beta virt. eigenvalues --   -0.23091  -0.23091  -0.21789   0.01798   0.05496
  Beta virt. eigenvalues --    0.05496   0.07112   0.19663   0.22086   0.22086
  Beta virt. eigenvalues --    0.26109   0.49080   0.49080   0.50533   0.59300

 Mulliken charges and spin densities:
               1          2
     1  C    0.360200   0.000000
     2  O   -0.360200  -0.000000
 Sum of Mulliken charges =   0.00000  -0.00000

 Dipole moment (field-independent basis, Debye):
    X=              0.0000    Y=              0.0000    Z=             -6.0686  Tot=              6.0686
 Quadrupole moment (field-independent basis, Debye-Ang):
   XX=            -12.1446   YY=            -12.1446   ZZ=             -7.7745
   XY=              0.0000   XZ=              0.0000   YZ=              0.0000

 Summary of Natural Population Analysis:

                                       Natural Population
                Natural  -----------------------------------------------
    Atom  No    Charge         Core      Valence    Rydberg      Total
 -----------------------------------------------------------------------
      C    1    0.20698      1.00000     1.79283    0.00019     2.79302
      O    2   -0.20698      1.00000     3.20688    0.00011     4.20698
 =======================================================================
   * Total *    0.00000      2.00000     4.99971    0.00029     7.00000

 Normal termination of Gaussian 16 at Mon Apr 21 19:31:55 2025.
