 Gaussian 16, Revision A.03,
 Gaussian 16:  ES64L-G16RevA.03 25-Dec-2016

 --------------------------------------------
 #p opt UM062X/6-311+G** nosymm int=superfine
 --------------------------------------------

 -------------------
 Title Card Required
 -------------------
 Symbolic Z-matrix:
 Charge =  0 Multiplicity = 1

 SCF Done:  E(UM062X) =  -111.701665588     A.U. after   15 cycles
 SCF Done:  E(UM062X) =  -111.721480003     A.U. after   14 cycles
 SCF Done:  E(UM062X) =  -111.729974811     A.U. after   14 cycles
 SCF Done:  E(UM062X) =  -111.731010300     A.U. after   11 cycles
 SCF Done:  E(UM062X) =  -111.732318714     A.U. after   12 cycles
 SCF Done:  E(UM062X) =  -111.732639211     A.U. after   11 cycles
 SCF Done:  E(UM062X) =  -111.732735798     A.U. after   11 cycles
 SCF Done:  E(UM062X) =  -111.732752039     A.U. after   10 cycles
 SCF Done:  E(UM062X) =  -111.732754500     A.U. after    9 cycles
 SCF Done:  E(UM062X) =  -111.732754672     A.U. after    8 cycles
 Optimization completed.
    -- Stationary point found.

                          Input orientation:
 ---------------------------------------------------------------------
 Center     Atomic      Atomic             Coordinates (Angstroms)
 Number     Number       Type             X           Y           Z
 ---------------------------------------------------------------------
      1          7           0       -1.186540    0.000000    0.000000
      2          7           0        1.186540    0.000000    0.000000
      3          1           0       -1.167849   -0.821686   -0.613485
      4          1           0        1.167818    0.417633   -0.936538
      5          1           0       -1.167655   -0.418496    0.936149
      6          1           0        1.167706    0.822240    0.612734
 ---------------------------------------------------------------------

 Alpha  occ. eigenvalues --  -14.79791 -14.79787  -0.96044  -0.92416  -0.55406
 Alpha  occ. eigenvalues --   -0.53113  -0.41227  -0.39330  -0.33702
 Alpha virt. eigenvalues --   -0.09930   0.04582   0.07390   0.08810   0.11499
 Alpha virt. eigenvalues --    0.13299   0.13731   0.15504   0.15981   0.20442
 Alpha virt. eigenvalues --    0.21784   0.27247   0.27799   0.51385   0.51876

  Beta  occ. eigenvalues --  -14.79791 -14.79787  -0.96044  -0.92416  -0.55406
  Beta  occ. eigenvalues --   -0.53113  -0.41227  -0.39330  -0.33702
  Beta virt. eigenvalues --   -0.09930   0.04582   0.07390   0.08810   0.11499
  Beta virt. eigenvalues --    0.13299   0.13731   0.15504   0.15981   0.20442
  Beta virt. eigenvalues --    0.21784   0.27247   0.27799   0.51385   0.51876

 Mulliken charges and spin densities:
               1          2
     1  N   -0.513980  -0.000000
     2  N   -0.513984   0.000000
     3  H    0.256969   0.000000
     4  H    0.256970   0.000000
     5  H    0.257012   0.000000
     6  H    0.257013   0.000000
 Sum of Mulliken charges =  -0.00000  -0.00000

 Dipole moment (field-independent basis, Debye):
    X=              0.0000    Y=             -0.0005    Z=             -0.0017  Tot=              0.0018
 Quadrupole moment (field-independent basis, Debye-Ang):
   XX=            -15.4802   YY=            -14.0453   ZZ=            -11.3227
   XY=              5.3116   XZ=             -1.3844   YZ=              0.7614

 Normal termination of Gaussian 16 at Thu May 15 14:34:57 2025.
