 Gaussian 16, Revision A.03,
 Gaussian 16:  ES64L-G16RevA.03 25-Dec-2016

 --------------------------------------------
 #p opt UM062X/6-311+G** nosymm int=superfine
 --------------------------------------------

 -------------------
 Title Card Required
 -------------------
 Symbolic Z-matrix:
 Charge = -1 Multiplicity = 2

 SCF Done:  E(UM062X) =  -50.5600385152     A.U. after   17 cycles
 SCF Done:  E(UM062X) =  -50.5638449768     A.U. after   16 cycles
 SCF Done:  E(UM062X) =  -50.5640728705     A.U. after   15 cycles
 Optimization completed.
    -- Stationary point found.

                          Input orientation:
 ---------------------------------------------------------------------
 Center     Atomic      Atomic             Coordinates (Angstroms)
 Number     Number       Type             X           Y           Z
 ---------------------------------------------------------------------
      1          5           0       -2.091404    0.000000    0.000000
      2          5           0        2.091404    0.000000    0.000000
      3          1           0       -3.353479   -0.000957    0.000000
      4          1           0        3.353479    0.000957   -0.000000
 ---------------------------------------------------------------------

 Alpha  occ. eigenvalues --   -6.91550  -6.91550  -0.35178  -0.35063  -0.09729
 Alpha  occ. eigenvalues --   -0.07458   0.02656
 Alpha virt. eigenvalues --    0.09775   0.12242   0.13265   0.15363   0.16045
 Alpha virt. eigenvalues --    0.21370   0.21631   0.21781   0.22476   0.23057
 Alpha virt. eigenvalues --    0.25363   0.32148   0.36861   0.49963   0.56163

  Beta  occ. eigenvalues --   -6.91459  -6.91459  -0.34104  -0.34059  -0.08628
  Beta  occ. eigenvalues --   -0.06424
  Beta virt. eigenvalues --    0.10597   0.11389   0.12072   0.12458   0.13397
  Beta virt. eigenvalues --    0.13625   0.19182   0.20071   0.20314   0.21188
  Beta virt. eigenvalues --    0.21465   0.21737   0.31992   0.36932   0.49619

 Mulliken charges and spin densities:
               1          2
     1  B   -0.410296   0.512520
     2  B   -0.410296   0.512520
     3  H   -0.089704  -0.012520
     4  H   -0.089704  -0.012520
 Sum of Mulliken charges =  -1.00000   1.00000

 Dipole moment (field-independent basis, Debye):
    X=             -0.0000    Y=              0.0000    Z=             -0.0000  Tot=              0.0000
 Quadrupole moment (field-independent basis, Debye-Ang):
   XX=            -40.1086   YY=            -19.0385   ZZ=            -26.3198
   XY=             -0.0010   XZ=              0.0000   YZ=             -0.0000

 Normal termination of Gaussian 16 at Mon Apr 21 17:32:09 2025.
