 Gaussian 16, Revision A.03,
 Gaussian 16:  ES64L-G16RevA.03 25-Dec-2016

 ---------------------------------------------------
 #p UM062X/6-311+G** force int=superfine pop=saveNBO
 ---------------------------------------------------

 -------------------
 Title Card Required
 -------------------
 Symbolic Z-matrix:
 Charge =  0 Multiplicity = 1

                         Standard orientation:
 ---------------------------------------------------------------------
 Center     Atomic      Atomic             Coordinates (Angstroms)
 Number     Number       Type             X           Y           Z
 ---------------------------------------------------------------------
      1         15           0        0.000000    0.000000    2.388495
      2         15           0        0.000000    0.000000   -2.388495
 ---------------------------------------------------------------------

 SCF Done:  E(UM062X) =  -682.240647868     A.U. after    9 cycles

 The electronic state is 1-SGG.
 Alpha  occ. eigenvalues --  -78.11470 -78.11470  -6.93196  -6.93196  -5.04492
 Alpha  occ. eigenvalues --   -5.04492  -5.04480  -5.04480  -5.04480  -5.04480
 Alpha  occ. eigenvalues --   -0.63873  -0.63357  -0.25118  -0.24318  -0.24318
 Alpha virt. eigenvalues --   -0.18252  -0.18252  -0.17270   0.02189   0.03415
 Alpha virt. eigenvalues --    0.04315   0.04315   0.06206   0.06262   0.06262
 Alpha virt. eigenvalues --    0.09825   0.28305   0.30354   0.30354   0.32166

  Beta  occ. eigenvalues --  -78.11470 -78.11470  -6.93196  -6.93196  -5.04492
  Beta  occ. eigenvalues --   -5.04492  -5.04480  -5.04480  -5.04480  -5.04480
  Beta  occ. eigenvalues --   -0.63873  -0.63357  -0.25118  -0.24318  -0.24318
  Beta virt. eigenvalues --   -0.18252  -0.18252  -0.17270   0.02189   0.03415
  Beta virt. eigenvalues --    0.04315   0.04315   0.06206   0.06262   0.06262
  Beta virt. eigenvalues --    0.09825   0.28305   0.30354   0.30354   0.32166

 Mulliken charges and spin densities:
               1          2
     1  P   -0.000000   0.000000
     2  P   -0.000000   0.000000
 Sum of Mulliken charges =  -0.00000   0.00000

 Dipole moment (field-independent basis, Debye):
    X=             -0.0000    Y=              0.0000    Z=             -0.0000  Tot=              0.0000
 Quadrupole moment (field-independent basis, Debye-Ang):
   XX=            -29.3487   YY=            -29.3487   ZZ=            -25.2767
   XY=              0.0000   XZ=             -0.0000   YZ=              0.0000

 Summary of Natural Population Analysis:

                                       Natural Population
                Natural  -----------------------------------------------
    Atom  No    Charge         Core      Valence    Rydberg      Total
 -----------------------------------------------------------------------
      P    1   -0.00000      5.00000     2.49962    0.00038     7.50000
      P    2   -0.00000      5.00000     2.49962    0.00038     7.50000
 =======================================================================
   * Total *   -0.00000     10.00000     4.99924    0.00077    15.00000

 Normal termination of Gaussian 16 at Mon Apr 21 21:17:15 2025.
