 Gaussian 16, Revision A.03,
 Gaussian 16:  ES64L-G16RevA.03 25-Dec-2016

 ---------------------------------------------------------
 #p opt UM062X/6-311+G** nosymm int=superfine SCF=NoVarAcc
 ---------------------------------------------------------

 -------------------
 Title Card Required
 -------------------
 Symbolic Z-matrix:
 Charge =  1 Multiplicity = 2

 SCF Done:  E(UM062X) =  -77.9448603396     A.U. after    9 cycles
 SCF Done:  E(UM062X) =  -77.9451669544     A.U. after    8 cycles
 SCF Done:  E(UM062X) =  -77.9453040653     A.U. after    9 cycles
 Optimization completed.
    -- Stationary point found.

                          Input orientation:
 ---------------------------------------------------------------------
 Center     Atomic      Atomic             Coordinates (Angstroms)
 Number     Number       Type             X           Y           Z
 ---------------------------------------------------------------------
      1          6           0       -1.306027    0.000000    0.000000
      2          6           0        1.306027    0.000000    0.000000
      3          1           0       -1.707181   -1.008883   -0.000000
      4          1           0       -1.707172    1.008891   -0.000000
      5          1           0        1.707181    1.008883   -0.000000
      6          1           0        1.707172   -1.008891   -0.000000
 ---------------------------------------------------------------------

 Alpha  occ. eigenvalues --  -10.92223 -10.92216  -1.03259  -1.00874  -0.79623
 Alpha  occ. eigenvalues --   -0.78698  -0.58902  -0.51947
 Alpha virt. eigenvalues --   -0.38996  -0.33908  -0.13471  -0.10751  -0.10487
 Alpha virt. eigenvalues --   -0.07809  -0.07544  -0.06649  -0.04627  -0.04290
 Alpha virt. eigenvalues --   -0.03320   0.01131   0.01672   0.09226   0.18929

  Beta  occ. eigenvalues --  -10.91965 -10.91961  -1.00433  -0.98433  -0.79229
  Beta  occ. eigenvalues --   -0.78342  -0.57065
  Beta virt. eigenvalues --   -0.32553  -0.31716  -0.29261  -0.14563  -0.11009
  Beta virt. eigenvalues --   -0.10746  -0.07404  -0.07362  -0.06770  -0.03795
  Beta virt. eigenvalues --   -0.03786  -0.03734   0.00322   0.01505   0.10191

 Mulliken charges and spin densities:
               1          2
     1  C   -0.066148   0.541664
     2  C   -0.066147   0.541664
     3  H    0.283074  -0.020832
     4  H    0.283074  -0.020832
     5  H    0.283074  -0.020832
     6  H    0.283074  -0.020832
 Sum of Mulliken charges =   1.00000   1.00000

 Dipole moment (field-independent basis, Debye):
    X=              0.0000    Y=             -0.0000    Z=             -0.0000  Tot=              0.0000
 Quadrupole moment (field-independent basis, Debye-Ang):
   XX=              2.4622   YY=             -7.8553   ZZ=            -12.9204
   XY=             -0.0000   XZ=              0.0000   YZ=              0.0000

 Normal termination of Gaussian 16 at Tue Dec  3 13:23:18 2024.
