 Gaussian 16, Revision A.03,
 Gaussian 16:  ES64L-G16RevA.03 25-Dec-2016

 --------------------------------------------
 #p opt UM062X/6-311+G** nosymm int=superfine
 --------------------------------------------

 -------------------
 Title Card Required
 -------------------
 Symbolic Z-matrix:
 Charge =  1 Multiplicity = 2

 SCF Done:  E(UM062X) =  -579.695346990     A.U. after    9 cycles
 SCF Done:  E(UM062X) =  -579.696965504     A.U. after   11 cycles
 SCF Done:  E(UM062X) =  -579.697015377     A.U. after   11 cycles
 SCF Done:  E(UM062X) =  -579.697311305     A.U. after   12 cycles
 SCF Done:  E(UM062X) =  -579.711096737     A.U. after   16 cycles
 SCF Done:  E(UM062X) =  -579.722150845     A.U. after   15 cycles
 SCF Done:  E(UM062X) =  -579.732351762     A.U. after   24 cycles
 SCF Done:  E(UM062X) =  -579.732684338     A.U. after   29 cycles
 SCF Done:  E(UM062X) =  -579.732754950     A.U. after   28 cycles
 SCF Done:  E(UM062X) =  -579.714488884     A.U. after   19 cycles
 SCF Done:  E(UM062X) =  -579.732417721     A.U. after   16 cycles
 SCF Done:  E(UM062X) =  -579.732871493     A.U. after   16 cycles
 SCF Done:  E(UM062X) =  -579.732275722     A.U. after   17 cycles
 SCF Done:  E(UM062X) =  -579.732854217     A.U. after   16 cycles
 SCF Done:  E(UM062X) =  -579.732884608     A.U. after   13 cycles
 SCF Done:  E(UM062X) =  -579.732874050     A.U. after   17 cycles
 SCF Done:  E(UM062X) =  -579.732895090     A.U. after   15 cycles
 SCF Done:  E(UM062X) =  -579.732895146     A.U. after   14 cycles
 Optimization completed.
    -- Stationary point found.

                          Input orientation:
 ---------------------------------------------------------------------
 Center     Atomic      Atomic             Coordinates (Angstroms)
 Number     Number       Type             X           Y           Z
 ---------------------------------------------------------------------
      1         14           0       -1.031067    0.445864    0.445864
      2         14           0        0.912234   -0.292307   -0.292307
      3          1           0       -2.184978   -0.219200   -0.219200
      4          1           0        2.303811    0.065643    0.065643
 ---------------------------------------------------------------------

 Alpha  occ. eigenvalues --  -67.28349 -67.27425  -5.82894  -5.82019  -4.14292
 Alpha  occ. eigenvalues --   -4.14084  -4.13473  -4.13366  -4.12903  -4.12557
 Alpha  occ. eigenvalues --   -0.86390  -0.75511  -0.62211  -0.52652  -0.49245
 Alpha virt. eigenvalues --   -0.32385  -0.27136  -0.19278  -0.12745  -0.11817
 Alpha virt. eigenvalues --   -0.09300  -0.08982  -0.08624  -0.07719  -0.06070
 Alpha virt. eigenvalues --   -0.05797  -0.05016  -0.00869   0.06641   0.11941

  Beta  occ. eigenvalues --  -67.27856 -67.27353  -5.82708  -5.82063  -4.13720
  Beta  occ. eigenvalues --   -4.13308  -4.13270  -4.13149  -4.12795  -4.12611
  Beta  occ. eigenvalues --   -0.83541  -0.74425  -0.61947  -0.51815
  Beta virt. eigenvalues --   -0.33194  -0.30847  -0.23094  -0.17460  -0.14823
  Beta virt. eigenvalues --   -0.12092  -0.09635  -0.08676  -0.08479  -0.07835
  Beta virt. eigenvalues --   -0.05814  -0.05113  -0.04355  -0.01599   0.06785

 Mulliken charges and spin densities:
               1          2
     1  Si   0.476191   0.219563
     2  Si   0.449896   0.846010
     3  H    0.027877  -0.050935
     4  H    0.046035  -0.014637
 Sum of Mulliken charges =   1.00000   1.00000

 Dipole moment (field-independent basis, Debye):
    X=              0.0491    Y=              0.1340    Z=              0.1340  Tot=              0.1958
 Quadrupole moment (field-independent basis, Debye-Ang):
   XX=            -13.3832   YY=            -22.1306   ZZ=            -22.1306
   XY=             -3.0616   XZ=             -3.0616   YZ=              0.2460

 Normal termination of Gaussian 16 at Wed Apr 16 05:31:30 2025.
