 Gaussian 16, Revision A.03,
 Gaussian 16:  ES64L-G16RevA.03 25-Dec-2016

 --------------------------------------------
 #p opt UM062X/6-311+G** nosymm int=superfine
 --------------------------------------------

 -------------------
 Title Card Required
 -------------------
 Symbolic Z-matrix:
 Charge =  1 Multiplicity = 2

 SCF Done:  E(UM062X) =  -76.8735438211     A.U. after   10 cycles
 SCF Done:  E(UM062X) =  -76.8833968920     A.U. after    9 cycles
 SCF Done:  E(UM062X) =  -76.8834015656     A.U. after    6 cycles
 Optimization completed.
    -- Stationary point found.

                          Input orientation:
 ---------------------------------------------------------------------
 Center     Atomic      Atomic             Coordinates (Angstroms)
 Number     Number       Type             X           Y           Z
 ---------------------------------------------------------------------
      1          6           0       -0.677263    0.000000    0.000000
      2          6           0        0.677263    0.000000    0.000000
      3          1           0       -1.761769   -0.000000    0.000000
      4          1           0        1.761769   -0.000000   -0.000000
 ---------------------------------------------------------------------

 Alpha  occ. eigenvalues --  -10.96027 -10.95913  -1.18944  -0.97789  -0.88597
 Alpha  occ. eigenvalues --   -0.70013  -0.67515
 Alpha virt. eigenvalues --   -0.30150  -0.28129  -0.17139  -0.14424  -0.11332
 Alpha virt. eigenvalues --   -0.09963  -0.09713  -0.08125  -0.05002  -0.04608
 Alpha virt. eigenvalues --    0.02182   0.04468   0.13359   0.19656   0.30285

  Beta  occ. eigenvalues --  -10.95788 -10.95694  -1.14383  -0.96165  -0.88053
  Beta  occ. eigenvalues --   -0.65132
  Beta virt. eigenvalues --   -0.44588  -0.26464  -0.23205  -0.15811  -0.15568
  Beta virt. eigenvalues --   -0.11529  -0.10251  -0.09991  -0.07833  -0.04580
  Beta virt. eigenvalues --   -0.04067   0.01774   0.04660   0.13946   0.20553

 Mulliken charges and spin densities:
               1          2
     1  C    0.174289   0.519679
     2  C    0.174291   0.519678
     3  H    0.325710  -0.019678
     4  H    0.325710  -0.019678
 Sum of Mulliken charges =   1.00000   1.00000

 Dipole moment (field-independent basis, Debye):
    X=              0.0000    Y=             -0.0000    Z=              0.0000  Tot=              0.0000
 Quadrupole moment (field-independent basis, Debye-Ang):
   XX=              0.3024   YY=            -10.3801   ZZ=            -11.3407
   XY=              0.0000   XZ=             -0.0000   YZ=              0.8146

 Normal termination of Gaussian 16 at Tue Nov 19 13:03:50 2024.
