 Gaussian 16, Revision A.03,
 Gaussian 16:  ES64L-G16RevA.03 25-Dec-2016

 --------------------------------------------
 #p opt UM062X/6-311+G** nosymm int=superfine
 --------------------------------------------

 -------------------
 Title Card Required
 -------------------
 Symbolic Z-matrix:
 Charge =  0 Multiplicity = 1

 SCF Done:  E(UM062X) =  -77.2903314041     A.U. after    9 cycles
 SCF Done:  E(UM062X) =  -77.2993943326     A.U. after    9 cycles
 Optimization completed.
    -- Stationary point found.

                          Input orientation:
 ---------------------------------------------------------------------
 Center     Atomic      Atomic             Coordinates (Angstroms)
 Number     Number       Type             X           Y           Z
 ---------------------------------------------------------------------
      1          6           0       -0.556619    0.000000    0.000000
      2          6           0        0.556619    0.000000    0.000000
      3          1           0       -1.619028   -0.000000    0.000000
      4          1           0        1.619027    0.000000   -0.000000
 ---------------------------------------------------------------------

 Alpha  occ. eigenvalues --  -10.52364 -10.51830  -0.87185  -0.63542  -0.56836
 Alpha  occ. eigenvalues --   -0.37365  -0.37365
 Alpha virt. eigenvalues --    0.02699   0.03063   0.05888   0.05888   0.07453
 Alpha virt. eigenvalues --    0.07453   0.09336   0.16335   0.16664   0.16664
 Alpha virt. eigenvalues --    0.20736   0.24684   0.42463   0.44382   0.55814

  Beta  occ. eigenvalues --  -10.52364 -10.51830  -0.87185  -0.63542  -0.56836
  Beta  occ. eigenvalues --   -0.37365  -0.37365
  Beta virt. eigenvalues --    0.02699   0.03063   0.05888   0.05888   0.07453
  Beta virt. eigenvalues --    0.07453   0.09336   0.16335   0.16664   0.16664
  Beta virt. eigenvalues --    0.20736   0.24684   0.42463   0.44382   0.55814

 Mulliken charges and spin densities:
               1          2
     1  C   -0.157455  -0.000000
     2  C   -0.157455   0.000000
     3  H    0.157455  -0.000000
     4  H    0.157455  -0.000000
 Sum of Mulliken charges =  -0.00000  -0.00000

 Dipole moment (field-independent basis, Debye):
    X=             -0.0000    Y=              0.0000    Z=             -0.0000  Tot=              0.0000
 Quadrupole moment (field-independent basis, Debye-Ang):
   XX=             -7.1556   YY=            -13.3711   ZZ=            -13.3711
   XY=              0.0000   XZ=             -0.0000   YZ=             -0.0000

 Normal termination of Gaussian 16 at Tue Dec  3 20:01:39 2024.
