 Gaussian 16, Revision A.03,
 Gaussian 16:  ES64L-G16RevA.03 25-Dec-2016

 --------------------------------------------
 #p opt UM062X/6-311+G** nosymm int=superfine
 --------------------------------------------

 -------------------
 Title Card Required
 -------------------
 Symbolic Z-matrix:
 Charge =  0 Multiplicity = 1

 SCF Done:  E(UM062X) =  -474.503447181     A.U. after   14 cycles
 SCF Done:  E(UM062X) =  -474.503956095     A.U. after   12 cycles
 SCF Done:  E(UM062X) =  -474.503983208     A.U. after   12 cycles
 SCF Done:  E(UM062X) =  -474.503983051     A.U. after   10 cycles
 SCF Done:  E(UM062X) =  -474.503983646     A.U. after   10 cycles
 Optimization completed.
    -- Stationary point found.

                          Input orientation:
 ---------------------------------------------------------------------
 Center     Atomic      Atomic             Coordinates (Angstroms)
 Number     Number       Type             X           Y           Z
 ---------------------------------------------------------------------
      1          8           0       -1.111013   -0.000169   -0.000252
      2         16           0        1.111007    0.000099    0.000219
      3          1           0       -1.206542   -0.214870    0.938123
      4          1           0        1.080163   -1.142262   -0.706507
 ---------------------------------------------------------------------

 Alpha  occ. eigenvalues --  -89.96725 -19.67173  -8.32758  -6.24976  -6.24611
 Alpha  occ. eigenvalues --   -6.24076  -1.09838  -0.82690  -0.53614  -0.49323
 Alpha  occ. eigenvalues --   -0.41949  -0.39842  -0.34224
 Alpha virt. eigenvalues --   -0.11567   0.01508   0.04173   0.04910   0.05862
 Alpha virt. eigenvalues --    0.07761   0.15576   0.19417   0.20006   0.21903
 Alpha virt. eigenvalues --    0.27522   0.31671   0.33821   0.35110   0.40735

  Beta  occ. eigenvalues --  -89.96725 -19.67173  -8.32758  -6.24976  -6.24611
  Beta  occ. eigenvalues --   -6.24076  -1.09838  -0.82690  -0.53614  -0.49323
  Beta  occ. eigenvalues --   -0.41949  -0.39842  -0.34224
  Beta virt. eigenvalues --   -0.11567   0.01508   0.04173   0.04910   0.05862
  Beta virt. eigenvalues --    0.07761   0.15576   0.19417   0.20006   0.21903
  Beta virt. eigenvalues --    0.27522   0.31671   0.33821   0.35110   0.40735

 Mulliken charges and spin densities:
               1          2
     1  O   -0.437145  -0.000000
     2  S    0.079191   0.000000
     3  H    0.254562   0.000000
     4  H    0.103392  -0.000000
 Sum of Mulliken charges =  -0.00000   0.00000

 Dipole moment (field-independent basis, Debye):
    X=              1.5228    Y=             -1.3154    Z=              1.0183  Tot=              2.2552
 Quadrupole moment (field-independent basis, Debye-Ang):
   XX=            -18.5817   YY=            -19.3727   ZZ=            -18.9155
   XY=             -0.7346   XZ=             -3.1730   YZ=              1.2872

 Normal termination of Gaussian 16 at Mon Apr 21 22:39:58 2025.
