 Gaussian 16, Revision A.03,
 Gaussian 16:  ES64L-G16RevA.03 25-Dec-2016

 --------------------------------------------
 #p opt UM062X/6-311+G** nosymm int=superfine
 --------------------------------------------

 -------------------
 Title Card Required
 -------------------
 Symbolic Z-matrix:
 Charge =  1 Multiplicity = 2

 SCF Done:  E(UM062X) =  -379.431839585     A.U. after   28 cycles
 SCF Done:  E(UM062X) =  -379.432077990     A.U. after   20 cycles
 Optimization completed.
    -- Stationary point found.

                          Input orientation:
 ---------------------------------------------------------------------
 Center     Atomic      Atomic             Coordinates (Angstroms)
 Number     Number       Type             X           Y           Z
 ---------------------------------------------------------------------
      1          6           0       -1.119427    0.000000    0.000000
      2         15           0        1.119427    0.000000    0.000000
      3          1           0       -2.223665    0.000000   -0.000000
 ---------------------------------------------------------------------

 Alpha  occ. eigenvalues --  -78.40287 -10.96716  -7.21337  -5.33324  -5.32695
 Alpha  occ. eigenvalues --   -5.32340  -1.01936  -0.91518  -0.69608  -0.56781
 Alpha  occ. eigenvalues --   -0.54731
 Alpha virt. eigenvalues --   -0.37567  -0.36232  -0.30249  -0.13652  -0.10527
 Alpha virt. eigenvalues --   -0.09337  -0.09140  -0.08839  -0.05398  -0.05250
 Alpha virt. eigenvalues --   -0.00290   0.03937   0.11260   0.14174   0.14291

  Beta  occ. eigenvalues --  -78.39772 -10.96615  -7.21211  -5.32566  -5.32275
  Beta  occ. eigenvalues --   -5.31776  -0.99681  -0.88519  -0.68568  -0.53429
  Beta virt. eigenvalues --   -0.38154  -0.35099  -0.31112  -0.28617  -0.14786
  Beta virt. eigenvalues --   -0.11028  -0.09216  -0.09188  -0.08986  -0.05415
  Beta virt. eigenvalues --   -0.05413  -0.01110   0.04101   0.11022   0.11403

 Mulliken charges and spin densities:
               1          2
     1  C   -0.013104   0.323058
     2  P    0.692554   0.690529
     3  H    0.320550  -0.013588
 Sum of Mulliken charges =   1.00000   1.00000

 Dipole moment (field-independent basis, Debye):
    X=              0.0975    Y=              0.0000    Z=             -0.0000  Tot=              0.0975
 Quadrupole moment (field-independent basis, Debye-Ang):
   XX=             -2.5353   YY=            -16.4063   ZZ=            -18.3707
   XY=             -0.0000   XZ=              0.0000   YZ=              0.9333

 Normal termination of Gaussian 16 at Mon Apr 21 19:24:21 2025.
