 Gaussian 16, Revision A.03,
 Gaussian 16:  ES64L-G16RevA.03 25-Dec-2016

 ---------------------------------------------------
 #p UM062X/6-311+G** force int=superfine pop=saveNBO
 ---------------------------------------------------

 -------------------
 Title Card Required
 -------------------
 Symbolic Z-matrix:
 Charge =  0 Multiplicity = 1

                         Standard orientation:
 ---------------------------------------------------------------------
 Center     Atomic      Atomic             Coordinates (Angstroms)
 Number     Number       Type             X           Y           Z
 ---------------------------------------------------------------------
      1          8           0        0.000000    0.000000    0.768562
      2          8           0        0.000000    0.000000   -0.768562
 ---------------------------------------------------------------------

 SCF Done:  E(UM062X) =  -150.148506507     A.U. after    9 cycles

 Unable to determine electronic state:  partially filled degenerate orbitals.
 Alpha  occ. eigenvalues --  -19.82547 -19.82525  -1.24269  -1.01156  -0.56872
 Alpha  occ. eigenvalues --   -0.54968  -0.50626  -0.42825
 Alpha virt. eigenvalues --   -0.21381  -0.03609   0.10511   0.14319   0.15003
 Alpha virt. eigenvalues --    0.15533   0.20961   0.21153   0.21514   0.34226
 Alpha virt. eigenvalues --    0.97109   0.97895   0.99134   1.06521   1.07866

  Beta  occ. eigenvalues --  -19.82547 -19.82525  -1.24269  -1.01156  -0.56872
  Beta  occ. eigenvalues --   -0.54968  -0.50626  -0.42825
  Beta virt. eigenvalues --   -0.21381  -0.03609   0.10511   0.14319   0.15003
  Beta virt. eigenvalues --    0.15533   0.20961   0.21153   0.21514   0.34226
  Beta virt. eigenvalues --    0.97109   0.97895   0.99134   1.06521   1.07866

 Mulliken charges and spin densities:
               1          2
     1  O   -0.000000   0.000000
     2  O   -0.000000   0.000000
 Sum of Mulliken charges =  -0.00000   0.00000

 Dipole moment (field-independent basis, Debye):
    X=             -0.0000    Y=              0.0000    Z=              0.0000  Tot=              0.0000
 Quadrupole moment (field-independent basis, Debye-Ang):
   XX=             -9.7854   YY=            -11.5285   ZZ=            -10.2432
   XY=              0.0000   XZ=              0.0000   YZ=              0.0000

 Summary of Natural Population Analysis:

                                       Natural Population
                Natural  -----------------------------------------------
    Atom  No    Charge         Core      Valence    Rydberg      Total
 -----------------------------------------------------------------------
      O    1    0.00000      0.99999     2.99515    0.00486     4.00000
      O    2   -0.00000      0.99999     2.99515    0.00486     4.00000
 =======================================================================
   * Total *   -0.00000      1.99998     5.99030    0.00971     8.00000

 Normal termination of Gaussian 16 at Mon Apr 21 19:53:01 2025.
