 Gaussian 16, Revision A.03,
 Gaussian 16:  ES64L-G16RevA.03 25-Dec-2016

 --------------------------------------------
 #p opt UM062X/6-311+G** nosymm int=superfine
 --------------------------------------------

 -------------------
 Title Card Required
 -------------------
 Symbolic Z-matrix:
 Charge =  0 Multiplicity = 1

 SCF Done:  E(UM062X) =  -79.6028667833     A.U. after    9 cycles
 SCF Done:  E(UM062X) =  -79.6418080127     A.U. after    8 cycles
 SCF Done:  E(UM062X) =  -79.6811575987     A.U. after   10 cycles
 SCF Done:  E(UM062X) =  -79.6934200570     A.U. after   10 cycles
 SCF Done:  E(UM062X) =  -79.6939061160     A.U. after    8 cycles
 SCF Done:  E(UM062X) =  -79.6939099749     A.U. after    6 cycles
 Optimization completed.
    -- Stationary point found.

                          Input orientation:
 ---------------------------------------------------------------------
 Center     Atomic      Atomic             Coordinates (Angstroms)
 Number     Number       Type             X           Y           Z
 ---------------------------------------------------------------------
      1          6           0       -1.175862    0.000000    0.000000
      2          6           0        1.175983    0.000000    0.000000
      3          1           0        1.402112   -0.916288    0.530208
      4          1           0       -1.401983   -0.917325   -0.528419
      5          1           0        1.402106    0.917324    0.528417
      6          1           0        1.402091   -0.001032   -1.058639
      7          1           0       -1.401992    0.916288   -0.530208
      8          1           0       -1.401975    0.001031    1.058638
 ---------------------------------------------------------------------

 Alpha  occ. eigenvalues --  -10.55532 -10.55526  -0.77656  -0.73878  -0.48263
 Alpha  occ. eigenvalues --   -0.48263  -0.45995  -0.45995  -0.29142
 Alpha virt. eigenvalues --   -0.00681   0.02496   0.05552   0.05552   0.07385
 Alpha virt. eigenvalues --    0.08289   0.08289   0.09991   0.13088   0.18160
 Alpha virt. eigenvalues --    0.18160   0.22070   0.22070   0.24365   0.26307

  Beta  occ. eigenvalues --  -10.55532 -10.55526  -0.77656  -0.73878  -0.48263
  Beta  occ. eigenvalues --   -0.48263  -0.45995  -0.45995  -0.29142
  Beta virt. eigenvalues --   -0.00681   0.02496   0.05552   0.05552   0.07385
  Beta virt. eigenvalues --    0.08289   0.08289   0.09991   0.13088   0.18160
  Beta virt. eigenvalues --    0.18160   0.22070   0.22070   0.24365   0.26307

 Mulliken charges and spin densities:
               1          2
     1  C   -0.508284  -0.000000
     2  C   -0.508285   0.000000
     3  H    0.169428   0.000000
     4  H    0.169428   0.000000
     5  H    0.169428  -0.000000
     6  H    0.169429  -0.000000
     7  H    0.169428   0.000000
     8  H    0.169428  -0.000000
 Sum of Mulliken charges =  -0.00000   0.00000

 Dipole moment (field-independent basis, Debye):
    X=             -0.0000    Y=             -0.0000    Z=             -0.0000  Tot=              0.0000
 Quadrupole moment (field-independent basis, Debye-Ang):
   XX=            -15.5394   YY=            -14.8156   ZZ=            -14.8156
   XY=             -0.0000   XZ=              0.0000   YZ=             -0.0000

 Normal termination of Gaussian 16 at Tue Nov 19 12:19:54 2024.
