 Gaussian 16, Revision A.03,
 Gaussian 16:  ES64L-G16RevA.03 25-Dec-2016

 --------------------------------------------
 #p opt UM062X/6-311+G** nosymm int=superfine
 --------------------------------------------

 -------------------
 Title Card Required
 -------------------
 Symbolic Z-matrix:
 Charge =  0 Multiplicity = 1

 SCF Done:  E(UM062X) =  -51.8963540565     A.U. after    8 cycles
 SCF Done:  E(UM062X) =  -51.8989127443     A.U. after    8 cycles
 SCF Done:  E(UM062X) =  -51.8999215596     A.U. after    9 cycles
 SCF Done:  E(UM062X) =  -51.8999183839     A.U. after    8 cycles
 SCF Done:  E(UM062X) =  -51.8999213258     A.U. after    8 cycles
 SCF Done:  E(UM062X) =  -51.8999218172     A.U. after    8 cycles
 SCF Done:  E(UM062X) =  -51.8999220202     A.U. after    7 cycles
 SCF Done:  E(UM062X) =  -51.8999219619     A.U. after    7 cycles
 SCF Done:  E(UM062X) =  -51.8999222808     A.U. after    8 cycles
 SCF Done:  E(UM062X) =  -51.8970446146     A.U. after   12 cycles
 SCF Done:  E(UM062X) =  -51.8999725354     A.U. after   10 cycles
 SCF Done:  E(UM062X) =  -51.9001476211     A.U. after   10 cycles
 SCF Done:  E(UM062X) =  -51.9006165135     A.U. after   11 cycles
 SCF Done:  E(UM062X) =  -51.9008911647     A.U. after   11 cycles
 SCF Done:  E(UM062X) =  -51.9008975521     A.U. after   10 cycles
 SCF Done:  E(UM062X) =  -51.9009054344     A.U. after    9 cycles
 Optimization completed.
    -- Stationary point found.

                          Input orientation:
 ---------------------------------------------------------------------
 Center     Atomic      Atomic             Coordinates (Angstroms)
 Number     Number       Type             X           Y           Z
 ---------------------------------------------------------------------
      1          5           0       -1.345607    0.000000    0.000000
      2          5           0        1.345607    0.000000    0.000000
      3          1           0       -1.877837   -0.749353   -0.744701
      4          1           0        1.877721    0.744931   -0.749209
      5          1           0       -1.877850    0.749393    0.744652
      6          1           0        1.877973   -0.744874    0.749084
 ---------------------------------------------------------------------

 Alpha  occ. eigenvalues --   -7.09524  -7.09519  -0.57641  -0.55767  -0.42994
 Alpha  occ. eigenvalues --   -0.42994  -0.26050
 Alpha virt. eigenvalues --   -0.03835  -0.03834   0.01105   0.02330   0.04871
 Alpha virt. eigenvalues --    0.04871   0.05446   0.07253   0.07412   0.07412
 Alpha virt. eigenvalues --    0.10857   0.15827   0.18288   0.20698   0.20700

  Beta  occ. eigenvalues --   -7.09524  -7.09519  -0.57641  -0.55767  -0.42994
  Beta  occ. eigenvalues --   -0.42994  -0.26050
  Beta virt. eigenvalues --   -0.03835  -0.03834   0.01105   0.02330   0.04871
  Beta virt. eigenvalues --    0.04871   0.05446   0.07253   0.07412   0.07412
  Beta virt. eigenvalues --    0.10857   0.15827   0.18288   0.20698   0.20700

 Mulliken charges and spin densities:
               1          2
     1  B   -0.034529   0.000000
     2  B   -0.034530  -0.000000
     3  H    0.017265  -0.000000
     4  H    0.017263  -0.000000
     5  H    0.017265  -0.000000
     6  H    0.017266   0.000000
 Sum of Mulliken charges =  -0.00000   0.00000

 Dipole moment (field-independent basis, Debye):
    X=             -0.0000    Y=              0.0000    Z=             -0.0000  Tot=              0.0001
 Quadrupole moment (field-independent basis, Debye-Ang):
   XX=            -15.3160   YY=            -15.2749   ZZ=            -15.2739
   XY=              0.0000   XZ=              0.0001   YZ=              0.0000

 Normal termination of Gaussian 16 at Mon Apr 21 17:10:35 2025.
