 Gaussian 16, Revision A.03,
 Gaussian 16:  ES64L-G16RevA.03 25-Dec-2016

 --------------------------------------------
 #p opt UM062X/6-311+G** nosymm int=superfine
 --------------------------------------------

 -------------------
 Title Card Required
 -------------------
 Symbolic Z-matrix:
 Charge =  1 Multiplicity = 2

 SCF Done:  E(UM062X) =  -580.928975789     A.U. after   11 cycles
 SCF Done:  E(UM062X) =  -580.929259459     A.U. after    8 cycles
 SCF Done:  E(UM062X) =  -580.929355408     A.U. after   10 cycles
 SCF Done:  E(UM062X) =  -580.929257007     A.U. after   10 cycles
 SCF Done:  E(UM062X) =  -580.929356602     A.U. after   10 cycles
 SCF Done:  E(UM062X) =  -580.929356986     A.U. after    9 cycles
 Optimization completed.
    -- Stationary point found.

                          Input orientation:
 ---------------------------------------------------------------------
 Center     Atomic      Atomic             Coordinates (Angstroms)
 Number     Number       Type             X           Y           Z
 ---------------------------------------------------------------------
      1         14           0       -1.441295    0.000000    0.000000
      2         14           0        1.441295    0.000000    0.000000
      3          1           0       -2.133588   -1.294205   -0.000347
      4          1           0        2.133588    1.294205    0.000007
      5          1           0       -2.133590    1.294203    0.001207
      6          1           0        2.133590   -1.294203   -0.000944
 ---------------------------------------------------------------------

 Alpha  occ. eigenvalues --  -67.26726 -67.26726  -5.81061  -5.81060  -4.12713
 Alpha  occ. eigenvalues --   -4.12712  -4.12023  -4.12017  -4.11879  -4.11878
 Alpha  occ. eigenvalues --   -0.82496  -0.79178  -0.64287  -0.63384  -0.54376
 Alpha  occ. eigenvalues --   -0.43462
 Alpha virt. eigenvalues --   -0.29754  -0.26110  -0.14314  -0.13391  -0.11499
 Alpha virt. eigenvalues --   -0.10836  -0.09188  -0.08982  -0.07858  -0.07031
 Alpha virt. eigenvalues --   -0.06996  -0.05673  -0.01633   0.01954   0.12207

  Beta  occ. eigenvalues --  -67.26435 -67.26435  -5.80976  -5.80975  -4.12001
  Beta  occ. eigenvalues --   -4.11999  -4.11957  -4.11949  -4.11773  -4.11772
  Beta  occ. eigenvalues --   -0.80549  -0.77736  -0.64247  -0.63470  -0.53582
  Beta virt. eigenvalues --   -0.29285  -0.24414  -0.23854  -0.14606  -0.14015
  Beta virt. eigenvalues --   -0.11939  -0.11184  -0.09408  -0.08907  -0.07413
  Beta virt. eigenvalues --   -0.06799  -0.06676  -0.03873  -0.03279   0.01750

 Mulliken charges and spin densities:
               1          2
     1  Si   0.436713   0.554149
     2  Si   0.436713   0.554149
     3  H    0.031644  -0.027074
     4  H    0.031644  -0.027075
     5  H    0.031644  -0.027074
     6  H    0.031644  -0.027074
 Sum of Mulliken charges =   1.00000   1.00000

 Dipole moment (field-independent basis, Debye):
    X=             -0.0000    Y=             -0.0000    Z=              0.0000  Tot=              0.0000
 Quadrupole moment (field-independent basis, Debye-Ang):
   XX=             -9.3691   YY=            -23.6254   ZZ=            -24.6048
   XY=             -0.0000   XZ=              0.0002   YZ=              0.0005

 Normal termination of Gaussian 16 at Mon Apr 21 20:22:51 2025.
