 Gaussian 16, Revision A.03,
 Gaussian 16:  ES64L-G16RevA.03 25-Dec-2016

 ---------------------------------------
 #p UM062X/6-311+G** force int=superfine
 ---------------------------------------

 -------------------
 Title Card Required
 -------------------
 Symbolic Z-matrix:
 Charge =  1 Multiplicity = 2

                         Standard orientation:
 ---------------------------------------------------------------------
 Center     Atomic      Atomic             Coordinates (Angstroms)
 Number     Number       Type             X           Y           Z
 ---------------------------------------------------------------------
      1          6           0        1.269738   -0.000040   -0.000029
      2          6           0       -1.269738    0.000045    0.000017
      3          1           0       -1.347816   -0.987912   -0.439469
      4          1           0        1.346973   -0.874610    0.635947
      5          1           0       -1.347462    0.874703   -0.635780
      6          1           0       -1.346901    0.113409    1.075422
      7          1           0        1.347842    0.987971    0.439333
      8          1           0        1.347366   -0.113593   -1.075381
 ---------------------------------------------------------------------

 SCF Done:  E(UM062X) =  -79.3556903005     A.U. after    9 cycles

 The electronic state is 2-A.
 Alpha  occ. eigenvalues --  -10.85647 -10.85642  -1.06258  -1.02522  -0.76234
 Alpha  occ. eigenvalues --   -0.76233  -0.74259  -0.74259  -0.56797
 Alpha virt. eigenvalues --   -0.31940  -0.15197  -0.10593  -0.10593  -0.10004
 Alpha virt. eigenvalues --   -0.06258  -0.06215  -0.06215  -0.03818  -0.03815
 Alpha virt. eigenvalues --   -0.02851   0.01594   0.01596   0.05391   0.07384

  Beta  occ. eigenvalues --  -10.85449 -10.85448  -1.03018  -1.00067  -0.75507
  Beta  occ. eigenvalues --   -0.75506  -0.73691  -0.73690
  Beta virt. eigenvalues --   -0.34423  -0.23025  -0.15613  -0.11099  -0.11099
  Beta virt. eigenvalues --   -0.09521  -0.06562  -0.06562  -0.06235  -0.03684
  Beta virt. eigenvalues --   -0.03682  -0.02098   0.02016   0.02017   0.05844

 Mulliken charges and spin densities:
               1          2
     1  C   -0.285690   0.573866
     2  C   -0.285689   0.573866
     3  H    0.261915  -0.024626
     4  H    0.261877  -0.024619
     5  H    0.261896  -0.024627
     6  H    0.261878  -0.024613
     7  H    0.261916  -0.024626
     8  H    0.261897  -0.024620
 Sum of Mulliken charges =   1.00000   1.00000

 Dipole moment (field-independent basis, Debye):
    X=             -0.0000    Y=             -0.0000    Z=              0.0000  Tot=              0.0000
 Quadrupole moment (field-independent basis, Debye-Ang):
   XX=             -3.5597   YY=            -10.9370   ZZ=            -10.9372
   XY=              0.0007   XZ=              0.0004   YZ=              0.0000

 Normal termination of Gaussian 16 at Wed Nov 13 13:01:12 2024.
