 Gaussian 16, Revision A.03,
 Gaussian 16:  ES64L-G16RevA.03 25-Dec-2016

 --------------------------------------------
 #p opt UM062X/6-311+G** nosymm int=superfine
 --------------------------------------------

 -------------------
 Title Card Required
 -------------------
 Symbolic Z-matrix:
 Charge =  0 Multiplicity = 1

 SCF Done:  E(UM062X) =  -94.2563898679     A.U. after   14 cycles
 SCF Done:  E(UM062X) =  -94.2599211661     A.U. after   17 cycles
 SCF Done:  E(UM062X) =  -94.2621235211     A.U. after   16 cycles
 SCF Done:  E(UM062X) =  -94.2627348212     A.U. after   13 cycles
 SCF Done:  E(UM062X) =  -94.2640622764     A.U. after   18 cycles
 SCF Done:  E(UM062X) =  -94.2644637278     A.U. after   15 cycles
 SCF Done:  E(UM062X) =  -94.2644531004     A.U. after   17 cycles
 SCF Done:  E(UM062X) =  -94.2644690102     A.U. after   20 cycles
 SCF Done:  E(UM062X) =  -94.2644703846     A.U. after   16 cycles
 SCF Done:  E(UM062X) =  -94.2644706934     A.U. after    7 cycles
 SCF Done:  E(UM062X) =  -94.2644721426     A.U. after    9 cycles
 SCF Done:  E(UM062X) =  -94.2644733319     A.U. after   16 cycles
 SCF Done:  E(UM062X) =  -94.2644736031     A.U. after   22 cycles
 Optimization completed.
    -- Stationary point found.

                          Input orientation:
 ---------------------------------------------------------------------
 Center     Atomic      Atomic             Coordinates (Angstroms)
 Number     Number       Type             X           Y           Z
 ---------------------------------------------------------------------
      1          6           0       -1.606637    0.000000    0.000000
      2          7           0        1.606637    0.000000    0.000000
      3          1           0       -2.455701   -0.707764    0.000450
      4          1           0        1.249456   -0.972267   -0.000083
      5          1           0       -2.082631    0.996435   -0.000255
 ---------------------------------------------------------------------

 Alpha  occ. eigenvalues --  -14.80611 -10.63444  -0.86947  -0.77704  -0.50140
 Alpha  occ. eigenvalues --   -0.43842  -0.33737  -0.31299
 Alpha virt. eigenvalues --   -0.10144  -0.09910   0.01481   0.05410   0.07026
 Alpha virt. eigenvalues --    0.07760   0.12593   0.14196   0.16216   0.17831
 Alpha virt. eigenvalues --    0.18208   0.19534   0.25343   0.43234   0.46418

  Beta  occ. eigenvalues --  -14.80611 -10.63444  -0.86947  -0.77704  -0.50140
  Beta  occ. eigenvalues --   -0.43842  -0.33737  -0.31299
  Beta virt. eigenvalues --   -0.10144  -0.09910   0.01481   0.05410   0.07026
  Beta virt. eigenvalues --    0.07760   0.12593   0.14196   0.16216   0.17831
  Beta virt. eigenvalues --    0.18208   0.19534   0.25343   0.43234   0.46418

 Mulliken charges and spin densities:
               1          2
     1  C   -0.302117  -0.000000
     2  N   -0.207127   0.000000
     3  H    0.152635   0.000000
     4  H    0.204813  -0.000000
     5  H    0.151795   0.000000
 Sum of Mulliken charges =  -0.00000   0.00000

 Dipole moment (field-independent basis, Debye):
    X=             -3.3025    Y=             -1.1615    Z=              0.0002  Tot=              3.5008
 Quadrupole moment (field-independent basis, Debye-Ang):
   XX=             -9.4438   YY=            -12.7404   ZZ=            -14.9512
   XY=             -3.1391   XZ=             -0.0001   YZ=              0.0003

 Normal termination of Gaussian 16 at Mon Apr 21 18:27:40 2025.
