 Gaussian 16, Revision A.03,
 Gaussian 16:  ES64L-G16RevA.03 25-Dec-2016

 ---------------------------------------------------------
 #p opt UM062X/6-311+G** nosymm int=superfine SCF=NoVarAcc
 ---------------------------------------------------------

 -------------------
 Title Card Required
 -------------------
 Symbolic Z-matrix:
 Charge =  1 Multiplicity = 2

 SCF Done:  E(UM062X) =  -77.9166177569     A.U. after   10 cycles
 SCF Done:  E(UM062X) =  -77.9208571272     A.U. after    9 cycles
 SCF Done:  E(UM062X) =  -77.9234532791     A.U. after    9 cycles
 SCF Done:  E(UM062X) =  -77.9234568574     A.U. after    7 cycles
 Optimization completed.
    -- Stationary point found.

                          Input orientation:
 ---------------------------------------------------------------------
 Center     Atomic      Atomic             Coordinates (Angstroms)
 Number     Number       Type             X           Y           Z
 ---------------------------------------------------------------------
      1          6           0       -1.631027    0.000000    0.000000
      2          6           0        1.631027    0.000000    0.000000
      3          1           0       -2.190610   -0.941233    0.000000
      4          1           0       -2.190559    0.941263   -0.000000
      5          1           0        2.190610    0.941233    0.000000
      6          1           0        2.190559   -0.941263   -0.000000
 ---------------------------------------------------------------------

 Alpha  occ. eigenvalues --  -10.89181 -10.89181  -1.00552  -1.00242  -0.75132
 Alpha  occ. eigenvalues --   -0.74970  -0.60129  -0.55980
 Alpha virt. eigenvalues --   -0.32715  -0.31754  -0.13131  -0.10957  -0.09621
 Alpha virt. eigenvalues --   -0.07562  -0.06802  -0.05356  -0.04522  -0.01821
 Alpha virt. eigenvalues --   -0.00978  -0.00183   0.01972   0.06878   0.24797

  Beta  occ. eigenvalues --  -10.88332 -10.88330  -0.98353  -0.97901  -0.74109
  Beta  occ. eigenvalues --   -0.73925  -0.49948
  Beta virt. eigenvalues --   -0.34183  -0.30860  -0.29683  -0.12977  -0.11047
  Beta virt. eigenvalues --   -0.09492  -0.07378  -0.06786  -0.04689  -0.04073
  Beta virt. eigenvalues --   -0.01549  -0.00421   0.00181   0.02020   0.07622

 Mulliken charges and spin densities:
               1          2
     1  C    0.016723   0.485702
     2  C    0.016723   0.485702
     3  H    0.241639   0.007149
     4  H    0.241638   0.007149
     5  H    0.241639   0.007149
     6  H    0.241638   0.007149
 Sum of Mulliken charges =   1.00000   1.00000

 Dipole moment (field-independent basis, Debye):
    X=              0.0000    Y=              0.0000    Z=             -0.0000  Tot=              0.0000
 Quadrupole moment (field-independent basis, Debye-Ang):
   XX=             11.1184   YY=             -9.4335   ZZ=            -10.7301
   XY=             -0.0000   XZ=             -0.0000   YZ=             -0.0000

 Normal termination of Gaussian 16 at Tue Dec  3 13:28:04 2024.
