 Gaussian 16, Revision A.03,
 Gaussian 16:  ES64L-G16RevA.03 25-Dec-2016

 --------------------------------------------
 #p opt UM062X/6-311+G** nosymm int=superfine
 --------------------------------------------

 -------------------
 Title Card Required
 -------------------
 Symbolic Z-matrix:
 Charge =  0 Multiplicity = 1

 SCF Done:  E(UM062X) =  -114.082452314     A.U. after   18 cycles
 SCF Done:  E(UM062X) =  -114.085558799     A.U. after   10 cycles
 SCF Done:  E(UM062X) =  -114.086504394     A.U. after    9 cycles
 SCF Done:  E(UM062X) =  -114.086507636     A.U. after    9 cycles
 Optimization completed.
    -- Stationary point found.

                          Input orientation:
 ---------------------------------------------------------------------
 Center     Atomic      Atomic             Coordinates (Angstroms)
 Number     Number       Type             X           Y           Z
 ---------------------------------------------------------------------
      1          6           0       -2.073311    0.000000    0.000000
      2          8           0        2.073311    0.000000    0.000000
      3          1           0       -2.766649   -0.864078    0.000001
      4          1           0       -2.766654    0.864074    0.000001
 ---------------------------------------------------------------------

 Alpha  occ. eigenvalues --  -19.75828 -10.61699  -1.05509  -0.76436  -0.48457
 Alpha  occ. eigenvalues --   -0.44410  -0.44407  -0.32205
 Alpha virt. eigenvalues --   -0.18375  -0.08945   0.01920   0.06133   0.08064
 Alpha virt. eigenvalues --    0.08250   0.15588   0.16056   0.18691   0.18985
 Alpha virt. eigenvalues --    0.20366   0.23932   0.44022   0.48042   0.58258

  Beta  occ. eigenvalues --  -19.75828 -10.61699  -1.05509  -0.76436  -0.48457
  Beta  occ. eigenvalues --   -0.44410  -0.44407  -0.32205
  Beta virt. eigenvalues --   -0.18375  -0.08945   0.01920   0.06133   0.08064
  Beta virt. eigenvalues --    0.08250   0.15588   0.16056   0.18691   0.18985
  Beta virt. eigenvalues --    0.20366   0.23932   0.44022   0.48042   0.58258

 Mulliken charges and spin densities:
               1          2
     1  C   -0.264282  -0.000000
     2  O   -0.004328   0.000000
     3  H    0.134305   0.000000
     4  H    0.134305   0.000000
 Sum of Mulliken charges =  -0.00000  -0.00000

 Dipole moment (field-independent basis, Debye):
    X=             -2.3283    Y=             -0.0000    Z=              0.0000  Tot=              2.3283
 Quadrupole moment (field-independent basis, Debye-Ang):
   XX=             -4.1446   YY=            -13.1984   ZZ=            -12.4762
   XY=              0.0000   XZ=             -0.0000   YZ=             -0.0000

 Normal termination of Gaussian 16 at Mon Apr 21 19:01:11 2025.
