 Gaussian 16, Revision A.03,
 Gaussian 16:  ES64L-G16RevA.03 25-Dec-2016

 --------------------------------------------
 #p opt UM062X/6-311+G** nosymm int=superfine
 --------------------------------------------

 -------------------
 Title Card Required
 -------------------
 Symbolic Z-matrix:
 Charge =  0 Multiplicity = 1

 SCF Done:  E(UM062X) =  -51.8482953158     A.U. after    9 cycles
 SCF Done:  E(UM062X) =  -51.8523557057     A.U. after    8 cycles
 SCF Done:  E(UM062X) =  -51.8543090393     A.U. after   10 cycles
 SCF Done:  E(UM062X) =  -51.8543094830     A.U. after    8 cycles
 SCF Done:  E(UM062X) =  -51.8542807672     A.U. after    9 cycles
 SCF Done:  E(UM062X) =  -51.8543102993     A.U. after    9 cycles
 Optimization completed.
    -- Stationary point found.

                          Input orientation:
 ---------------------------------------------------------------------
 Center     Atomic      Atomic             Coordinates (Angstroms)
 Number     Number       Type             X           Y           Z
 ---------------------------------------------------------------------
      1          5           0       -1.595607    0.000000    0.000000
      2          5           0        1.595607    0.000000    0.000000
      3          1           0       -2.091368   -1.071565   -0.000819
      4          1           0        2.091368    1.071545   -0.006546
      5          1           0       -2.091369    1.071564    0.000793
      6          1           0        2.091369   -1.071545    0.006477
 ---------------------------------------------------------------------

 Alpha  occ. eigenvalues --   -7.10611  -7.10609  -0.57568  -0.56674  -0.44180
 Alpha  occ. eigenvalues --   -0.43789  -0.23008
 Alpha virt. eigenvalues --   -0.05361  -0.02812  -0.02776   0.02312   0.03779
 Alpha virt. eigenvalues --    0.03874   0.05735   0.06272   0.07620   0.07704
 Alpha virt. eigenvalues --    0.10387   0.15807   0.17162   0.17254   0.25512

  Beta  occ. eigenvalues --   -7.10611  -7.10609  -0.57568  -0.56674  -0.44180
  Beta  occ. eigenvalues --   -0.43789  -0.23008
  Beta virt. eigenvalues --   -0.05361  -0.02812  -0.02776   0.02312   0.03779
  Beta virt. eigenvalues --    0.03874   0.05735   0.06272   0.07620   0.07704
  Beta virt. eigenvalues --    0.10387   0.15807   0.17162   0.17254   0.25512

 Mulliken charges and spin densities:
               1          2
     1  B   -0.049561   0.000000
     2  B   -0.049561  -0.000000
     3  H    0.024781   0.000000
     4  H    0.024781   0.000000
     5  H    0.024781   0.000000
     6  H    0.024781   0.000000
 Sum of Mulliken charges =  -0.00000   0.00000

 Dipole moment (field-independent basis, Debye):
    X=              0.0000    Y=             -0.0000    Z=             -0.0000  Tot=              0.0000
 Quadrupole moment (field-independent basis, Debye-Ang):
   XX=            -13.6776   YY=            -16.8946   ZZ=            -14.1187
   XY=             -0.0000   XZ=              0.0001   YZ=              0.0074

 Normal termination of Gaussian 16 at Mon Apr 21 17:15:48 2025.
