 Gaussian 16, Revision A.03,
 Gaussian 16:  ES64L-G16RevA.03 25-Dec-2016

 ---------------------------------------
 #p UM062X/6-311+G** force int=superfine
 ---------------------------------------

 -------------------
 Title Card Required
 -------------------
 Symbolic Z-matrix:
 Charge =  1 Multiplicity = 2

                         Standard orientation:
 ---------------------------------------------------------------------
 Center     Atomic      Atomic             Coordinates (Angstroms)
 Number     Number       Type             X           Y           Z
 ---------------------------------------------------------------------
      1          6           0        0.000000    0.000000    0.441153
      2          6           0        0.000000    0.000000   -0.441153
      3          1           0        0.000000    0.000000    1.510565
      4          1           0        0.000000    0.000000   -1.510565
 ---------------------------------------------------------------------

 SCF Done:  E(UM062X) =  -76.4305066982     A.U. after    9 cycles

 Unable to determine electronic state:  an orbital has unidentified symmetry.
 Alpha  occ. eigenvalues --  -10.91607 -10.87801  -1.33984  -0.94253  -0.91867
 Alpha  occ. eigenvalues --   -0.87399  -0.83516
 Alpha virt. eigenvalues --   -0.16417  -0.14934  -0.14858  -0.13482  -0.11954
 Alpha virt. eigenvalues --   -0.11907  -0.11539  -0.02412  -0.01505  -0.01138
 Alpha virt. eigenvalues --    0.02574   0.03914   0.16924   0.22451   0.24004

  Beta  occ. eigenvalues --  -10.91143 -10.87476  -1.27374  -0.92747  -0.90859
  Beta  occ. eigenvalues --   -0.80816
  Beta virt. eigenvalues --   -0.55196  -0.15479  -0.14124  -0.13435  -0.13150
  Beta virt. eigenvalues --   -0.12022  -0.11853  -0.11609  -0.00919  -0.00783
  Beta virt. eigenvalues --    0.00201   0.02972   0.04423   0.17355   0.22626

 Mulliken charges and spin densities:
               1          2
     1  C    0.254557   0.522873
     2  C    0.254557   0.522873
     3  H    0.245443  -0.022873
     4  H    0.245443  -0.022873
 Sum of Mulliken charges =   1.00000   1.00000

 Dipole moment (field-independent basis, Debye):
    X=              0.0000    Y=             -0.0000    Z=             -0.0000  Tot=              0.0000
 Quadrupole moment (field-independent basis, Debye-Ang):
   XX=             -9.9213   YY=             -8.4971   ZZ=             -2.6299
   XY=             -0.0000   XZ=             -0.0000   YZ=             -0.0000

 Normal termination of Gaussian 16 at Tue Nov 19 13:25:20 2024.
