 Gaussian 16, Revision A.03,
 Gaussian 16:  ES64L-G16RevA.03 25-Dec-2016

 --------------------------------------------
 #p opt UM062X/6-311+G** nosymm int=superfine
 --------------------------------------------

 -------------------
 Title Card Required
 -------------------
 Symbolic Z-matrix:
 Charge =  1 Multiplicity = 2

 SCF Done:  E(UM062X) =  -78.1428031680     A.U. after    9 cycles
 SCF Done:  E(UM062X) =  -78.1509344371     A.U. after    8 cycles
 SCF Done:  E(UM062X) =  -78.1514366610     A.U. after    8 cycles
 Optimization completed.
    -- Stationary point found.

                          Input orientation:
 ---------------------------------------------------------------------
 Center     Atomic      Atomic             Coordinates (Angstroms)
 Number     Number       Type             X           Y           Z
 ---------------------------------------------------------------------
      1          6           0       -0.622065    0.000000    0.000000
      2          6           0        0.622065    0.000000    0.000000
      3          1           0       -1.207776   -0.918849    0.000000
      4          1           0       -1.207829    0.918745   -0.000000
      5          1           0        1.207776    0.918849    0.000000
      6          1           0        1.207829   -0.918745   -0.000000
 ---------------------------------------------------------------------

 Alpha  occ. eigenvalues --  -10.88373 -10.88167  -1.24459  -0.96876  -0.87176
 Alpha  occ. eigenvalues --   -0.82807  -0.71612  -0.70397
 Alpha virt. eigenvalues --   -0.26061  -0.14826  -0.13507  -0.12463  -0.10336
 Alpha virt. eigenvalues --   -0.07988  -0.06617  -0.04953  -0.04257  -0.03112
 Alpha virt. eigenvalues --   -0.00121   0.03018   0.11661   0.13550   0.21495

  Beta  occ. eigenvalues --  -10.88121 -10.87930  -1.20025  -0.95018  -0.85808
  Beta  occ. eigenvalues --   -0.81897  -0.70125
  Beta virt. eigenvalues --   -0.45176  -0.19782  -0.16483  -0.13405  -0.12436
  Beta virt. eigenvalues --   -0.10997  -0.08935  -0.06665  -0.04783  -0.03099
  Beta virt. eigenvalues --   -0.02722  -0.00379   0.03162   0.12117   0.14169

 Mulliken charges and spin densities:
               1          2
     1  C   -0.044901   0.536655
     2  C   -0.044901   0.536655
     3  H    0.272449  -0.018329
     4  H    0.272451  -0.018326
     5  H    0.272449  -0.018329
     6  H    0.272451  -0.018326
 Sum of Mulliken charges =   1.00000   1.00000

 Dipole moment (field-independent basis, Debye):
    X=              0.0000    Y=             -0.0000    Z=              0.0000  Tot=              0.0000
 Quadrupole moment (field-independent basis, Debye-Ang):
   XX=             -6.1979   YY=             -8.5067   ZZ=            -11.1114
   XY=              0.0000   XZ=             -0.0000   YZ=             -0.0000

 Normal termination of Gaussian 16 at Tue Nov 19 10:56:03 2024.
