 Gaussian 16, Revision A.03,
 Gaussian 16:  ES64L-G16RevA.03 25-Dec-2016

 --------------------------------------------
 #p opt UM062X/6-311+G** nosymm int=superfine
 --------------------------------------------

 -------------------
 Title Card Required
 -------------------
 Symbolic Z-matrix:
 Charge =  0 Multiplicity = 1

 SCF Done:  E(UM062X) =  -92.8318219036     A.U. after   12 cycles
 SCF Done:  E(UM062X) =  -92.8337972640     A.U. after   11 cycles
 SCF Done:  E(UM062X) =  -92.8338081454     A.U. after    8 cycles
 Optimization completed.
    -- Stationary point found.

                          Input orientation:
 ---------------------------------------------------------------------
 Center     Atomic      Atomic             Coordinates (Angstroms)
 Number     Number       Type             X           Y           Z
 ---------------------------------------------------------------------
      1          6           0       -1.697395    0.000000    0.000000
      2          7           0        1.697395    0.000000    0.000000
      3          1           0       -2.823029    0.000000    0.000000
 ---------------------------------------------------------------------

 Alpha  occ. eigenvalues --  -14.82200 -10.76174  -0.80095  -0.76765  -0.45221
 Alpha  occ. eigenvalues --   -0.26777  -0.26777
 Alpha virt. eigenvalues --   -0.17836  -0.17836  -0.08307   0.00049   0.06508
 Alpha virt. eigenvalues --    0.06508   0.07808   0.12787   0.16353   0.17281
 Alpha virt. eigenvalues --    0.17281   0.23979   0.42203   0.52155   0.52155

  Beta  occ. eigenvalues --  -14.82200 -10.76174  -0.80095  -0.76765  -0.45221
  Beta  occ. eigenvalues --   -0.26777  -0.26777
  Beta virt. eigenvalues --   -0.17836  -0.17836  -0.08307   0.00049   0.06508
  Beta virt. eigenvalues --    0.06508   0.07808   0.12787   0.16353   0.17281
  Beta virt. eigenvalues --    0.17281   0.23979   0.42203   0.52155   0.52155

 Mulliken charges and spin densities:
               1          2
     1  C    0.061061  -0.000000
     2  N   -0.237539   0.000000
     3  H    0.176479   0.000000
 Sum of Mulliken charges =  -0.00000  -0.00000

 Dipole moment (field-independent basis, Debye):
    X=             -5.8071    Y=              0.0000    Z=              0.0000  Tot=              5.8071
 Quadrupole moment (field-independent basis, Debye-Ang):
   XX=             -4.8066   YY=            -14.2788   ZZ=            -14.2788
   XY=             -0.0000   XZ=             -0.0000   YZ=              0.0000

 Normal termination of Gaussian 16 at Mon Apr 21 18:38:48 2025.
