 Gaussian 16, Revision A.03,
 Gaussian 16:  ES64L-G16RevA.03 25-Dec-2016

 ---------------------------------------------------
 #p UM062X/6-311+G** force int=superfine pop=saveNBO
 ---------------------------------------------------

 -------------------
 Title Card Required
 -------------------
 Symbolic Z-matrix:
 Charge =  0 Multiplicity = 1

                         Standard orientation:
 ---------------------------------------------------------------------
 Center     Atomic      Atomic             Coordinates (Angstroms)
 Number     Number       Type             X           Y           Z
 ---------------------------------------------------------------------
      1          8           0        0.000000    0.000000    1.668562
      2          8           0        0.000000    0.000000   -1.668562
 ---------------------------------------------------------------------

 SCF Done:  E(UM062X) =  -149.790280076     A.U. after    9 cycles

 Unable to determine electronic state:  partially filled degenerate orbitals.
 Alpha  occ. eigenvalues --  -19.82622 -19.82620  -1.10361  -1.09899  -0.48650
 Alpha  occ. eigenvalues --   -0.48416  -0.40612  -0.39766
 Alpha virt. eigenvalues --   -0.31088  -0.30070   0.09350   0.12550   0.14387
 Alpha virt. eigenvalues --    0.14436   0.18556   0.19336   0.19577   0.28744
 Alpha virt. eigenvalues --    0.99934   1.01198   1.01299   1.02388   1.02612

  Beta  occ. eigenvalues --  -19.82622 -19.82620  -1.10361  -1.09899  -0.48650
  Beta  occ. eigenvalues --   -0.48416  -0.40612  -0.39766
  Beta virt. eigenvalues --   -0.31088  -0.30070   0.09350   0.12550   0.14387
  Beta virt. eigenvalues --    0.14436   0.18556   0.19336   0.19577   0.28744
  Beta virt. eigenvalues --    0.99934   1.01198   1.01299   1.02388   1.02612

 Mulliken charges and spin densities:
               1          2
     1  O    0.000000  -0.000000
     2  O    0.000000  -0.000000
 Sum of Mulliken charges =   0.00000  -0.00000

 Dipole moment (field-independent basis, Debye):
    X=              0.0000    Y=             -0.0000    Z=              0.0000  Tot=              0.0000
 Quadrupole moment (field-independent basis, Debye-Ang):
   XX=            -12.0404   YY=            -10.1803   ZZ=             -9.2488
   XY=             -0.0000   XZ=             -0.0000   YZ=              0.0000

 Summary of Natural Population Analysis:

                                       Natural Population
                Natural  -----------------------------------------------
    Atom  No    Charge         Core      Valence    Rydberg      Total
 -----------------------------------------------------------------------
      O    1    0.00000      1.00000     2.99901    0.00099     4.00000
      O    2    0.00000      1.00000     2.99901    0.00099     4.00000
 =======================================================================
   * Total *    0.00000      2.00000     5.99802    0.00198     8.00000

 Normal termination of Gaussian 16 at Mon Apr 21 19:54:35 2025.
