 Gaussian 16, Revision A.03,
 Gaussian 16:  ES64L-G16RevA.03 25-Dec-2016

 --------------------------------------------
 #p opt UM062X/6-311+G** nosymm int=superfine
 --------------------------------------------

 -------------------
 Title Card Required
 -------------------
 Symbolic Z-matrix:
 Charge =  0 Multiplicity = 1

 SCF Done:  E(UM062X) =  -474.424786023     A.U. after   18 cycles
 SCF Done:  E(UM062X) =  -474.427469460     A.U. after   15 cycles
 SCF Done:  E(UM062X) =  -474.429565700     A.U. after   15 cycles
 SCF Done:  E(UM062X) =  -474.429598564     A.U. after   16 cycles
 SCF Done:  E(UM062X) =  -474.429599924     A.U. after   14 cycles
 SCF Done:  E(UM062X) =  -474.429600454     A.U. after   15 cycles
 SCF Done:  E(UM062X) =  -474.429600734     A.U. after   15 cycles
 SCF Done:  E(UM062X) =  -474.429600820     A.U. after   10 cycles
 Optimization completed.
    -- Stationary point found.

                          Input orientation:
 ---------------------------------------------------------------------
 Center     Atomic      Atomic             Coordinates (Angstroms)
 Number     Number       Type             X           Y           Z
 ---------------------------------------------------------------------
      1          8           0       -1.389392    0.000000    0.000000
      2         16           0        1.389392    0.000000    0.000000
      3          1           0       -1.399664   -0.929527   -0.276303
      4          1           0        1.247058    0.430233    1.267235
 ---------------------------------------------------------------------

 Alpha  occ. eigenvalues --  -89.97720 -19.67526  -8.33782  -6.26002  -6.25628
 Alpha  occ. eigenvalues --   -6.25070  -1.08682  -0.83441  -0.52696  -0.49321
 Alpha  occ. eigenvalues --   -0.39892  -0.37480  -0.35238
 Alpha virt. eigenvalues --   -0.18601   0.01616   0.04020   0.04689   0.05594
 Alpha virt. eigenvalues --    0.07297   0.14545   0.19455   0.19986   0.21363
 Alpha virt. eigenvalues --    0.26287   0.31143   0.34015   0.35533   0.39839

  Beta  occ. eigenvalues --  -89.97720 -19.67526  -8.33782  -6.26002  -6.25628
  Beta  occ. eigenvalues --   -6.25070  -1.08682  -0.83441  -0.52696  -0.49321
  Beta  occ. eigenvalues --   -0.39892  -0.37480  -0.35238
  Beta virt. eigenvalues --   -0.18601   0.01616   0.04020   0.04689   0.05594
  Beta virt. eigenvalues --    0.07297   0.14545   0.19455   0.19986   0.21363
  Beta virt. eigenvalues --    0.26287   0.31143   0.34015   0.35533   0.39839

 Mulliken charges and spin densities:
               1          2
     1  O   -0.423378  -0.000008
     2  S    0.062514   0.000008
     3  H    0.249005   0.000000
     4  H    0.111859  -0.000000
 Sum of Mulliken charges =  -0.00000   0.00000

 Dipole moment (field-independent basis, Debye):
    X=              1.9959    Y=             -1.2576    Z=              0.6171  Tot=              2.4384
 Quadrupole moment (field-independent basis, Debye-Ang):
   XX=            -18.1945   YY=            -19.8919   ZZ=            -18.7214
   XY=              3.1017   XZ=              2.3511   YZ=              1.9488

 Normal termination of Gaussian 16 at Thu May 15 13:01:40 2025.
