 Gaussian 16, Revision A.03,
 Gaussian 16:  ES64L-G16RevA.03 25-Dec-2016

 --------------------------------------------
 #p opt UM062X/6-311+G** nosymm int=superfine
 --------------------------------------------

 -------------------
 Title Card Required
 -------------------
 Symbolic Z-matrix:
 Charge =  0 Multiplicity = 1

 SCF Done:  E(UM062X) =  -77.4066951646     A.U. after   11 cycles
 SCF Done:  E(UM062X) =  -77.4759832191     A.U. after    8 cycles
 SCF Done:  E(UM062X) =  -77.5491632399     A.U. after    9 cycles
 SCF Done:  E(UM062X) =  -77.5609772679     A.U. after    8 cycles
 SCF Done:  E(UM062X) =  -77.5610373981     A.U. after    7 cycles
 Optimization completed.
    -- Stationary point found.

                          Input orientation:
 ---------------------------------------------------------------------
 Center     Atomic      Atomic             Coordinates (Angstroms)
 Number     Number       Type             X           Y           Z
 ---------------------------------------------------------------------
      1          6           0       -0.397723    0.000000    0.000000
      2          6           0        0.397723    0.000000    0.000000
      3          1           0       -1.113968   -0.850709   -0.000000
      4          1           0       -1.113911    0.850879   -0.000000
      5          1           0        1.113968    0.850709    0.000000
      6          1           0        1.113911   -0.850879    0.000000
 ---------------------------------------------------------------------

 Alpha  occ. eigenvalues --  -10.53857 -10.45879  -0.94287  -0.62622  -0.60788
 Alpha  occ. eigenvalues --   -0.53362  -0.50351  -0.29357
 Alpha virt. eigenvalues --    0.03012   0.03292   0.04216   0.05942   0.07994
 Alpha virt. eigenvalues --    0.09266   0.09851   0.15461   0.15997   0.18689
 Alpha virt. eigenvalues --    0.24361   0.25340   0.36464   0.41899   0.43508

  Beta  occ. eigenvalues --  -10.53857 -10.45879  -0.94287  -0.62622  -0.60788
  Beta  occ. eigenvalues --   -0.53362  -0.50351  -0.29357
  Beta virt. eigenvalues --    0.03012   0.03292   0.04216   0.05942   0.07994
  Beta virt. eigenvalues --    0.09266   0.09851   0.15461   0.15997   0.18689
  Beta virt. eigenvalues --    0.24361   0.25340   0.36464   0.41899   0.43508

 Mulliken charges and spin densities:
               1          2
     1  C   -0.243072   0.000000
     2  C   -0.243072  -0.000000
     3  H    0.121552   0.000000
     4  H    0.121520   0.000000
     5  H    0.121552  -0.000000
     6  H    0.121520  -0.000000
 Sum of Mulliken charges =  -0.00000  -0.00000

 Dipole moment (field-independent basis, Debye):
    X=              0.0000    Y=             -0.0000    Z=              0.0000  Tot=              0.0000
 Quadrupole moment (field-independent basis, Debye-Ang):
   XX=            -12.6707   YY=            -12.5534   ZZ=            -13.3246
   XY=              0.0005   XZ=              0.0000   YZ=              0.0000

 Normal termination of Gaussian 16 at Tue Nov 19 10:16:14 2024.
