 Gaussian 16, Revision A.03,
 Gaussian 16:  ES64L-G16RevA.03 25-Dec-2016

 ---------------------------------------------------------
 #p opt UM062X/6-311+G** nosymm int=superfine SCF=NoVarAcc
 ---------------------------------------------------------

 -------------------
 Title Card Required
 -------------------
 Symbolic Z-matrix:
 Charge =  1 Multiplicity = 2

 SCF Done:  E(UM062X) =  -77.9152920769     A.U. after   10 cycles
 SCF Done:  E(UM062X) =  -77.9194815996     A.U. after    9 cycles
 SCF Done:  E(UM062X) =  -77.9220614035     A.U. after    9 cycles
 SCF Done:  E(UM062X) =  -77.9220649350     A.U. after    7 cycles
 Optimization completed.
    -- Stationary point found.

                          Input orientation:
 ---------------------------------------------------------------------
 Center     Atomic      Atomic             Coordinates (Angstroms)
 Number     Number       Type             X           Y           Z
 ---------------------------------------------------------------------
      1          6           0       -1.656027    0.000000    0.000000
      2          6           0        1.656027    0.000000    0.000000
      3          1           0       -2.215214   -0.941507    0.000000
      4          1           0       -2.215162    0.941537    0.000000
      5          1           0        2.215214    0.941507    0.000000
      6          1           0        2.215162   -0.941537    0.000000
 ---------------------------------------------------------------------

 Alpha  occ. eigenvalues --  -10.89145 -10.89144  -1.00493  -1.00217  -0.75092
 Alpha  occ. eigenvalues --   -0.74947  -0.59927  -0.56092
 Alpha virt. eigenvalues --   -0.32632  -0.31742  -0.13096  -0.10952  -0.09583
 Alpha virt. eigenvalues --   -0.07536  -0.06774  -0.05349  -0.04501  -0.01813
 Alpha virt. eigenvalues --   -0.00928  -0.00147   0.01984   0.06783   0.25103

  Beta  occ. eigenvalues --  -10.88299 -10.88298  -0.98294  -0.97875  -0.74067
  Beta  occ. eigenvalues --   -0.73901  -0.49662
  Beta virt. eigenvalues --   -0.34385  -0.30775  -0.29679  -0.12934  -0.11042
  Beta virt. eigenvalues --   -0.09447  -0.07343  -0.06765  -0.04672  -0.04014
  Beta virt. eigenvalues --   -0.01540  -0.00361   0.00226   0.02038   0.07528

 Mulliken charges and spin densities:
               1          2
     1  C    0.017249   0.485774
     2  C    0.017249   0.485774
     3  H    0.241376   0.007113
     4  H    0.241375   0.007113
     5  H    0.241376   0.007113
     6  H    0.241375   0.007113
 Sum of Mulliken charges =   1.00000   1.00000

 Dipole moment (field-independent basis, Debye):
    X=              0.0000    Y=              0.0000    Z=              0.0000  Tot=              0.0000
 Quadrupole moment (field-independent basis, Debye-Ang):
   XX=             11.7078   YY=             -9.4311   ZZ=            -10.7327
   XY=             -0.0000   XZ=             -0.0000   YZ=             -0.0000

 Normal termination of Gaussian 16 at Tue Dec  3 13:28:27 2024.
