 Gaussian 16, Revision A.03,
 Gaussian 16:  ES64L-G16RevA.03 25-Dec-2016

 ---------------------------------------------------
 #p UM062X/6-311+G** force int=superfine pop=saveNBO
 ---------------------------------------------------

 -------------------
 Title Card Required
 -------------------
 Symbolic Z-matrix:
 Charge =  0 Multiplicity = 1

                         Standard orientation:
 ---------------------------------------------------------------------
 Center     Atomic      Atomic             Coordinates (Angstroms)
 Number     Number       Type             X           Y           Z
 ---------------------------------------------------------------------
      1         16           0        0.000000    0.000000    1.975200
      2         16           0        0.000000    0.000000   -1.975200
 ---------------------------------------------------------------------

 SCF Done:  E(UM062X) =  -796.036060152     A.U. after    9 cycles

 Unable to determine electronic state:  partially filled degenerate orbitals.
 Alpha  occ. eigenvalues --  -89.98797 -89.98797  -8.34592  -8.34592  -6.26621
 Alpha  occ. eigenvalues --   -6.26620  -6.26602  -6.26602  -6.25776  -6.25776
 Alpha  occ. eigenvalues --   -0.78157  -0.77420  -0.34919  -0.34434  -0.32585
 Alpha  occ. eigenvalues --   -0.31200
 Alpha virt. eigenvalues --   -0.23721  -0.22269   0.02983   0.03872   0.04729
 Alpha virt. eigenvalues --    0.05170   0.07063   0.07318   0.07509   0.12404
 Alpha virt. eigenvalues --    0.31108   0.32333   0.33183   0.35868   0.36358

  Beta  occ. eigenvalues --  -89.98797 -89.98797  -8.34592  -8.34592  -6.26621
  Beta  occ. eigenvalues --   -6.26620  -6.26602  -6.26602  -6.25776  -6.25776
  Beta  occ. eigenvalues --   -0.78157  -0.77420  -0.34919  -0.34434  -0.32585
  Beta  occ. eigenvalues --   -0.31200
  Beta virt. eigenvalues --   -0.23721  -0.22269   0.02983   0.03872   0.04729
  Beta virt. eigenvalues --    0.05170   0.07063   0.07318   0.07509   0.12404
  Beta virt. eigenvalues --    0.31108   0.32333   0.33183   0.35868   0.36358

 Mulliken charges and spin densities:
               1          2
     1  S    0.000000   0.000000
     2  S    0.000000   0.000000
 Sum of Mulliken charges =   0.00000   0.00000

 Dipole moment (field-independent basis, Debye):
    X=             -0.0000    Y=             -0.0000    Z=              0.0000  Tot=              0.0000
 Quadrupole moment (field-independent basis, Debye-Ang):
   XX=            -25.3896   YY=            -30.4015   ZZ=            -22.6180
   XY=              0.0000   XZ=             -0.0000   YZ=              0.0000

 Summary of Natural Population Analysis:

                                       Natural Population
                Natural  -----------------------------------------------
    Atom  No    Charge         Core      Valence    Rydberg      Total
 -----------------------------------------------------------------------
      S    1    0.00000      5.00000     2.99925    0.00075     8.00000
      S    2    0.00000      5.00000     2.99925    0.00075     8.00000
 =======================================================================
   * Total *    0.00000      9.99999     5.99850    0.00150    16.00000

 Normal termination of Gaussian 16 at Mon Apr 21 20:03:44 2025.
