 Gaussian 16, Revision A.03,
 Gaussian 16:  ES64L-G16RevA.03 25-Dec-2016

 --------------------------------------------
 #p opt UM062X/6-311+G** nosymm int=superfine
 --------------------------------------------

 -------------------
 Title Card Required
 -------------------
 Symbolic Z-matrix:
 Charge =  1 Multiplicity = 2

 SCF Done:  E(UM062X) =  -79.3138835585     A.U. after   12 cycles
 SCF Done:  E(UM062X) =  -79.3408461471     A.U. after   13 cycles
 SCF Done:  E(UM062X) =  -79.3452573640     A.U. after   11 cycles
 SCF Done:  E(UM062X) =  -79.3454863565     A.U. after   11 cycles
 SCF Done:  E(UM062X) =  -79.3472763680     A.U. after   13 cycles
 SCF Done:  E(UM062X) =  -79.3563029246     A.U. after   15 cycles
 SCF Done:  E(UM062X) =  -79.3608866381     A.U. after   12 cycles
 SCF Done:  E(UM062X) =  -79.3622893627     A.U. after   12 cycles
 SCF Done:  E(UM062X) =  -79.3622262506     A.U. after   12 cycles
 SCF Done:  E(UM062X) =  -79.3625093014     A.U. after   11 cycles
 SCF Done:  E(UM062X) =  -79.3625695839     A.U. after   11 cycles
 SCF Done:  E(UM062X) =  -79.3666785831     A.U. after   14 cycles
 SCF Done:  E(UM062X) =  -79.3620556136     A.U. after   12 cycles
 SCF Done:  E(UM062X) =  -79.3695128173     A.U. after   12 cycles
 SCF Done:  E(UM062X) =  -79.3714998881     A.U. after   11 cycles
 SCF Done:  E(UM062X) =  -79.3718656382     A.U. after   10 cycles
 SCF Done:  E(UM062X) =  -79.3719322061     A.U. after    9 cycles
 SCF Done:  E(UM062X) =  -79.3719440183     A.U. after   10 cycles
 SCF Done:  E(UM062X) =  -79.3719453712     A.U. after    8 cycles
 Optimization completed.
    -- Stationary point found.

                          Input orientation:
 ---------------------------------------------------------------------
 Center     Atomic      Atomic             Coordinates (Angstroms)
 Number     Number       Type             X           Y           Z
 ---------------------------------------------------------------------
      1          6           0       -0.784670    0.000000    0.000000
      2          6           0        0.784670    0.000000    0.000000
      3          1           0        1.256506   -0.919266    0.334069
      4          1           0       -1.256691   -0.920433   -0.330228
      5          1           0        1.257347    0.919928    0.330794
      6          1           0        0.661982   -0.001487   -1.138335
      7          1           0       -1.257156    0.918769   -0.334605
      8          1           0       -0.661989    0.003341    1.138331
 ---------------------------------------------------------------------

 Alpha  occ. eigenvalues --  -10.85253 -10.85220  -1.17636  -0.99106  -0.82882
 Alpha  occ. eigenvalues --   -0.80573  -0.75403  -0.71090  -0.64593
 Alpha virt. eigenvalues --   -0.17413  -0.12894  -0.12156  -0.11732  -0.10700
 Alpha virt. eigenvalues --   -0.07697  -0.06472  -0.05903  -0.05707  -0.02019
 Alpha virt. eigenvalues --   -0.00350   0.00206   0.02935   0.03551   0.03996

  Beta  occ. eigenvalues --  -10.85023 -10.84993  -1.14689  -0.96179  -0.79756
  Beta  occ. eigenvalues --   -0.77802  -0.73866  -0.70521
  Beta virt. eigenvalues --   -0.42540  -0.17116  -0.13012  -0.11596  -0.11568
  Beta virt. eigenvalues --   -0.10304  -0.07775  -0.06522  -0.05454  -0.03715
  Beta virt. eigenvalues --   -0.01674   0.00195   0.00602   0.03699   0.04267

 Mulliken charges and spin densities:
               1          2
     1  C   -0.362541   0.367414
     2  C   -0.362534   0.367414
     3  H    0.277245  -0.015710
     4  H    0.277244  -0.015708
     5  H    0.277256  -0.015665
     6  H    0.308035   0.163961
     7  H    0.277260  -0.015668
     8  H    0.308035   0.163962
 Sum of Mulliken charges =   1.00000   1.00000

 Dipole moment (field-independent basis, Debye):
    X=             -0.0000    Y=              0.0013    Z=              0.0000  Tot=              0.0013
 Quadrupole moment (field-independent basis, Debye-Ang):
   XX=             -8.1315   YY=            -10.8743   ZZ=             -9.9778
   XY=             -0.0004   XZ=             -0.2828   YZ=              0.0020

 Normal termination of Gaussian 16 at Wed Nov 13 13:12:05 2024.
