 Gaussian 16, Revision A.03,
 Gaussian 16:  ES64L-G16RevA.03 25-Dec-2016

 ---------------------------------------
 #p UM062X/6-311+G** force int=superfine
 ---------------------------------------

 -------------------
 Title Card Required
 -------------------
 Symbolic Z-matrix:
 Charge =  0 Multiplicity = 1

                         Standard orientation:
 ---------------------------------------------------------------------
 Center     Atomic      Atomic             Coordinates (Angstroms)
 Number     Number       Type             X           Y           Z
 ---------------------------------------------------------------------
      1          6           0        0.649048    0.000006   -0.000004
      2          6           0       -0.649048   -0.000007    0.000003
      3          1           0       -1.098055   -0.948302    0.323853
      4          1           0        1.098049   -0.193670    0.983185
      5          1           0       -1.098051    0.193673   -0.983183
      6          1           0       -1.098090    0.754629    0.659297
      7          1           0        1.098055    0.948304   -0.323849
      8          1           0        1.098092   -0.754630   -0.659294
 ---------------------------------------------------------------------

 SCF Done:  E(UM062X) =  -79.7577343184     A.U. after    8 cycles

 The electronic state is 1-A.
 Alpha  occ. eigenvalues --  -10.50689 -10.50560  -0.90183  -0.68694  -0.52483
 Alpha  occ. eigenvalues --   -0.52482  -0.47962  -0.37415  -0.37415
 Alpha virt. eigenvalues --    0.02123   0.04198   0.05146   0.05146   0.08729
 Alpha virt. eigenvalues --    0.08900   0.08900   0.14170   0.19351   0.19352
 Alpha virt. eigenvalues --    0.20013   0.20014   0.24079   0.27941   0.35957

  Beta  occ. eigenvalues --  -10.50689 -10.50560  -0.90183  -0.68694  -0.52483
  Beta  occ. eigenvalues --   -0.52482  -0.47962  -0.37415  -0.37415
  Beta virt. eigenvalues --    0.02123   0.04198   0.05146   0.05146   0.08729
  Beta virt. eigenvalues --    0.08900   0.08900   0.14170   0.19351   0.19352
  Beta virt. eigenvalues --    0.20013   0.20014   0.24079   0.27941   0.35957

 Mulliken charges and spin densities:
               1          2
     1  C   -0.445667  -0.000000
     2  C   -0.445667   0.000000
     3  H    0.148557  -0.000000
     4  H    0.148555   0.000000
     5  H    0.148555  -0.000000
     6  H    0.148555  -0.000000
     7  H    0.148557   0.000000
     8  H    0.148556   0.000000
 Sum of Mulliken charges =  -0.00000  -0.00000

 Dipole moment (field-independent basis, Debye):
    X=             -0.0000    Y=              0.0000    Z=              0.0000  Tot=              0.0000
 Quadrupole moment (field-independent basis, Debye-Ang):
   XX=            -15.6288   YY=            -14.9612   ZZ=            -14.9614
   XY=             -0.0000   XZ=             -0.0001   YZ=             -0.0000

 Normal termination of Gaussian 16 at Tue Nov 19 12:40:10 2024.
