 Gaussian 16, Revision A.03,
 Gaussian 16:  ES64L-G16RevA.03 25-Dec-2016

 --------------------------------------------
 #p opt UM062X/6-311+G** nosymm int=superfine
 --------------------------------------------

 -------------------
 Title Card Required
 -------------------
 Symbolic Z-matrix:
 Charge =  0 Multiplicity = 1

 SCF Done:  E(UM062X) =  -683.585531821     A.U. after   11 cycles
 SCF Done:  E(UM062X) =  -683.585799962     A.U. after   10 cycles
 SCF Done:  E(UM062X) =  -683.586267583     A.U. after   11 cycles
 SCF Done:  E(UM062X) =  -683.586377380     A.U. after   13 cycles
 SCF Done:  E(UM062X) =  -683.586378130     A.U. after   13 cycles
 Optimization completed.
    -- Stationary point found.

                          Input orientation:
 ---------------------------------------------------------------------
 Center     Atomic      Atomic             Coordinates (Angstroms)
 Number     Number       Type             X           Y           Z
 ---------------------------------------------------------------------
      1         15           0       -2.209490    0.000000    0.000000
      2         15           0        2.209490    0.000000    0.000000
      3          1           0       -2.062077   -1.416106   -0.000000
      4          1           0        2.062077    1.416106   -0.000000
 ---------------------------------------------------------------------

 Alpha  occ. eigenvalues --  -78.08339 -78.08339  -6.90393  -6.90393  -5.01802
 Alpha  occ. eigenvalues --   -5.01802  -5.01784  -5.01784  -5.01607  -5.01607
 Alpha  occ. eigenvalues --   -0.68607  -0.68124  -0.40566  -0.40471  -0.25168
 Alpha  occ. eigenvalues --   -0.23898
 Alpha virt. eigenvalues --   -0.17214  -0.15840   0.01899   0.03040   0.03718
 Alpha virt. eigenvalues --    0.04467   0.05554   0.06012   0.06406   0.07484
 Alpha virt. eigenvalues --    0.08293   0.11439   0.28546   0.29039   0.30560

  Beta  occ. eigenvalues --  -78.08339 -78.08339  -6.90393  -6.90393  -5.01802
  Beta  occ. eigenvalues --   -5.01802  -5.01784  -5.01784  -5.01607  -5.01607
  Beta  occ. eigenvalues --   -0.68607  -0.68124  -0.40566  -0.40471  -0.25168
  Beta  occ. eigenvalues --   -0.23898
  Beta virt. eigenvalues --   -0.17214  -0.15840   0.01899   0.03040   0.03718
  Beta virt. eigenvalues --    0.04467   0.05554   0.06012   0.06406   0.07484
  Beta virt. eigenvalues --    0.08293   0.11439   0.28546   0.29039   0.30560

 Mulliken charges and spin densities:
               1          2
     1  P    0.011188   0.000000
     2  P    0.011188  -0.000000
     3  H   -0.011188  -0.000000
     4  H   -0.011188  -0.000000
 Sum of Mulliken charges =  -0.00000  -0.00000

 Dipole moment (field-independent basis, Debye):
    X=              0.0000    Y=              0.0000    Z=             -0.0000  Tot=              0.0000
 Quadrupole moment (field-independent basis, Debye-Ang):
   XX=            -27.0423   YY=            -28.5084   ZZ=            -30.7808
   XY=              3.3750   XZ=              0.0000   YZ=              0.0000

 Normal termination of Gaussian 16 at Mon Apr 21 21:14:26 2025.
