 Gaussian 16, Revision A.03,
 Gaussian 16:  ES64L-G16RevA.03 25-Dec-2016

 --------------------------------------------
 #p opt UM062X/6-311+G** nosymm int=superfine
 --------------------------------------------

 -------------------
 Title Card Required
 -------------------
 Symbolic Z-matrix:
 Charge =  0 Multiplicity = 1

 SCF Done:  E(UM062X) =  -81.6879335187     A.U. after   25 cycles
 SCF Done:  E(UM062X) =  -81.6996118635     A.U. after   16 cycles
 SCF Done:  E(UM062X) =  -81.7049462633     A.U. after   16 cycles
 SCF Done:  E(UM062X) =  -81.7064148872     A.U. after   17 cycles
 SCF Done:  E(UM062X) =  -81.7088462409     A.U. after   14 cycles
 SCF Done:  E(UM062X) =  -81.7103833719     A.U. after   17 cycles
 SCF Done:  E(UM062X) =  -81.7106286572     A.U. after   15 cycles
 SCF Done:  E(UM062X) =  -81.7108944678     A.U. after   14 cycles
 SCF Done:  E(UM062X) =  -81.7112316288     A.U. after   14 cycles
 SCF Done:  E(UM062X) =  -81.7113729984     A.U. after   14 cycles
 SCF Done:  E(UM062X) =  -81.7114254124     A.U. after   13 cycles
 SCF Done:  E(UM062X) =  -81.7114366444     A.U. after   13 cycles
 SCF Done:  E(UM062X) =  -81.7114375202     A.U. after   10 cycles
 Optimization completed.
    -- Stationary point found.

                          Input orientation:
 ---------------------------------------------------------------------
 Center     Atomic      Atomic             Coordinates (Angstroms)
 Number     Number       Type             X           Y           Z
 ---------------------------------------------------------------------
      1          5           0       -2.170399    0.000000    0.000000
      2          7           0        2.170399    0.000000    0.000000
      3          1           0       -2.481596   -1.129285   -0.028692
      4          1           0        2.145007    0.802248    0.638349
      5          1           0       -2.481596    1.129272   -0.029216
      6          1           0        2.145007   -0.802007    0.638652
 ---------------------------------------------------------------------

 Alpha  occ. eigenvalues --  -14.71351  -7.18706  -0.87191  -0.63615  -0.52435
 Alpha  occ. eigenvalues --   -0.47848  -0.33112  -0.21973
 Alpha virt. eigenvalues --   -0.12833  -0.09525   0.00405   0.02433   0.04121
 Alpha virt. eigenvalues --    0.04999   0.08730   0.10975   0.13541   0.17364
 Alpha virt. eigenvalues --    0.19512   0.19842   0.21832   0.25820   0.31796

  Beta  occ. eigenvalues --  -14.71351  -7.18706  -0.87191  -0.63615  -0.52435
  Beta  occ. eigenvalues --   -0.47848  -0.33112  -0.21973
  Beta virt. eigenvalues --   -0.12833  -0.09525   0.00405   0.02433   0.04121
  Beta virt. eigenvalues --    0.04999   0.08730   0.10975   0.13541   0.17364
  Beta virt. eigenvalues --    0.19512   0.19842   0.21832   0.25820   0.31796

 Mulliken charges and spin densities:
               1          2
     1  B    0.130892   0.000007
     2  N   -0.674945  -0.000007
     3  H    0.073212   0.000000
     4  H    0.198815   0.000000
     5  H    0.073212   0.000000
     6  H    0.198815   0.000000
 Sum of Mulliken charges =  -0.00000  -0.00000

 Dipole moment (field-independent basis, Debye):
    X=             -6.2087    Y=              0.0004    Z=              1.9000  Tot=              6.4929
 Quadrupole moment (field-independent basis, Debye-Ang):
   XX=            -13.7593   YY=            -13.4680   ZZ=            -14.6517
   XY=              0.0008   XZ=              4.3272   YZ=             -0.0002

 Normal termination of Gaussian 16 at Mon Apr 21 17:56:18 2025.
