 Gaussian 16, Revision A.03,
 Gaussian 16:  ES64L-G16RevA.03 25-Dec-2016

 --------------------------------------------
 #p opt UM062X/6-311+G** nosymm int=superfine
 --------------------------------------------

 -------------------
 Title Card Required
 -------------------
 Symbolic Z-matrix:
 Charge =  0 Multiplicity = 1

 SCF Done:  E(UM062X) =  -79.7217653171     A.U. after    8 cycles
 SCF Done:  E(UM062X) =  -79.7421551317     A.U. after    8 cycles
 SCF Done:  E(UM062X) =  -79.7510842734     A.U. after    8 cycles
 SCF Done:  E(UM062X) =  -79.7511337788     A.U. after    7 cycles
 Optimization completed.
    -- Stationary point found.

                          Input orientation:
 ---------------------------------------------------------------------
 Center     Atomic      Atomic             Coordinates (Angstroms)
 Number     Number       Type             X           Y           Z
 ---------------------------------------------------------------------
      1          6           0       -0.977340    0.000000    0.000000
      2          6           0        0.977440    0.000000    0.000000
      3          1           0        1.280259   -0.902418    0.522205
      4          1           0       -1.280161   -0.903437   -0.520444
      5          1           0        1.280262    0.903436    0.520443
      6          1           0        1.280305   -0.001018   -1.042605
      7          1           0       -1.280159    0.902418   -0.522205
      8          1           0       -1.280207    0.001017    1.042603
 ---------------------------------------------------------------------

 Alpha  occ. eigenvalues --  -10.54307 -10.54297  -0.79532  -0.72252  -0.48515
 Alpha  occ. eigenvalues --   -0.48514  -0.43900  -0.43900  -0.34337
 Alpha virt. eigenvalues --    0.02306   0.03030   0.05639   0.05639   0.08530
 Alpha virt. eigenvalues --    0.08530   0.09410   0.12378   0.14303   0.18242
 Alpha virt. eigenvalues --    0.18243   0.21969   0.21969   0.24279   0.27149

  Beta  occ. eigenvalues --  -10.54307 -10.54297  -0.79532  -0.72252  -0.48515
  Beta  occ. eigenvalues --   -0.48514  -0.43900  -0.43900  -0.34337
  Beta virt. eigenvalues --    0.02306   0.03030   0.05639   0.05639   0.08530
  Beta virt. eigenvalues --    0.08530   0.09410   0.12378   0.14303   0.18242
  Beta virt. eigenvalues --    0.18243   0.21969   0.21969   0.24279   0.27149

 Mulliken charges and spin densities:
               1          2
     1  C   -0.495201  -0.000000
     2  C   -0.495201   0.000000
     3  H    0.165067  -0.000000
     4  H    0.165067   0.000000
     5  H    0.165067  -0.000000
     6  H    0.165066  -0.000000
     7  H    0.165067  -0.000000
     8  H    0.165066   0.000000
 Sum of Mulliken charges =  -0.00000  -0.00000

 Dipole moment (field-independent basis, Debye):
    X=              0.0000    Y=              0.0000    Z=              0.0000  Tot=              0.0000
 Quadrupole moment (field-independent basis, Debye-Ang):
   XX=            -15.5974   YY=            -14.8952   ZZ=            -14.8951
   XY=              0.0000   XZ=             -0.0001   YZ=              0.0000

 Normal termination of Gaussian 16 at Tue Nov 19 12:04:21 2024.
