 Gaussian 16, Revision A.03,
 Gaussian 16:  ES64L-G16RevA.03 25-Dec-2016

 --------------------------------------------
 #p opt UM062X/6-311+G** nosymm int=superfine
 --------------------------------------------

 -------------------
 Title Card Required
 -------------------
 Symbolic Z-matrix:
 Charge =  0 Multiplicity = 1

 SCF Done:  E(UM062X) =  -797.381265912     A.U. after   17 cycles
 SCF Done:  E(UM062X) =  -797.381372102     A.U. after   18 cycles
 SCF Done:  E(UM062X) =  -797.381377687     A.U. after   17 cycles
 SCF Done:  E(UM062X) =  -797.381379353     A.U. after   14 cycles
 SCF Done:  E(UM062X) =  -797.381379753     A.U. after   13 cycles
 SCF Done:  E(UM062X) =  -797.381380975     A.U. after   16 cycles
 SCF Done:  E(UM062X) =  -797.381382076     A.U. after   17 cycles
 SCF Done:  E(UM062X) =  -797.381382171     A.U. after   12 cycles
 Optimization completed.
    -- Stationary point found.

                          Input orientation:
 ---------------------------------------------------------------------
 Center     Atomic      Atomic             Coordinates (Angstroms)
 Number     Number       Type             X           Y           Z
 ---------------------------------------------------------------------
      1         16           0       -2.368191    0.000000    0.000000
      2         16           0        2.368191    0.000000    0.000000
      3          1           0       -2.204361   -1.303207   -0.295187
      4          1           0        2.203852    0.284463    1.305542
 ---------------------------------------------------------------------

 Alpha  occ. eigenvalues --  -89.94332 -89.94331  -8.30595  -8.30594  -6.22736
 Alpha  occ. eigenvalues --   -6.22735  -6.22493  -6.22493  -6.21924  -6.21924
 Alpha  occ. eigenvalues --   -0.81362  -0.81165  -0.47345  -0.47334  -0.33380
 Alpha  occ. eigenvalues --   -0.33317  -0.29963
 Alpha virt. eigenvalues --   -0.22594   0.01789   0.02999   0.04427   0.04750
 Alpha virt. eigenvalues --    0.06527   0.06687   0.07119   0.07355   0.08400
 Alpha virt. eigenvalues --    0.12761   0.31332   0.31714   0.32443   0.35244

  Beta  occ. eigenvalues --  -89.94332 -89.94331  -8.30595  -8.30594  -6.22736
  Beta  occ. eigenvalues --   -6.22735  -6.22493  -6.22493  -6.21924  -6.21924
  Beta  occ. eigenvalues --   -0.81362  -0.81165  -0.47345  -0.47334  -0.33380
  Beta  occ. eigenvalues --   -0.33317  -0.29963
  Beta virt. eigenvalues --   -0.22594   0.01789   0.02999   0.04427   0.04750
  Beta virt. eigenvalues --    0.06527   0.06687   0.07119   0.07355   0.08400
  Beta virt. eigenvalues --    0.12761   0.31332   0.31714   0.32443   0.35244

 Mulliken charges and spin densities:
               1          2
     1  S   -0.080627   0.000000
     2  S   -0.080612   0.000000
     3  H    0.080619   0.000000
     4  H    0.080620   0.000000
 Sum of Mulliken charges =  -0.00000   0.00000

 Dipole moment (field-independent basis, Debye):
    X=             -0.0003    Y=             -0.8450    Z=              0.8381  Tot=              1.1901
 Quadrupole moment (field-independent basis, Debye-Ang):
   XX=            -26.0855   YY=            -28.1203   ZZ=            -28.0925
   XY=              2.9660   XZ=              2.9905   YZ=              1.6934

 Normal termination of Gaussian 16 at Mon Apr 21 23:01:34 2025.
