 Gaussian 16, Revision A.03,
 Gaussian 16:  ES64L-G16RevA.03 25-Dec-2016

 ---------------------------------------------------
 #p UM062X/6-311+G** force int=superfine pop=saveNBO
 ---------------------------------------------------

 -------------------
 Title Card Required
 -------------------
 Symbolic Z-matrix:
 Charge =  0 Multiplicity = 1

                         Standard orientation:
 ---------------------------------------------------------------------
 Center     Atomic      Atomic             Coordinates (Angstroms)
 Number     Number       Type             X           Y           Z
 ---------------------------------------------------------------------
      1          6           0        0.000000    0.000000   -0.898379
      2          8           0        0.000000    0.000000    0.673785
 ---------------------------------------------------------------------

 SCF Done:  E(UM062X) =  -113.110628573     A.U. after   12 cycles

 The electronic state is 1-SG.
 Alpha  occ. eigenvalues --  -19.73236 -10.79054  -1.09823  -0.68294  -0.45609
 Alpha  occ. eigenvalues --   -0.43682  -0.43682
 Alpha virt. eigenvalues --   -0.10923  -0.10923   0.03614   0.03872   0.06730
 Alpha virt. eigenvalues --    0.06730   0.13617   0.19838   0.22509   0.22509
 Alpha virt. eigenvalues --    0.31429   0.53930   0.53930   0.54242   0.73591

  Beta  occ. eigenvalues --  -19.73236 -10.79054  -1.09823  -0.68294  -0.45609
  Beta  occ. eigenvalues --   -0.43682  -0.43682
  Beta virt. eigenvalues --   -0.10923  -0.10923   0.03614   0.03872   0.06730
  Beta virt. eigenvalues --    0.06730   0.13617   0.19838   0.22509   0.22509
  Beta virt. eigenvalues --    0.31429   0.53930   0.53930   0.54242   0.73591

 Mulliken charges and spin densities:
               1          2
     1  C    0.254266  -0.000000
     2  O   -0.254266   0.000000
 Sum of Mulliken charges =   0.00000   0.00000

 Dipole moment (field-independent basis, Debye):
    X=              0.0000    Y=              0.0000    Z=             -1.8980  Tot=              1.8980
 Quadrupole moment (field-independent basis, Debye-Ang):
   XX=            -11.1370   YY=            -11.1370   ZZ=            -11.8938
   XY=              0.0000   XZ=              0.0000   YZ=              0.0000

 Summary of Natural Population Analysis:

                                       Natural Population
                Natural  -----------------------------------------------
    Atom  No    Charge         Core      Valence    Rydberg      Total
 -----------------------------------------------------------------------
      C    1    0.31439      0.99998     1.67230    0.01332     2.68561
      O    2   -0.31439      0.99998     3.31209    0.00233     4.31439
 =======================================================================
   * Total *    0.00000      1.99996     4.98439    0.01565     7.00000

 Normal termination of Gaussian 16 at Mon Apr 21 19:31:12 2025.
