 Gaussian 16, Revision A.03,
 Gaussian 16:  ES64L-G16RevA.03 25-Dec-2016

 ---------------------------------------
 #p UM062X/6-311+G** force int=superfine
 ---------------------------------------

 -------------------
 Title Card Required
 -------------------
 Symbolic Z-matrix:
 Charge =  0 Multiplicity = 1

                         Standard orientation:
 ---------------------------------------------------------------------
 Center     Atomic      Atomic             Coordinates (Angstroms)
 Number     Number       Type             X           Y           Z
 ---------------------------------------------------------------------
      1          6           0        0.664320    0.000005   -0.000004
      2          6           0       -0.664320   -0.000005    0.000003
      3          1           0       -1.105582   -0.936213    0.363661
      4          1           0        1.105578   -0.153149    0.992616
      5          1           0       -1.105579    0.153152   -0.992616
      6          1           0       -1.105616    0.783057    0.628923
      7          1           0        1.105582    0.936214   -0.363658
      8          1           0        1.105618   -0.783058   -0.628921
 ---------------------------------------------------------------------

 SCF Done:  E(UM062X) =  -79.7692238707     A.U. after    8 cycles

 The electronic state is 1-A.
 Alpha  occ. eigenvalues --  -10.50881 -10.50775  -0.89359  -0.68870  -0.52109
 Alpha  occ. eigenvalues --   -0.52109  -0.47250  -0.37846  -0.37846
 Alpha virt. eigenvalues --    0.02133   0.04195   0.05205   0.05205   0.08752
 Alpha virt. eigenvalues --    0.08884   0.08884   0.14145   0.19248   0.19249
 Alpha virt. eigenvalues --    0.20196   0.20197   0.24085   0.27928   0.35169

  Beta  occ. eigenvalues --  -10.50881 -10.50775  -0.89359  -0.68870  -0.52109
  Beta  occ. eigenvalues --   -0.52109  -0.47250  -0.37846  -0.37846
  Beta virt. eigenvalues --    0.02133   0.04195   0.05205   0.05205   0.08752
  Beta virt. eigenvalues --    0.08884   0.08884   0.14145   0.19248   0.19249
  Beta virt. eigenvalues --    0.20196   0.20197   0.24085   0.27928   0.35169

 Mulliken charges and spin densities:
               1          2
     1  C   -0.449240  -0.000000
     2  C   -0.449240   0.000000
     3  H    0.149747   0.000000
     4  H    0.149746   0.000000
     5  H    0.149747   0.000000
     6  H    0.149747   0.000000
     7  H    0.149747   0.000000
     8  H    0.149747   0.000000
 Sum of Mulliken charges =  -0.00000  -0.00000

 Dipole moment (field-independent basis, Debye):
    X=              0.0000    Y=              0.0000    Z=              0.0000  Tot=              0.0000
 Quadrupole moment (field-independent basis, Debye-Ang):
   XX=            -15.6316   YY=            -14.9629   ZZ=            -14.9630
   XY=             -0.0001   XZ=             -0.0000   YZ=             -0.0000

 Normal termination of Gaussian 16 at Tue Nov 19 12:40:37 2024.
