 Gaussian 16, Revision A.03,
 Gaussian 16:  ES64L-G16RevA.03 25-Dec-2016

 --------------------------------------------
 #p opt UM062X/6-311+G** nosymm int=superfine
 --------------------------------------------

 -------------------
 Title Card Required
 -------------------
 Symbolic Z-matrix:
 Charge = -1 Multiplicity = 2

 SCF Done:  E(UM062X) =  -51.8447985710     A.U. after   12 cycles
 SCF Done:  E(UM062X) =  -51.8448288908     A.U. after    9 cycles
 SCF Done:  E(UM062X) =  -51.8448315428     A.U. after    8 cycles
 SCF Done:  E(UM062X) =  -51.8448323908     A.U. after   13 cycles
 Optimization completed.
    -- Stationary point found.

                          Input orientation:
 ---------------------------------------------------------------------
 Center     Atomic      Atomic             Coordinates (Angstroms)
 Number     Number       Type             X           Y           Z
 ---------------------------------------------------------------------
      1          5           0       -2.297274    0.000000    0.000000
      2          5           0        2.297274    0.000000    0.000000
      3          1           0       -2.961533   -1.014445   -0.000058
      4          1           0        2.961533    1.014445   -0.000534
      5          1           0       -2.961535    1.014444   -0.000043
      6          1           0        2.961535   -1.014443    0.000433
 ---------------------------------------------------------------------

 Alpha  occ. eigenvalues --   -6.88456  -6.88456  -0.38575  -0.38536  -0.22768
 Alpha  occ. eigenvalues --   -0.22744  -0.05633  -0.03685
 Alpha virt. eigenvalues --    0.11482   0.12463   0.14692   0.15115   0.15414
 Alpha virt. eigenvalues --    0.17265   0.19403   0.20412   0.20564   0.22859
 Alpha virt. eigenvalues --    0.31885   0.32949   0.33475   0.35726   0.50658

  Beta  occ. eigenvalues --   -6.87873  -6.87872  -0.37220  -0.37112  -0.22057
  Beta  occ. eigenvalues --   -0.22021   0.02052
  Beta virt. eigenvalues --    0.11785   0.12865   0.13637   0.14375   0.15452
  Beta virt. eigenvalues --    0.17641   0.18052   0.21828   0.22002   0.24230
  Beta virt. eigenvalues --    0.25239   0.31974   0.33157   0.33651   0.36536

 Mulliken charges and spin densities:
               1          2
     1  B   -0.348044   0.492245
     2  B   -0.348044   0.492245
     3  H   -0.075978   0.003878
     4  H   -0.075978   0.003878
     5  H   -0.075978   0.003878
     6  H   -0.075978   0.003878
 Sum of Mulliken charges =  -1.00000   1.00000

 Dipole moment (field-independent basis, Debye):
    X=              0.0000    Y=             -0.0000    Z=             -0.0004  Tot=              0.0004
 Quadrupole moment (field-independent basis, Debye-Ang):
   XX=            -44.1570   YY=            -24.3025   ZZ=            -18.8604
   XY=              0.0000   XZ=             -0.0000   YZ=              0.0013

 Normal termination of Gaussian 16 at Mon Apr 21 17:25:14 2025.
