 Gaussian 16, Revision A.03,
 Gaussian 16:  ES64L-G16RevA.03 25-Dec-2016

 ---------------------------------------------------------
 #p opt UM062X/6-311+G** nosymm int=superfine SCF=NoVarAcc
 ---------------------------------------------------------

 -------------------
 Title Card Required
 -------------------
 Symbolic Z-matrix:
 Charge =  1 Multiplicity = 2

 SCF Done:  E(UM062X) =  -77.9115297440     A.U. after   10 cycles
 SCF Done:  E(UM062X) =  -77.9156028120     A.U. after    9 cycles
 SCF Done:  E(UM062X) =  -77.9181482853     A.U. after    9 cycles
 SCF Done:  E(UM062X) =  -77.9181517159     A.U. after    7 cycles
 Optimization completed.
    -- Stationary point found.

                          Input orientation:
 ---------------------------------------------------------------------
 Center     Atomic      Atomic             Coordinates (Angstroms)
 Number     Number       Type             X           Y           Z
 ---------------------------------------------------------------------
      1          6           0       -1.731027    0.000000    0.000000
      2          6           0        1.731027    0.000000    0.000000
      3          1           0       -2.289364   -0.942141   -0.000000
      4          1           0       -2.289311    0.942171   -0.000000
      5          1           0        2.289364    0.942141    0.000000
      6          1           0        2.289311   -0.942171    0.000000
 ---------------------------------------------------------------------

 Alpha  occ. eigenvalues --  -10.89022 -10.89021  -1.00326  -1.00130  -0.74965
 Alpha  occ. eigenvalues --   -0.74863  -0.59387  -0.56362
 Alpha virt. eigenvalues --   -0.32397  -0.31690  -0.12994  -0.10934  -0.09466
 Alpha virt. eigenvalues --   -0.07451  -0.06687  -0.05354  -0.04433  -0.01775
 Alpha virt. eigenvalues --   -0.00783  -0.00039   0.02030   0.06491   0.25963

  Beta  occ. eigenvalues --  -10.88188 -10.88186  -0.98128  -0.97789  -0.73936
  Beta  occ. eigenvalues --   -0.73815  -0.48875
  Beta virt. eigenvalues --   -0.34919  -0.30539  -0.29652  -0.12809  -0.11024
  Beta virt. eigenvalues --   -0.09311  -0.07239  -0.06697  -0.04618  -0.03877
  Beta virt. eigenvalues --   -0.01498  -0.00183   0.00352   0.02101   0.07242

 Mulliken charges and spin densities:
               1          2
     1  C    0.018719   0.485989
     2  C    0.018719   0.485989
     3  H    0.240641   0.007006
     4  H    0.240640   0.007005
     5  H    0.240641   0.007006
     6  H    0.240640   0.007005
 Sum of Mulliken charges =   1.00000   1.00000

 Dipole moment (field-independent basis, Debye):
    X=              0.0000    Y=              0.0000    Z=             -0.0000  Tot=              0.0000
 Quadrupole moment (field-independent basis, Debye-Ang):
   XX=             13.4954   YY=             -9.4265   ZZ=            -10.7382
   XY=             -0.0000   XZ=              0.0000   YZ=              0.0000

 Normal termination of Gaussian 16 at Tue Dec  3 13:29:33 2024.
