 Gaussian 16, Revision A.03,
 Gaussian 16:  ES64L-G16RevA.03 25-Dec-2016

 --------------------------------------------
 #p opt UM062X/6-311+G** nosymm int=superfine
 --------------------------------------------

 -------------------
 Title Card Required
 -------------------
 Symbolic Z-matrix:
 Charge =  1 Multiplicity = 2

 SCF Done:  E(UM062X) =  -76.5839978109     A.U. after   10 cycles
 SCF Done:  E(UM062X) =  -76.5843306791     A.U. after    9 cycles
 Optimization completed.
    -- Stationary point found.

                          Input orientation:
 ---------------------------------------------------------------------
 Center     Atomic      Atomic             Coordinates (Angstroms)
 Number     Number       Type             X           Y           Z
 ---------------------------------------------------------------------
      1          6           0       -2.082160    0.000000    0.000000
      2          6           0        2.082160    0.000000    0.000000
      3          1           0       -3.199684    0.000000   -0.000000
      4          1           0        3.199683    0.000000   -0.000000
 ---------------------------------------------------------------------

 Alpha  occ. eigenvalues --  -10.94112 -10.94112  -0.97806  -0.97724  -0.63378
 Alpha  occ. eigenvalues --   -0.62681  -0.47389
 Alpha virt. eigenvalues --   -0.40617  -0.32919  -0.32714  -0.12015  -0.11190
 Alpha virt. eigenvalues --   -0.07518  -0.07144  -0.05693  -0.04645  -0.04327
 Alpha virt. eigenvalues --   -0.01597  -0.00319   0.05589   0.27718   0.28798

  Beta  occ. eigenvalues --  -10.93698 -10.93698  -0.95414  -0.95389  -0.62027
  Beta  occ. eigenvalues --   -0.61274
  Beta virt. eigenvalues --   -0.31062  -0.30798  -0.29457  -0.29148  -0.12462
  Beta virt. eigenvalues --   -0.11122  -0.06821  -0.06206  -0.05987  -0.03871
  Beta virt. eigenvalues --   -0.02925  -0.01949   0.01260   0.07315   0.26838

 Mulliken charges and spin densities:
               1          2
     1  C    0.274538   0.516364
     2  C    0.274538   0.516364
     3  H    0.225462  -0.016364
     4  H    0.225462  -0.016364
 Sum of Mulliken charges =   1.00000   1.00000

 Dipole moment (field-independent basis, Debye):
    X=             -0.0000    Y=             -0.0000    Z=             -0.0000  Tot=              0.0000
 Quadrupole moment (field-independent basis, Debye-Ang):
   XX=             27.0790   YY=            -10.5921   ZZ=            -10.3610
   XY=              0.0000   XZ=              0.0000   YZ=             -0.9921

 Normal termination of Gaussian 16 at Tue Dec  3 11:34:37 2024.
