 Gaussian 16, Revision A.03,
 Gaussian 16:  ES64L-G16RevA.03 25-Dec-2016

 --------------------------------------------
 #p opt UM062X/6-311+G** nosymm int=superfine
 --------------------------------------------

 -------------------
 Title Card Required
 -------------------
 Symbolic Z-matrix:
 Charge =  1 Multiplicity = 2

 SCF Done:  E(UM062X) =  -579.677480283     A.U. after   14 cycles
 SCF Done:  E(UM062X) =  -579.678883004     A.U. after   12 cycles
 SCF Done:  E(UM062X) =  -579.681216754     A.U. after   14 cycles
 SCF Done:  E(UM062X) =  -579.682485450     A.U. after   14 cycles
 SCF Done:  E(UM062X) =  -579.682958557     A.U. after   14 cycles
 SCF Done:  E(UM062X) =  -579.683143289     A.U. after   13 cycles
 SCF Done:  E(UM062X) =  -579.683163819     A.U. after   12 cycles
 SCF Done:  E(UM062X) =  -579.683169706     A.U. after   12 cycles
 SCF Done:  E(UM062X) =  -579.683175248     A.U. after   12 cycles
 SCF Done:  E(UM062X) =  -579.683183246     A.U. after   11 cycles
 SCF Done:  E(UM062X) =  -579.683192477     A.U. after   12 cycles
 SCF Done:  E(UM062X) =  -579.683192619     A.U. after    9 cycles
 Optimization completed.
    -- Stationary point found.

                          Input orientation:
 ---------------------------------------------------------------------
 Center     Atomic      Atomic             Coordinates (Angstroms)
 Number     Number       Type             X           Y           Z
 ---------------------------------------------------------------------
      1         14           0       -2.127975    0.000000    0.000000
      2         14           0        2.127975    0.000000    0.000000
      3          1           0       -2.215065   -1.505724    0.000000
      4          1           0        2.215345    1.505715    0.000000
 ---------------------------------------------------------------------

 Alpha  occ. eigenvalues --  -67.26541 -67.26541  -5.80707  -5.80706  -4.11803
 Alpha  occ. eigenvalues --   -4.11802  -4.11722  -4.11721  -4.11071  -4.11071
 Alpha  occ. eigenvalues --   -0.75691  -0.75037  -0.52298  -0.52115  -0.40677
 Alpha virt. eigenvalues --   -0.29031  -0.27651  -0.26691  -0.10849  -0.09527
 Alpha virt. eigenvalues --   -0.08560  -0.08225  -0.07738  -0.06699  -0.05597
 Alpha virt. eigenvalues --   -0.05525  -0.04930  -0.02624   0.12907   0.13610

  Beta  occ. eigenvalues --  -67.26289 -67.26289  -5.80635  -5.80633  -4.11660
  Beta  occ. eigenvalues --   -4.11660  -4.11130  -4.11129  -4.10965  -4.10965
  Beta  occ. eigenvalues --   -0.73801  -0.73430  -0.51672  -0.51409
  Beta virt. eigenvalues --   -0.27881  -0.27460  -0.26273  -0.23517  -0.13778
  Beta virt. eigenvalues --   -0.10640  -0.09061  -0.08426  -0.08390  -0.06647
  Beta virt. eigenvalues --   -0.05488  -0.05405  -0.05209  -0.02705   0.11141

 Mulliken charges and spin densities:
               1          2
     1  Si   0.581554   0.509170
     2  Si   0.581537   0.509184
     3  H   -0.081548  -0.009178
     4  H   -0.081542  -0.009177
 Sum of Mulliken charges =   1.00000   1.00000

 Dipole moment (field-independent basis, Debye):
    X=              0.0000    Y=             -0.0000    Z=              0.0000  Tot=              0.0000
 Quadrupole moment (field-independent basis, Debye-Ang):
   XX=              2.5899   YY=            -27.7276   ZZ=            -19.9534
   XY=              2.3208   XZ=             -0.0000   YZ=              0.0000

 Normal termination of Gaussian 16 at Mon Apr 21 20:41:16 2025.
