 Gaussian 16, Revision A.03,
 Gaussian 16:  ES64L-G16RevA.03 25-Dec-2016

 --------------------------------------------
 #p opt UM062X/6-311+G** nosymm int=superfine
 --------------------------------------------

 -------------------
 Title Card Required
 -------------------
 Symbolic Z-matrix:
 Charge =  0 Multiplicity = 1

 SCF Done:  E(UM062X) =  -78.2016152206     A.U. after    9 cycles
 SCF Done:  E(UM062X) =  -78.2184502695     A.U. after    9 cycles
 SCF Done:  E(UM062X) =  -78.2336235980     A.U. after    8 cycles
 SCF Done:  E(UM062X) =  -78.2339561994     A.U. after    8 cycles
 SCF Done:  E(UM062X) =  -78.2339575469     A.U. after    7 cycles
 Optimization completed.
    -- Stationary point found.

                          Input orientation:
 ---------------------------------------------------------------------
 Center     Atomic      Atomic             Coordinates (Angstroms)
 Number     Number       Type             X           Y           Z
 ---------------------------------------------------------------------
      1          6           0       -2.110595    0.000000    0.000000
      2          6           0        2.110595    0.000000    0.000000
      3          1           0       -2.815540   -0.858835   -0.000000
      4          1           0       -2.815509    0.858861    0.000000
      5          1           0        2.815540    0.858835   -0.000000
      6          1           0        2.815509   -0.858861    0.000000
 ---------------------------------------------------------------------

 Alpha  occ. eigenvalues --  -10.59605 -10.59605  -0.74586  -0.74562  -0.46321
 Alpha  occ. eigenvalues --   -0.46296  -0.30676  -0.29461
 Alpha virt. eigenvalues --   -0.07290  -0.06950   0.02512   0.03076   0.06536
 Alpha virt. eigenvalues --    0.08596   0.08602   0.10361   0.12045   0.15492
 Alpha virt. eigenvalues --    0.17506   0.19946   0.20656   0.21327   0.45391

  Beta  occ. eigenvalues --  -10.59605 -10.59605  -0.74586  -0.74562  -0.46321
  Beta  occ. eigenvalues --   -0.46296  -0.30676  -0.29461
  Beta virt. eigenvalues --   -0.07290  -0.06950   0.02512   0.03076   0.06536
  Beta virt. eigenvalues --    0.08596   0.08602   0.10361   0.12045   0.15492
  Beta virt. eigenvalues --    0.17506   0.19946   0.20656   0.21327   0.45391

 Mulliken charges and spin densities:
               1          2
     1  C   -0.239709  -0.000000
     2  C   -0.239709  -0.000000
     3  H    0.119855  -0.000000
     4  H    0.119854  -0.000000
     5  H    0.119855   0.000000
     6  H    0.119854   0.000000
 Sum of Mulliken charges =  -0.00000  -0.00000

 Dipole moment (field-independent basis, Debye):
    X=              0.0000    Y=              0.0000    Z=              0.0000  Tot=              0.0000
 Quadrupole moment (field-independent basis, Debye-Ang):
   XX=             -2.0609   YY=            -14.6188   ZZ=            -12.9133
   XY=             -0.0001   XZ=              0.0000   YZ=              0.0000

 Normal termination of Gaussian 16 at Tue Dec  3 11:20:28 2024.
