 Gaussian 16, Revision A.03,
 Gaussian 16:  ES64L-G16RevA.03 25-Dec-2016

 --------------------------------------------
 #p opt UM062X/6-311+G** nosymm int=superfine
 --------------------------------------------

 -------------------
 Title Card Required
 -------------------
 Symbolic Z-matrix:
 Charge =  0 Multiplicity = 1

 SCF Done:  E(UM062X) =  -438.512992521     A.U. after   12 cycles
 SCF Done:  E(UM062X) =  -438.525843224     A.U. after   11 cycles
 SCF Done:  E(UM062X) =  -438.531253055     A.U. after   11 cycles
 SCF Done:  E(UM062X) =  -438.531306959     A.U. after   10 cycles
 SCF Done:  E(UM062X) =  -438.531325726     A.U. after   11 cycles
 SCF Done:  E(UM062X) =  -438.531338065     A.U. after    9 cycles
 SCF Done:  E(UM062X) =  -438.531340116     A.U. after    8 cycles
 SCF Done:  E(UM062X) =  -438.531340800     A.U. after   11 cycles
 SCF Done:  E(UM062X) =  -438.531341217     A.U. after    8 cycles
 Optimization completed.
    -- Stationary point found.

                          Input orientation:
 ---------------------------------------------------------------------
 Center     Atomic      Atomic             Coordinates (Angstroms)
 Number     Number       Type             X           Y           Z
 ---------------------------------------------------------------------
      1          6           0       -1.685220    0.000000    0.000000
      2         16           0        1.685220    0.000000    0.000000
      3          1           0        1.643909   -1.343834   -0.001262
      4          1           0       -1.716037    1.080397    0.002599
      5          1           0       -1.752218   -0.534240   -0.937320
      6          1           0       -1.752361   -0.538742    0.934730
 ---------------------------------------------------------------------

 Alpha  occ. eigenvalues --  -89.88263 -10.64354  -8.24521  -6.16575  -6.16497
 Alpha  occ. eigenvalues --   -6.15953  -0.82600  -0.75921  -0.54559  -0.54466
 Alpha  occ. eigenvalues --   -0.42459  -0.28550  -0.28391
 Alpha virt. eigenvalues --   -0.14033   0.01351   0.03973   0.04557   0.05595
 Alpha virt. eigenvalues --    0.07556   0.08268   0.08477   0.10942   0.13572
 Alpha virt. eigenvalues --    0.16161   0.16605   0.21720   0.33516   0.36603

  Beta  occ. eigenvalues --  -89.88263 -10.64354  -8.24521  -6.16575  -6.16497
  Beta  occ. eigenvalues --   -6.15953  -0.82600  -0.75921  -0.54559  -0.54466
  Beta  occ. eigenvalues --   -0.42459  -0.28550  -0.28391
  Beta virt. eigenvalues --   -0.14033   0.01351   0.03973   0.04557   0.05595
  Beta virt. eigenvalues --    0.07556   0.08268   0.08477   0.10942   0.13572
  Beta virt. eigenvalues --    0.16161   0.16605   0.21720   0.33516   0.36603

 Mulliken charges and spin densities:
               1          2
     1  C   -0.415427   0.000000
     2  S   -0.266603  -0.000000
     3  H    0.053482   0.000000
     4  H    0.211087  -0.000000
     5  H    0.208743  -0.000000
     6  H    0.208718  -0.000000
 Sum of Mulliken charges =  -0.00000   0.00000

 Dipole moment (field-independent basis, Debye):
    X=             -4.2046    Y=             -0.9476    Z=             -0.0009  Tot=              4.3100
 Quadrupole moment (field-independent basis, Debye-Ang):
   XX=            -20.6793   YY=            -19.5428   ZZ=            -23.5940
   XY=             -1.7207   XZ=             -0.0017   YZ=              0.0038

 Normal termination of Gaussian 16 at Mon Apr 21 19:32:20 2025.
