 Gaussian 16, Revision A.03,
 Gaussian 16:  ES64L-G16RevA.03 25-Dec-2016

 ---------------------------------------
 #p UM062X/6-311+G** force int=superfine
 ---------------------------------------

 -------------------
 Title Card Required
 -------------------
 Symbolic Z-matrix:
 Charge =  1 Multiplicity = 2

                         Standard orientation:
 ---------------------------------------------------------------------
 Center     Atomic      Atomic             Coordinates (Angstroms)
 Number     Number       Type             X           Y           Z
 ---------------------------------------------------------------------
      1          6           0       -0.000000    0.438273    0.000000
      2          6           0       -0.000000   -0.438273    0.000000
      3          1           0       -0.792971    1.250357    0.000000
      4          1           0        0.799563    1.245593    0.000000
      5          1           0        0.792971   -1.250357    0.000000
      6          1           0       -0.799563   -1.245593    0.000000
 ---------------------------------------------------------------------

 SCF Done:  E(UM062X) =  -77.6070233698     A.U. after   10 cycles

 The electronic state is 2-AG.
 Alpha  occ. eigenvalues --  -10.81803 -10.77914  -1.25373  -0.96273  -0.89384
 Alpha  occ. eigenvalues --   -0.88587  -0.76194  -0.62273
 Alpha virt. eigenvalues --   -0.18653  -0.15389  -0.13807  -0.13663  -0.11172
 Alpha virt. eigenvalues --   -0.09036  -0.07601  -0.06443  -0.02103  -0.00813
 Alpha virt. eigenvalues --    0.00048   0.03019   0.15453   0.17971   0.19145

  Beta  occ. eigenvalues --  -10.81860 -10.77944  -1.24610  -0.91529  -0.85624
  Beta  occ. eigenvalues --   -0.85274  -0.76024
  Beta virt. eigenvalues --   -0.41606  -0.16972  -0.15214  -0.13574  -0.13462
  Beta virt. eigenvalues --   -0.10910  -0.08905  -0.04806  -0.03783  -0.01820
  Beta virt. eigenvalues --    0.00269   0.00659   0.03881   0.14990   0.17708

 Mulliken charges and spin densities:
               1          2
     1  C   -0.143327   0.091030
     2  C   -0.143327   0.091030
     3  H    0.321551   0.203184
     4  H    0.321776   0.205785
     5  H    0.321551   0.203184
     6  H    0.321776   0.205785
 Sum of Mulliken charges =   1.00000   1.00000

 Dipole moment (field-independent basis, Debye):
    X=             -0.0000    Y=              0.0000    Z=              0.0000  Tot=              0.0000
 Quadrupole moment (field-independent basis, Debye-Ang):
   XX=             -7.5425   YY=             -2.6288   ZZ=            -11.8704
   XY=              0.0168   XZ=              0.0000   YZ=              0.0000

 Normal termination of Gaussian 16 at Tue Nov 19 11:51:58 2024.
