 Gaussian 16, Revision A.03,
 Gaussian 16:  ES64L-G16RevA.03 25-Dec-2016

 ---------------------------------------
 #p UM062X/6-311+G** force int=superfine
 ---------------------------------------

 -------------------
 Title Card Required
 -------------------
 Symbolic Z-matrix:
 Charge =  1 Multiplicity = 2

                         Standard orientation:
 ---------------------------------------------------------------------
 Center     Atomic      Atomic             Coordinates (Angstroms)
 Number     Number       Type             X           Y           Z
 ---------------------------------------------------------------------
      1          6           0        0.632334    0.827523   -1.620143
      2          6           0       -0.632337   -0.827517    1.620144
      3          1           0       -1.551925   -1.137084    1.137489
      4          1           0        0.591517   -0.116566   -2.150664
      5          1           0       -0.591622    0.116093    2.151526
      6          1           0        0.218925   -1.497805    1.642343
      7          1           0        1.551847    1.137290   -1.137475
      8          1           0       -0.218724    1.498040   -1.643229
 ---------------------------------------------------------------------

 SCF Done:  E(UM062X) =  -79.3195997707     A.U. after   10 cycles

 The electronic state is 2-A.
 Alpha  occ. eigenvalues --  -10.83728 -10.83727  -1.02285  -1.01891  -0.73313
 Alpha  occ. eigenvalues --   -0.73312  -0.73171  -0.73171  -0.47969
 Alpha virt. eigenvalues --   -0.37483  -0.12866  -0.10181  -0.09541  -0.09541
 Alpha virt. eigenvalues --   -0.06227  -0.06227  -0.04398  -0.03009  -0.00271
 Alpha virt. eigenvalues --   -0.00268   0.01336   0.01337   0.02870   0.08567

  Beta  occ. eigenvalues --  -10.83511 -10.83510  -0.99627  -0.99373  -0.72796
  Beta  occ. eigenvalues --   -0.72795  -0.72634  -0.72634
  Beta virt. eigenvalues --   -0.32697  -0.26612  -0.16396  -0.10969  -0.10968
  Beta virt. eigenvalues --   -0.10208  -0.06233  -0.06233  -0.05126  -0.02062
  Beta virt. eigenvalues --   -0.00548  -0.00545   0.01602   0.01604   0.02665

 Mulliken charges and spin densities:
               1          2
     1  C   -0.253862   0.557372
     2  C   -0.253862   0.557372
     3  H    0.251318  -0.019110
     4  H    0.251268  -0.019124
     5  H    0.251290  -0.019125
     6  H    0.251255  -0.019137
     7  H    0.251319  -0.019110
     8  H    0.251275  -0.019138
 Sum of Mulliken charges =   1.00000   1.00000

 Dipole moment (field-independent basis, Debye):
    X=              0.0000    Y=             -0.0001    Z=             -0.0000  Tot=              0.0001
 Quadrupole moment (field-independent basis, Debye-Ang):
   XX=             -9.2084   YY=             -7.8550   ZZ=              1.3628
   XY=              2.4878   XZ=             -4.8699   YZ=             -6.3714

 Normal termination of Gaussian 16 at Wed Nov 13 13:06:00 2024.
