 Gaussian 16, Revision A.03,
 Gaussian 16:  ES64L-G16RevA.03 25-Dec-2016

 ---------------------------------------
 #p UM062X/6-311+G** force int=superfine
 ---------------------------------------

 -------------------
 Title Card Required
 -------------------
 Symbolic Z-matrix:
 Charge =  1 Multiplicity = 2

                         Standard orientation:
 ---------------------------------------------------------------------
 Center     Atomic      Atomic             Coordinates (Angstroms)
 Number     Number       Type             X           Y           Z
 ---------------------------------------------------------------------
      1          6           0        0.000000    0.000000    0.608916
      2          6           0        0.000000    0.000000   -0.608916
      3          1           0        0.000000    0.000000    1.689236
      4          1           0        0.000000    0.000000   -1.689236
 ---------------------------------------------------------------------

 SCF Done:  E(UM062X) =  -76.9000289375     A.U. after    8 cycles

 Unable to determine electronic state:  an orbital has unidentified symmetry.
 Alpha  occ. eigenvalues --  -10.93751 -10.93492  -1.23814  -0.96951  -0.89792
 Alpha  occ. eigenvalues --   -0.73697  -0.70923
 Alpha virt. eigenvalues --   -0.26669  -0.24671  -0.15222  -0.14528  -0.11608
 Alpha virt. eigenvalues --   -0.10436  -0.10173  -0.05800  -0.04691  -0.04233
 Alpha virt. eigenvalues --    0.02299   0.04560   0.16369   0.18470   0.28931

  Beta  occ. eigenvalues --  -10.93497 -10.93264  -1.18931  -0.95372  -0.89227
  Beta  occ. eigenvalues --   -0.68398
  Beta virt. eigenvalues --   -0.46744  -0.23100  -0.20486  -0.15638  -0.14425
  Beta virt. eigenvalues --   -0.11701  -0.10687  -0.10367  -0.05261  -0.04043
  Beta virt. eigenvalues --   -0.03379   0.02121   0.04821   0.16894   0.19290

 Mulliken charges and spin densities:
               1          2
     1  C    0.195244   0.519344
     2  C    0.195244   0.519344
     3  H    0.304756  -0.019344
     4  H    0.304756  -0.019344
 Sum of Mulliken charges =   1.00000   1.00000

 Dipole moment (field-independent basis, Debye):
    X=              0.0000    Y=              0.0000    Z=             -0.0000  Tot=              0.0000
 Quadrupole moment (field-independent basis, Debye-Ang):
   XX=             -9.5424   YY=            -11.3245   ZZ=             -0.6891
   XY=              0.0000   XZ=             -0.0000   YZ=              0.0000

 Normal termination of Gaussian 16 at Tue Nov 19 13:30:20 2024.
