 Gaussian 16, Revision A.03,
 Gaussian 16:  ES64L-G16RevA.03 25-Dec-2016

 --------------------------------------------
 #p opt UM062X/6-311+G** nosymm int=superfine
 --------------------------------------------

 -------------------
 Title Card Required
 -------------------
 Symbolic Z-matrix:
 Charge =  1 Multiplicity = 2

 SCF Done:  E(UM062X) =  -580.882150666     A.U. after   11 cycles
 SCF Done:  E(UM062X) =  -580.882626766     A.U. after    9 cycles
 SCF Done:  E(UM062X) =  -580.882795045     A.U. after   26 cycles
 SCF Done:  E(UM062X) =  -580.891838132     A.U. after   26 cycles
 SCF Done:  E(UM062X) =  -580.908201507     A.U. after   16 cycles
 SCF Done:  E(UM062X) =  -580.905245957     A.U. after   16 cycles
 SCF Done:  E(UM062X) =  -580.910991483     A.U. after   14 cycles
 SCF Done:  E(UM062X) =  -580.911598745     A.U. after   15 cycles
 SCF Done:  E(UM062X) =  -580.912563921     A.U. after   15 cycles
 SCF Done:  E(UM062X) =  -580.913419500     A.U. after   17 cycles
 SCF Done:  E(UM062X) =  -580.915693524     A.U. after   15 cycles
 SCF Done:  E(UM062X) =  -580.915824027     A.U. after   15 cycles
 SCF Done:  E(UM062X) =  -580.915838667     A.U. after   14 cycles
 SCF Done:  E(UM062X) =  -580.915838986     A.U. after   11 cycles
 Optimization completed.
    -- Stationary point found.

                          Input orientation:
 ---------------------------------------------------------------------
 Center     Atomic      Atomic             Coordinates (Angstroms)
 Number     Number       Type             X           Y           Z
 ---------------------------------------------------------------------
      1         14           0       -1.641295    0.000000    0.000000
      2         14           0        1.641295    0.000000    0.000000
      3          1           0       -2.520709   -1.193121   -0.041234
      4          1           0        1.888768    1.255059    0.738917
      5          1           0       -2.520696    1.193153   -0.040576
      6          1           0        1.888772   -1.255750    0.737739
 ---------------------------------------------------------------------

 Alpha  occ. eigenvalues --  -67.26502 -67.24997  -5.80853  -5.79517  -4.12288
 Alpha  occ. eigenvalues --   -4.11989  -4.11499  -4.10935  -4.10239  -4.10212
 Alpha  occ. eigenvalues --   -0.81121  -0.78281  -0.63226  -0.60658  -0.52462
 Alpha  occ. eigenvalues --   -0.48133
 Alpha virt. eigenvalues --   -0.27574  -0.26513  -0.13377  -0.12417  -0.10222
 Alpha virt. eigenvalues --   -0.08794  -0.08783  -0.08100  -0.07673  -0.07024
 Alpha virt. eigenvalues --   -0.06329  -0.05865  -0.05642  -0.02195   0.12369

  Beta  occ. eigenvalues --  -67.25901 -67.24977  -5.80424  -5.79501  -4.11780
  Beta  occ. eigenvalues --   -4.11296  -4.10924  -4.10888  -4.10233  -4.10176
  Beta  occ. eigenvalues --   -0.78907  -0.76959  -0.61809  -0.60569  -0.49982
  Beta virt. eigenvalues --   -0.30392  -0.27069  -0.24909  -0.13263  -0.13226
  Beta virt. eigenvalues --   -0.10349  -0.09031  -0.08271  -0.07276  -0.07213
  Beta virt. eigenvalues --   -0.06967  -0.06083  -0.05804  -0.04211  -0.02546

 Mulliken charges and spin densities:
               1          2
     1  Si   0.482070   0.023003
     2  Si   0.545477   0.865769
     3  H   -0.016237   0.002984
     4  H    0.002464   0.052631
     5  H   -0.016237   0.002981
     6  H    0.002464   0.052632
 Sum of Mulliken charges =   1.00000   1.00000

 Dipole moment (field-independent basis, Debye):
    X=              0.2217    Y=             -0.0000    Z=              0.0934  Tot=              0.2406
 Quadrupole moment (field-independent basis, Debye-Ang):
   XX=             -6.9435   YY=            -24.9820   ZZ=            -23.1449
   XY=              0.0000   XZ=             -0.0434   YZ=             -0.0004

 Normal termination of Gaussian 16 at Mon Apr 21 20:26:56 2025.
