 Gaussian 16, Revision A.03,
 Gaussian 16:  ES64L-G16RevA.03 25-Dec-2016

 ---------------------------------------------------
 #p UM062X/6-311+G** force int=superfine pop=saveNBO
 ---------------------------------------------------

 -------------------
 Title Card Required
 -------------------
 Symbolic Z-matrix:
 Charge =  0 Multiplicity = 1

                         Standard orientation:
 ---------------------------------------------------------------------
 Center     Atomic      Atomic             Coordinates (Angstroms)
 Number     Number       Type             X           Y           Z
 ---------------------------------------------------------------------
      1         16           0        0.000000    0.000000    1.125200
      2         16           0        0.000000    0.000000   -1.125200
 ---------------------------------------------------------------------

 SCF Done:  E(UM062X) =  -796.264959601     A.U. after    9 cycles

 Unable to determine electronic state:  partially filled degenerate orbitals.
 Alpha  occ. eigenvalues --  -89.97697 -89.97697  -8.33535  -8.33530  -6.25615
 Alpha  occ. eigenvalues --   -6.25615  -6.25532  -6.25521  -6.24753  -6.24752
 Alpha  occ. eigenvalues --   -0.85513  -0.72411  -0.42616  -0.38550  -0.37326
 Alpha  occ. eigenvalues --   -0.30306
 Alpha virt. eigenvalues --   -0.17927  -0.06172   0.03157   0.04504   0.04778
 Alpha virt. eigenvalues --    0.05480   0.07188   0.07592   0.08154   0.14660
 Alpha virt. eigenvalues --    0.31853   0.32230   0.33069   0.34224   0.36060

  Beta  occ. eigenvalues --  -89.97697 -89.97697  -8.33535  -8.33530  -6.25615
  Beta  occ. eigenvalues --   -6.25615  -6.25532  -6.25521  -6.24753  -6.24752
  Beta  occ. eigenvalues --   -0.85513  -0.72411  -0.42616  -0.38550  -0.37326
  Beta  occ. eigenvalues --   -0.30306
  Beta virt. eigenvalues --   -0.17927  -0.06172   0.03157   0.04504   0.04778
  Beta virt. eigenvalues --    0.05480   0.07188   0.07592   0.08154   0.14660
  Beta virt. eigenvalues --    0.31853   0.32230   0.33069   0.34224   0.36060

 Mulliken charges and spin densities:
               1          2
     1  S   -0.000000   0.000000
     2  S   -0.000000   0.000000
 Sum of Mulliken charges =  -0.00000   0.00000

 Dipole moment (field-independent basis, Debye):
    X=             -0.0000    Y=              0.0000    Z=             -0.0000  Tot=              0.0000
 Quadrupole moment (field-independent basis, Debye-Ang):
   XX=            -29.5195   YY=            -24.5273   ZZ=            -24.2426
   XY=              0.0000   XZ=              0.0000   YZ=              0.0000

 Summary of Natural Population Analysis:

                                       Natural Population
                Natural  -----------------------------------------------
    Atom  No    Charge         Core      Valence    Rydberg      Total
 -----------------------------------------------------------------------
      S    1    0.00000      4.99994     2.99080    0.00926     8.00000
      S    2    0.00000      4.99994     2.99080    0.00926     8.00000
 =======================================================================
   * Total *    0.00000      9.99989     5.98159    0.01852    16.00000

 Normal termination of Gaussian 16 at Mon Apr 21 20:08:44 2025.
