 Gaussian 16, Revision A.03,
 Gaussian 16:  ES64L-G16RevA.03 25-Dec-2016

 ---------------------------------------
 #p UM062X/6-311+G** force int=superfine
 ---------------------------------------

 -------------------
 Title Card Required
 -------------------
 Symbolic Z-matrix:
 Charge =  0 Multiplicity = 1

                         Standard orientation:
 ---------------------------------------------------------------------
 Center     Atomic      Atomic             Coordinates (Angstroms)
 Number     Number       Type             X           Y           Z
 ---------------------------------------------------------------------
      1          6           0        0.000000    0.775560    0.000000
      2          6           0       -0.000000   -0.775560    0.000000
      3          1           0       -0.941805    1.305664    0.000000
      4          1           0        0.941755    1.305778    0.000000
      5          1           0        0.941805   -1.305664    0.000000
      6          1           0       -0.941755   -1.305778    0.000000
 ---------------------------------------------------------------------

 SCF Done:  E(UM062X) =  -78.5239999978     A.U. after    8 cycles

 The electronic state is 1-AG.
 Alpha  occ. eigenvalues --  -10.57076 -10.57034  -0.81844  -0.68307  -0.53328
 Alpha  occ. eigenvalues --   -0.45250  -0.45092  -0.30206
 Alpha virt. eigenvalues --   -0.00873   0.03384   0.03807   0.05312   0.07850
 Alpha virt. eigenvalues --    0.08275   0.09720   0.12209   0.15886   0.16956
 Alpha virt. eigenvalues --    0.20637   0.21464   0.28326   0.29946   0.42109

  Beta  occ. eigenvalues --  -10.57076 -10.57034  -0.81844  -0.68307  -0.53328
  Beta  occ. eigenvalues --   -0.45250  -0.45092  -0.30206
  Beta virt. eigenvalues --   -0.00873   0.03384   0.03807   0.05312   0.07850
  Beta virt. eigenvalues --    0.08275   0.09720   0.12209   0.15886   0.16956
  Beta virt. eigenvalues --    0.20637   0.21464   0.28326   0.29946   0.42109

 Mulliken charges and spin densities:
               1          2
     1  C   -0.321502  -0.000000
     2  C   -0.321502  -0.000000
     3  H    0.160748   0.000000
     4  H    0.160754   0.000000
     5  H    0.160748   0.000000
     6  H    0.160754   0.000000
 Sum of Mulliken charges =   0.00000   0.00000

 Dipole moment (field-independent basis, Debye):
    X=             -0.0000    Y=             -0.0000    Z=              0.0000  Tot=              0.0000
 Quadrupole moment (field-independent basis, Debye-Ang):
   XX=            -12.2590   YY=            -11.9960   ZZ=            -16.8069
   XY=              0.0003   XZ=              0.0000   YZ=              0.0000

 Normal termination of Gaussian 16 at Tue Nov 19 11:45:59 2024.
