 Gaussian 16, Revision A.03,
 Gaussian 16:  ES64L-G16RevA.03 25-Dec-2016

 --------------------------------------------
 #p opt UM062X/6-311+G** nosymm int=superfine
 --------------------------------------------

 -------------------
 Title Card Required
 -------------------
 Symbolic Z-matrix:
 Charge = -1 Multiplicity = 2

 SCF Done:  E(UM062X) =  -50.5583237876     A.U. after   16 cycles
 SCF Done:  E(UM062X) =  -50.5624578443     A.U. after   23 cycles
 SCF Done:  E(UM062X) =  -50.5627265420     A.U. after   17 cycles
 Optimization completed.
    -- Stationary point found.

                          Input orientation:
 ---------------------------------------------------------------------
 Center     Atomic      Atomic             Coordinates (Angstroms)
 Number     Number       Type             X           Y           Z
 ---------------------------------------------------------------------
      1          5           0       -1.941404    0.000000    0.000000
      2          5           0        1.941404    0.000000    0.000000
      3          1           0       -3.207666   -0.000959   -0.000000
      4          1           0        3.207666    0.000959    0.000000
 ---------------------------------------------------------------------

 Alpha  occ. eigenvalues --   -6.91225  -6.91225  -0.34782  -0.34617  -0.09770
 Alpha  occ. eigenvalues --   -0.06590   0.02641
 Alpha virt. eigenvalues --    0.10426   0.12364   0.13683   0.15472   0.16157
 Alpha virt. eigenvalues --    0.21628   0.21821   0.21997   0.22603   0.23274
 Alpha virt. eigenvalues --    0.25537   0.32939   0.37211   0.50557   0.57470

  Beta  occ. eigenvalues --   -6.91141  -6.91140  -0.33724  -0.33647  -0.08655
  Beta  occ. eigenvalues --   -0.05576
  Beta virt. eigenvalues --    0.10572   0.11445   0.12314   0.12774   0.13440
  Beta virt. eigenvalues --    0.13739   0.19187   0.20155   0.20432   0.21382
  Beta virt. eigenvalues --    0.21418   0.21963   0.32783   0.37280   0.50266

 Mulliken charges and spin densities:
               1          2
     1  B   -0.408877   0.511385
     2  B   -0.408877   0.511385
     3  H   -0.091123  -0.011385
     4  H   -0.091123  -0.011385
 Sum of Mulliken charges =  -1.00000   1.00000

 Dipole moment (field-independent basis, Debye):
    X=              0.0000    Y=              0.0000    Z=              0.0000  Tot=              0.0000
 Quadrupole moment (field-independent basis, Debye-Ang):
   XX=            -38.7565   YY=            -19.1547   ZZ=            -26.5903
   XY=             -0.0010   XZ=             -0.0000   YZ=              0.0000

 Normal termination of Gaussian 16 at Mon Apr 21 17:29:01 2025.
