 Gaussian 16, Revision A.03,
 Gaussian 16:  ES64L-G16RevA.03 25-Dec-2016

 --------------------------------------------
 #p opt UM062X/6-311+G** nosymm int=superfine
 --------------------------------------------

 -------------------
 Title Card Required
 -------------------
 Symbolic Z-matrix:
 Charge =  0 Multiplicity = 1

 SCF Done:  E(UM062X) =  -151.316241912     A.U. after   22 cycles
 SCF Done:  E(UM062X) =  -151.317092109     A.U. after   26 cycles
 SCF Done:  E(UM062X) =  -151.318802646     A.U. after   18 cycles
 SCF Done:  E(UM062X) =  -151.319584958     A.U. after   22 cycles
 SCF Done:  E(UM062X) =  -151.319931336     A.U. after   28 cycles
 SCF Done:  E(UM062X) =  -151.319962023     A.U. after   18 cycles
 SCF Done:  E(UM062X) =  -151.319964005     A.U. after   17 cycles
 SCF Done:  E(UM062X) =  -151.319964324     A.U. after   12 cycles
 SCF Done:  E(UM062X) =  -151.319964377     A.U. after   19 cycles
 Optimization completed.
    -- Stationary point found.

                          Input orientation:
 ---------------------------------------------------------------------
 Center     Atomic      Atomic             Coordinates (Angstroms)
 Number     Number       Type             X           Y           Z
 ---------------------------------------------------------------------
      1          8           0       -1.711938    0.000000    0.000000
      2          8           0        1.711938    0.000000    0.000000
      3          1           0       -1.510814   -0.763507   -0.570492
      4          1           0        1.510983    0.763298    0.570831
 ---------------------------------------------------------------------

 Alpha  occ. eigenvalues --  -19.72585 -19.72584  -1.13110  -1.12796  -0.56888
 Alpha  occ. eigenvalues --   -0.56671  -0.44328  -0.44073  -0.36921
 Alpha virt. eigenvalues --   -0.26539   0.05101   0.07801   0.14882   0.15015
 Alpha virt. eigenvalues --    0.17520   0.18575   0.20172   0.20867   0.21124
 Alpha virt. eigenvalues --    0.31099   0.48728   0.51947   0.99728   1.00940

  Beta  occ. eigenvalues --  -19.72585 -19.72584  -1.13110  -1.12796  -0.56888
  Beta  occ. eigenvalues --   -0.56671  -0.44328  -0.44073  -0.36921
  Beta virt. eigenvalues --   -0.26539   0.05101   0.07801   0.14882   0.15015
  Beta virt. eigenvalues --    0.17520   0.18575   0.20172   0.20867   0.21124
  Beta virt. eigenvalues --    0.31099   0.48728   0.51947   0.99728   1.00940

 Mulliken charges and spin densities:
               1          2
     1  O   -0.268281   0.000000
     2  O   -0.268295  -0.000000
     3  H    0.268289   0.000000
     4  H    0.268287   0.000000
 Sum of Mulliken charges =  -0.00000   0.00000

 Dipole moment (field-independent basis, Debye):
    X=              0.0002    Y=             -0.0004    Z=              0.0007  Tot=              0.0008
 Quadrupole moment (field-independent basis, Debye-Ang):
   XX=            -13.2438   YY=            -10.5310   ZZ=            -11.9601
   XY=              4.7362   XZ=              3.5404   YZ=              2.4212

 Normal termination of Gaussian 16 at Mon Apr 21 21:37:57 2025.
