 Gaussian 16, Revision A.03,
 Gaussian 16:  ES64L-G16RevA.03 25-Dec-2016

 ---------------------------------------
 #p UM062X/6-311+G** force int=superfine
 ---------------------------------------

 -------------------
 Title Card Required
 -------------------
 Symbolic Z-matrix:
 Charge =  1 Multiplicity = 2

                         Standard orientation:
 ---------------------------------------------------------------------
 Center     Atomic      Atomic             Coordinates (Angstroms)
 Number     Number       Type             X           Y           Z
 ---------------------------------------------------------------------
      1          7           0        0.000000    0.000000    1.755391
      2          7           0        0.000000    0.000000   -1.755391
 ---------------------------------------------------------------------

 SCF Done:  E(UM062X) =  -108.342111257     A.U. after   11 cycles

 Unable to determine electronic state:  partially filled degenerate orbitals.
 Alpha  occ. eigenvalues --  -15.31103 -15.31100  -1.19753  -1.19121  -0.65523
 Alpha  occ. eigenvalues --   -0.63894  -0.62897
 Alpha virt. eigenvalues --   -0.57319  -0.54674  -0.53863  -0.12922  -0.08113
 Alpha virt. eigenvalues --   -0.07923  -0.07765  -0.04072  -0.02905  -0.02718
 Alpha virt. eigenvalues --    0.03740   0.51345   0.51802   0.52558   0.52663

  Beta  occ. eigenvalues --  -15.30613 -15.30611  -1.16012  -1.15458  -0.62148
  Beta  occ. eigenvalues --   -0.61120
  Beta virt. eigenvalues --   -0.52877  -0.51984  -0.43917  -0.43537  -0.13828
  Beta virt. eigenvalues --   -0.08894  -0.08162  -0.07816  -0.04322  -0.03224
  Beta virt. eigenvalues --   -0.02944   0.02530   0.52018   0.52353   0.52713

 Mulliken charges and spin densities:
               1          2
     1  N    0.500000   0.500000
     2  N    0.500000   0.500000
 Sum of Mulliken charges =   1.00000   1.00000

 Dipole moment (field-independent basis, Debye):
    X=              0.0000    Y=             -0.0000    Z=             -0.0000  Tot=              0.0000
 Quadrupole moment (field-independent basis, Debye-Ang):
   XX=            -10.0099   YY=             -8.5662   ZZ=              6.2760
   XY=             -0.0000   XZ=             -0.0000   YZ=             -0.0000

 Optimization completed.
    -- Stationary point found.
 Normal termination of Gaussian 16 at Wed Feb 26 14:02:00 2025.
