 Gaussian 16, Revision A.03,
 Gaussian 16:  ES64L-G16RevA.03 25-Dec-2016

 --------------------------------------------
 #p opt UM062X/6-311+G** nosymm int=superfine
 --------------------------------------------

 -------------------
 Title Card Required
 -------------------
 Symbolic Z-matrix:
 Charge =  1 Multiplicity = 2

 SCF Done:  E(UM062X) =  -579.682322712     A.U. after   15 cycles
 SCF Done:  E(UM062X) =  -579.684615928     A.U. after   14 cycles
 SCF Done:  E(UM062X) =  -579.688764071     A.U. after   15 cycles
 SCF Done:  E(UM062X) =  -579.689451801     A.U. after   14 cycles
 SCF Done:  E(UM062X) =  -579.689674535     A.U. after   13 cycles
 SCF Done:  E(UM062X) =  -579.689694987     A.U. after   12 cycles
 SCF Done:  E(UM062X) =  -579.689717213     A.U. after   12 cycles
 SCF Done:  E(UM062X) =  -579.689732564     A.U. after   12 cycles
 SCF Done:  E(UM062X) =  -579.689745255     A.U. after   11 cycles
 SCF Done:  E(UM062X) =  -579.689748344     A.U. after   12 cycles
 SCF Done:  E(UM062X) =  -579.689748351     A.U. after    8 cycles
 Optimization completed.
    -- Stationary point found.

                          Input orientation:
 ---------------------------------------------------------------------
 Center     Atomic      Atomic             Coordinates (Angstroms)
 Number     Number       Type             X           Y           Z
 ---------------------------------------------------------------------
      1         14           0       -1.952975    0.000000    0.000000
      2         14           0        1.952975    0.000000    0.000000
      3          1           0       -2.058429   -1.503804   -0.000000
      4          1           0        2.058474    1.503802   -0.000000
 ---------------------------------------------------------------------

 Alpha  occ. eigenvalues --  -67.26840 -67.26840  -5.81007  -5.81005  -4.12105
 Alpha  occ. eigenvalues --   -4.12105  -4.12027  -4.12027  -4.11373  -4.11373
 Alpha  occ. eigenvalues --   -0.76262  -0.75232  -0.52734  -0.52501  -0.42053
 Alpha virt. eigenvalues --   -0.28288  -0.28175  -0.26810  -0.11186  -0.09814
 Alpha virt. eigenvalues --   -0.08743  -0.08483  -0.07917  -0.06930  -0.05650
 Alpha virt. eigenvalues --   -0.05631  -0.05190  -0.02803   0.13024   0.14120

  Beta  occ. eigenvalues --  -67.26585 -67.26585  -5.80932  -5.80929  -4.11964
  Beta  occ. eigenvalues --   -4.11964  -4.11435  -4.11435  -4.11254  -4.11253
  Beta  occ. eigenvalues --   -0.74303  -0.73595  -0.52143  -0.51642
  Beta virt. eigenvalues --   -0.28314  -0.27975  -0.26346  -0.22930  -0.13355
  Beta virt. eigenvalues --   -0.10428  -0.08989  -0.08728  -0.08356  -0.06748
  Beta virt. eigenvalues --   -0.05574  -0.05388  -0.05315  -0.02765   0.11979

 Mulliken charges and spin densities:
               1          2
     1  Si   0.578966   0.510547
     2  Si   0.578962   0.510551
     3  H   -0.078965  -0.010549
     4  H   -0.078964  -0.010549
 Sum of Mulliken charges =   1.00000   1.00000

 Dipole moment (field-independent basis, Debye):
    X=              0.0000    Y=             -0.0000    Z=             -0.0000  Tot=              0.0000
 Quadrupole moment (field-independent basis, Debye-Ang):
   XX=             -1.0124   YY=            -27.5893   ZZ=            -19.8591
   XY=              2.1172   XZ=              0.0000   YZ=             -0.0000

 Normal termination of Gaussian 16 at Mon Apr 21 20:41:11 2025.
