 Gaussian 16, Revision A.03,
 Gaussian 16:  ES64L-G16RevA.03 25-Dec-2016

 --------------------------------------------
 #p opt UM062X/6-311+G** nosymm int=superfine
 --------------------------------------------

 -------------------
 Title Card Required
 -------------------
 Symbolic Z-matrix:
 Charge =  1 Multiplicity = 2

 SCF Done:  E(UM062X) =  -76.8788702390     A.U. after   10 cycles
 SCF Done:  E(UM062X) =  -76.8868133414     A.U. after   30 cycles
 SCF Done:  E(UM062X) =  -76.8868222040     A.U. after    7 cycles
 Optimization completed.
    -- Stationary point found.

                          Input orientation:
 ---------------------------------------------------------------------
 Center     Atomic      Atomic             Coordinates (Angstroms)
 Number     Number       Type             X           Y           Z
 ---------------------------------------------------------------------
      1          6           0       -0.671050    0.000000    0.000000
      2          6           0        0.671050    0.000000    0.000000
      3          1           0       -1.755171   -0.000000   -0.000000
      4          1           0        1.755171   -0.000000    0.000000
 ---------------------------------------------------------------------

 Alpha  occ. eigenvalues --  -10.95831 -10.95709  -1.19361  -0.97719  -0.88718
 Alpha  occ. eigenvalues --   -0.70317  -0.67798
 Alpha virt. eigenvalues --   -0.29858  -0.27838  -0.16905  -0.14431  -0.11356
 Alpha virt. eigenvalues --   -0.09991  -0.09751  -0.07925  -0.04981  -0.04582
 Alpha virt. eigenvalues --    0.02196   0.04483   0.13634   0.19547   0.30186

  Beta  occ. eigenvalues --  -10.95592 -10.95490  -1.14774  -0.96100  -0.88177
  Beta  occ. eigenvalues --   -0.65400
  Beta virt. eigenvalues --   -0.44765  -0.26178  -0.22973  -0.15635  -0.15577
  Beta virt. eigenvalues --   -0.11545  -0.10288  -0.10022  -0.07600  -0.04540
  Beta virt. eigenvalues --   -0.04015   0.01809   0.04680   0.14220   0.20435

 Mulliken charges and spin densities:
               1          2
     1  C    0.176054   0.519625
     2  C    0.176054   0.519625
     3  H    0.323946  -0.019625
     4  H    0.323946  -0.019625
 Sum of Mulliken charges =   1.00000   1.00000

 Dipole moment (field-independent basis, Debye):
    X=             -0.0000    Y=             -0.0000    Z=             -0.0000  Tot=              0.0000
 Quadrupole moment (field-independent basis, Debye-Ang):
   XX=              0.2080   YY=            -10.6402   ZZ=            -11.0066
   XY=              0.0000   XZ=              0.0000   YZ=             -0.9231

 Normal termination of Gaussian 16 at Tue Nov 19 13:03:34 2024.
