 Gaussian 16, Revision A.03,
 Gaussian 16:  ES64L-G16RevA.03 25-Dec-2016

 --------------------------------------------
 #p opt UM062X/6-311+G** nosymm int=superfine
 --------------------------------------------

 -------------------
 Title Card Required
 -------------------
 Symbolic Z-matrix:
 Charge =  0 Multiplicity = 1

 SCF Done:  E(UM062X) =  -111.626967871     A.U. after   16 cycles
 SCF Done:  E(UM062X) =  -111.634986805     A.U. after   14 cycles
 SCF Done:  E(UM062X) =  -111.640842352     A.U. after   16 cycles
 SCF Done:  E(UM062X) =  -111.643239594     A.U. after   14 cycles
 SCF Done:  E(UM062X) =  -111.644963749     A.U. after   15 cycles
 SCF Done:  E(UM062X) =  -111.645413933     A.U. after   13 cycles
 SCF Done:  E(UM062X) =  -111.646075660     A.U. after   15 cycles
 SCF Done:  E(UM062X) =  -111.646245954     A.U. after   14 cycles
 SCF Done:  E(UM062X) =  -111.646304497     A.U. after   13 cycles
 SCF Done:  E(UM062X) =  -111.646344705     A.U. after   13 cycles
 SCF Done:  E(UM062X) =  -111.646402306     A.U. after   14 cycles
 SCF Done:  E(UM062X) =  -111.646410708     A.U. after   12 cycles
 SCF Done:  E(UM062X) =  -111.646411231     A.U. after   10 cycles
 SCF Done:  E(UM062X) =  -111.646411246     A.U. after   10 cycles
 Optimization completed.
    -- Stationary point found.

                          Input orientation:
 ---------------------------------------------------------------------
 Center     Atomic      Atomic             Coordinates (Angstroms)
 Number     Number       Type             X           Y           Z
 ---------------------------------------------------------------------
      1          7           0       -1.686540    0.000000    0.000000
      2          7           0        1.686540    0.000000    0.000000
      3          1           0       -1.581009   -0.814103   -0.618232
      4          1           0        1.580804    0.407111   -0.937653
      5          1           0       -1.580792   -0.407373    0.937540
      6          1           0        1.580948    0.814263    0.618005
 ---------------------------------------------------------------------

 Alpha  occ. eigenvalues --  -14.80566 -14.80564  -0.95231  -0.94713  -0.55281
 Alpha  occ. eigenvalues --   -0.54953  -0.40879  -0.40428  -0.29347
 Alpha virt. eigenvalues --   -0.17464   0.04429   0.06295   0.08694   0.11493
 Alpha virt. eigenvalues --    0.12632   0.13738   0.15801   0.16098   0.18480
 Alpha virt. eigenvalues --    0.19374   0.25814   0.27294   0.51333   0.51471

  Beta  occ. eigenvalues --  -14.80566 -14.80564  -0.95231  -0.94713  -0.55281
  Beta  occ. eigenvalues --   -0.54953  -0.40879  -0.40428  -0.29347
  Beta virt. eigenvalues --   -0.17464   0.04429   0.06295   0.08694   0.11493
  Beta virt. eigenvalues --    0.12632   0.13738   0.15801   0.16098   0.18480
  Beta virt. eigenvalues --    0.19374   0.25814   0.27294   0.51333   0.51471

 Mulliken charges and spin densities:
               1          2
     1  N   -0.490800   0.000000
     2  N   -0.490789  -0.000000
     3  H    0.245393   0.000000
     4  H    0.245395  -0.000000
     5  H    0.245402   0.000000
     6  H    0.245399  -0.000000
 Sum of Mulliken charges =  -0.00000  -0.00000

 Dipole moment (field-independent basis, Debye):
    X=             -0.0001    Y=             -0.0001    Z=             -0.0005  Tot=              0.0006
 Quadrupole moment (field-independent basis, Debye-Ang):
   XX=            -16.3443   YY=            -14.3220   ZZ=            -11.5098
   XY=              7.0293   XZ=             -1.8381   YZ=              0.7896

 Normal termination of Gaussian 16 at Thu May 15 14:56:08 2025.
