 Gaussian 16, Revision A.03,
 Gaussian 16:  ES64L-G16RevA.03 25-Dec-2016

 ---------------------------------------------------
 #p UM062X/6-311+G** force int=superfine pop=saveNBO
 ---------------------------------------------------

 -------------------
 Title Card Required
 -------------------
 Symbolic Z-matrix:
 Charge =  0 Multiplicity = 1

                         Standard orientation:
 ---------------------------------------------------------------------
 Center     Atomic      Atomic             Coordinates (Angstroms)
 Number     Number       Type             X           Y           Z
 ---------------------------------------------------------------------
      1          8           0        0.000000    0.000000    1.618562
      2          8           0        0.000000    0.000000   -1.618562
 ---------------------------------------------------------------------

 SCF Done:  E(UM062X) =  -149.796346905     A.U. after   10 cycles

 Unable to determine electronic state:  partially filled degenerate orbitals.
 Alpha  occ. eigenvalues --  -19.82714 -19.82712  -1.10440  -1.09903  -0.48717
 Alpha  occ. eigenvalues --   -0.48429  -0.40907  -0.39956
 Alpha virt. eigenvalues --   -0.30968  -0.29817   0.09452   0.12580   0.14393
 Alpha virt. eigenvalues --    0.14439   0.18953   0.19454   0.19699   0.28958
 Alpha virt. eigenvalues --    0.99916   1.01173   1.01334   1.01383   1.02649

  Beta  occ. eigenvalues --  -19.82714 -19.82712  -1.10440  -1.09903  -0.48717
  Beta  occ. eigenvalues --   -0.48429  -0.40907  -0.39956
  Beta virt. eigenvalues --   -0.30968  -0.29817   0.09452   0.12580   0.14393
  Beta virt. eigenvalues --    0.14439   0.18953   0.19454   0.19699   0.28958
  Beta virt. eigenvalues --    0.99916   1.01173   1.01334   1.01383   1.02649

 Mulliken charges and spin densities:
               1          2
     1  O   -0.000000   0.000000
     2  O    0.000000   0.000000
 Sum of Mulliken charges =  -0.00000   0.00000

 Dipole moment (field-independent basis, Debye):
    X=              0.0000    Y=              0.0000    Z=              0.0000  Tot=              0.0000
 Quadrupole moment (field-independent basis, Debye-Ang):
   XX=            -10.1837   YY=            -12.0362   ZZ=             -9.2182
   XY=              0.0000   XZ=             -0.0000   YZ=              0.0000

 Summary of Natural Population Analysis:

                                       Natural Population
                Natural  -----------------------------------------------
    Atom  No    Charge         Core      Valence    Rydberg      Total
 -----------------------------------------------------------------------
      O    1    0.00000      1.00000     2.99904    0.00096     4.00000
      O    2    0.00000      1.00000     2.99904    0.00096     4.00000
 =======================================================================
   * Total *    0.00000      2.00000     5.99808    0.00192     8.00000

 Normal termination of Gaussian 16 at Mon Apr 21 19:48:47 2025.
