 Gaussian 16, Revision A.03,
 Gaussian 16:  ES64L-G16RevA.03 25-Dec-2016

 ---------------------------------------
 #p UM062X/6-311+G** force int=superfine
 ---------------------------------------

 -------------------
 Title Card Required
 -------------------
 Symbolic Z-matrix:
 Charge =  1 Multiplicity = 2

                         Standard orientation:
 ---------------------------------------------------------------------
 Center     Atomic      Atomic             Coordinates (Angstroms)
 Number     Number       Type             X           Y           Z
 ---------------------------------------------------------------------
      1          6           0        0.487024   -0.637434    1.248186
      2          6           0       -0.487017    0.637444   -1.248182
      3          1           0        0.404982    0.363214   -1.799903
      4          1           0        0.553744   -1.615288    0.784926
      5          1           0       -0.554197    1.615532   -0.785481
      6          1           0       -1.364066    0.001789   -1.292740
      7          1           0       -0.404886   -0.363064    1.799985
      8          1           0        1.364384   -0.002239    1.293189
 ---------------------------------------------------------------------

 SCF Done:  E(UM062X) =  -79.3412126752     A.U. after   10 cycles

 The electronic state is 2-A.
 Alpha  occ. eigenvalues --  -10.85148 -10.85145  -1.04352  -1.02615  -0.74932
 Alpha  occ. eigenvalues --   -0.74931  -0.74080  -0.74080  -0.53175
 Alpha virt. eigenvalues --   -0.35010  -0.14236  -0.10335  -0.10335  -0.10132
 Alpha virt. eigenvalues --   -0.06222  -0.06222  -0.05461  -0.03219  -0.02410
 Alpha virt. eigenvalues --   -0.02407   0.01377   0.01380   0.05133   0.07586

  Beta  occ. eigenvalues --  -10.84951 -10.84951  -1.01415  -1.00223  -0.74364
  Beta  occ. eigenvalues --   -0.74363  -0.73573  -0.73573
  Beta virt. eigenvalues --   -0.32744  -0.25271  -0.15434  -0.11127  -0.11126
  Beta virt. eigenvalues --   -0.09896  -0.06459  -0.06458  -0.05574  -0.02611
  Beta virt. eigenvalues --   -0.02608  -0.02372   0.01701   0.01703   0.06022

 Mulliken charges and spin densities:
               1          2
     1  C   -0.273884   0.569368
     2  C   -0.273885   0.569369
     3  H    0.257977  -0.023133
     4  H    0.257930  -0.023129
     5  H    0.257957  -0.023130
     6  H    0.257950  -0.023105
     7  H    0.257978  -0.023133
     8  H    0.257977  -0.023107
 Sum of Mulliken charges =   1.00000   1.00000

 Dipole moment (field-independent basis, Debye):
    X=             -0.0000    Y=             -0.0001    Z=             -0.0000  Tot=              0.0001
 Quadrupole moment (field-independent basis, Debye-Ang):
   XX=             -9.8951   YY=             -9.0927   ZZ=             -3.6305
   XY=             -1.4713   XZ=              2.8815   YZ=             -3.7725

 Normal termination of Gaussian 16 at Wed Nov 13 12:57:59 2024.
