 Gaussian 16, Revision A.03,
 Gaussian 16:  ES64L-G16RevA.03 25-Dec-2016

 ---------------------------------------
 #p UM062X/6-311+G** force int=superfine
 ---------------------------------------

 -------------------
 Title Card Required
 -------------------
 Symbolic Z-matrix:
 Charge =  1 Multiplicity = 2

                         Standard orientation:
 ---------------------------------------------------------------------
 Center     Atomic      Atomic             Coordinates (Angstroms)
 Number     Number       Type             X           Y           Z
 ---------------------------------------------------------------------
      1          7           0        0.000000    0.000000    1.530391
      2          7           0        0.000000    0.000000   -1.530391
 ---------------------------------------------------------------------

 SCF Done:  E(UM062X) =  -108.373561056     A.U. after   11 cycles

 Unable to determine electronic state:  partially filled degenerate orbitals.
 Alpha  occ. eigenvalues --  -15.32759 -15.32753  -1.21324  -1.20053  -0.67436
 Alpha  occ. eigenvalues --   -0.66561  -0.64814
 Alpha virt. eigenvalues --   -0.57777  -0.55123  -0.53563  -0.12861  -0.08395
 Alpha virt. eigenvalues --   -0.08339  -0.08236  -0.03509  -0.02935  -0.02734
 Alpha virt. eigenvalues --    0.04143   0.44410   0.49586   0.50827   0.52723

  Beta  occ. eigenvalues --  -15.32268 -15.32264  -1.17577  -1.16391  -0.64878
  Beta  occ. eigenvalues --   -0.63035
  Beta virt. eigenvalues --   -0.53304  -0.51599  -0.45324  -0.44502  -0.13955
  Beta virt. eigenvalues --   -0.09024  -0.08753  -0.08346  -0.03860  -0.03199
  Beta virt. eigenvalues --   -0.02976   0.02743   0.44413   0.50698   0.51009

 Mulliken charges and spin densities:
               1          2
     1  N    0.500000   0.500000
     2  N    0.500000   0.500000
 Sum of Mulliken charges =   1.00000   1.00000

 Dipole moment (field-independent basis, Debye):
    X=              0.0000    Y=              0.0000    Z=              0.0000  Tot=              0.0000
 Quadrupole moment (field-independent basis, Debye-Ang):
   XX=             -8.5694   YY=            -10.0179   ZZ=              2.9378
   XY=             -0.0000   XZ=             -0.0000   YZ=              0.0000

 Optimization completed.
    -- Stationary point found.
 Normal termination of Gaussian 16 at Wed Feb 26 13:54:13 2025.
