 Gaussian 16, Revision A.03,
 Gaussian 16:  ES64L-G16RevA.03 25-Dec-2016

 --------------------------------------------
 #p opt UM062X/6-311+G** nosymm int=superfine
 --------------------------------------------

 -------------------
 Title Card Required
 -------------------
 Symbolic Z-matrix:
 Charge =  1 Multiplicity = 2

 SCF Done:  E(UM062X) =  -77.0736692801     A.U. after   10 cycles
 SCF Done:  E(UM062X) =  -77.1490042175     A.U. after   10 cycles
 SCF Done:  E(UM062X) =  -77.2337644107     A.U. after   10 cycles
 SCF Done:  E(UM062X) =  -77.2561250921     A.U. after   10 cycles
 SCF Done:  E(UM062X) =  -77.2704599589     A.U. after    9 cycles
 SCF Done:  E(UM062X) =  -77.2769915415     A.U. after    9 cycles
 SCF Done:  E(UM062X) =  -77.2771483576     A.U. after    8 cycles
 Optimization completed.
    -- Stationary point found.

                          Input orientation:
 ---------------------------------------------------------------------
 Center     Atomic      Atomic             Coordinates (Angstroms)
 Number     Number       Type             X           Y           Z
 ---------------------------------------------------------------------
      1          6           0       -0.402928    0.000000    0.000000
      2          6           0        0.402928    0.000000    0.000000
      3          1           0       -1.241905   -0.767879   -0.000000
      4          1           0       -1.238604    0.772767    0.000000
      5          1           0        1.241905    0.767879   -0.000000
      6          1           0        1.238604   -0.772767    0.000000
 ---------------------------------------------------------------------

 Alpha  occ. eigenvalues --  -10.84530 -10.77266  -1.24474  -0.95976  -0.91137
 Alpha  occ. eigenvalues --   -0.88607  -0.79588  -0.60077
 Alpha virt. eigenvalues --   -0.19787  -0.15581  -0.13877  -0.12453  -0.11524
 Alpha virt. eigenvalues --   -0.09148  -0.07721  -0.06293  -0.01779   0.00079
 Alpha virt. eigenvalues --    0.00367   0.03111   0.16561   0.17452   0.19997

  Beta  occ. eigenvalues --  -10.84614 -10.77317  -1.23761  -0.91291  -0.87628
  Beta  occ. eigenvalues --   -0.85800  -0.79477
  Beta virt. eigenvalues --   -0.39583  -0.17744  -0.15386  -0.13487  -0.12384
  Beta virt. eigenvalues --   -0.11218  -0.09004  -0.04631  -0.03176  -0.01405
  Beta virt. eigenvalues --    0.00837   0.01571   0.04055   0.15766   0.17140

 Mulliken charges and spin densities:
               1          2
     1  C   -0.136886   0.081825
     2  C   -0.136886   0.081825
     3  H    0.318345   0.208118
     4  H    0.318541   0.210057
     5  H    0.318345   0.208118
     6  H    0.318541   0.210057
 Sum of Mulliken charges =   1.00000   1.00000

 Dipole moment (field-independent basis, Debye):
    X=             -0.0000    Y=             -0.0000    Z=             -0.0000  Tot=              0.0000
 Quadrupole moment (field-independent basis, Debye-Ang):
   XX=             -2.6168   YY=             -7.6442   ZZ=            -11.5175
   XY=             -0.0126   XZ=              0.0000   YZ=             -0.0000

 Normal termination of Gaussian 16 at Tue Nov 19 10:33:34 2024.
