 Gaussian 16, Revision A.03,
 Gaussian 16:  ES64L-G16RevA.03 25-Dec-2016

 --------------------------------------------
 #p opt UM062X/6-311+G** nosymm int=superfine
 --------------------------------------------

 -------------------
 Title Card Required
 -------------------
 Symbolic Z-matrix:
 Charge =  0 Multiplicity = 1

 SCF Done:  E(UM062X) =  -114.264427873     A.U. after   12 cycles
 SCF Done:  E(UM062X) =  -114.267408674     A.U. after   10 cycles
 SCF Done:  E(UM062X) =  -114.268527927     A.U. after   10 cycles
 SCF Done:  E(UM062X) =  -114.268544369     A.U. after    9 cycles
 SCF Done:  E(UM062X) =  -114.268544219     A.U. after    9 cycles
 SCF Done:  E(UM062X) =  -114.268544377     A.U. after    9 cycles
 Optimization completed.
    -- Stationary point found.

                          Input orientation:
 ---------------------------------------------------------------------
 Center     Atomic      Atomic             Coordinates (Angstroms)
 Number     Number       Type             X           Y           Z
 ---------------------------------------------------------------------
      1          6           0       -0.923311    0.000000    0.000000
      2          8           0        0.923311    0.000000    0.000000
      3          1           0       -1.367633   -0.985747   -0.000003
      4          1           0       -1.367633    0.985747   -0.000002
 ---------------------------------------------------------------------

 Alpha  occ. eigenvalues --  -19.67422 -10.71065  -1.00265  -0.80441  -0.58793
 Alpha  occ. eigenvalues --   -0.42701  -0.36309  -0.35164
 Alpha virt. eigenvalues --   -0.12813  -0.01607   0.01879   0.04168   0.06647
 Alpha virt. eigenvalues --    0.07814   0.13306   0.18691   0.21354   0.23888
 Alpha virt. eigenvalues --    0.26493   0.33076   0.39904   0.46369   0.53878

  Beta  occ. eigenvalues --  -19.67422 -10.71065  -1.00265  -0.80441  -0.58793
  Beta  occ. eigenvalues --   -0.42701  -0.36309  -0.35164
  Beta virt. eigenvalues --   -0.12813  -0.01607   0.01879   0.04168   0.06647
  Beta virt. eigenvalues --    0.07814   0.13306   0.18691   0.21354   0.23888
  Beta virt. eigenvalues --    0.26493   0.33076   0.39904   0.46369   0.53878

 Mulliken charges and spin densities:
               1          2
     1  C   -0.106441   0.000000
     2  O   -0.314795  -0.000000
     3  H    0.210618  -0.000000
     4  H    0.210618  -0.000000
 Sum of Mulliken charges =  -0.00000  -0.00000

 Dipole moment (field-independent basis, Debye):
    X=             -4.3679    Y=             -0.0000    Z=             -0.0000  Tot=              4.3679
 Quadrupole moment (field-independent basis, Debye-Ang):
   XX=            -10.6622   YY=            -11.3867   ZZ=            -13.1187
   XY=             -0.0000   XZ=              0.0000   YZ=              0.0000

 Normal termination of Gaussian 16 at Mon Apr 21 18:48:14 2025.
