 Gaussian 16, Revision A.03,
 Gaussian 16:  ES64L-G16RevA.03 25-Dec-2016

 --------------------------------------------
 #p opt UM062X/6-311+G** nosymm int=superfine
 --------------------------------------------

 -------------------
 Title Card Required
 -------------------
 Symbolic Z-matrix:
 Charge =  0 Multiplicity = 1

 SCF Done:  E(UM062X) =  -78.1975565516     A.U. after    9 cycles
 SCF Done:  E(UM062X) =  -78.2147340514     A.U. after    9 cycles
 SCF Done:  E(UM062X) =  -78.2306842178     A.U. after    8 cycles
 SCF Done:  E(UM062X) =  -78.2310657278     A.U. after    8 cycles
 SCF Done:  E(UM062X) =  -78.2310673385     A.U. after    7 cycles
 Optimization completed.
    -- Stationary point found.

                          Input orientation:
 ---------------------------------------------------------------------
 Center     Atomic      Atomic             Coordinates (Angstroms)
 Number     Number       Type             X           Y           Z
 ---------------------------------------------------------------------
      1          6           0       -1.785595    0.000000    0.000000
      2          6           0        1.785595    0.000000    0.000000
      3          1           0       -2.494652   -0.857140   -0.000000
      4          1           0       -2.494617    0.857170   -0.000000
      5          1           0        2.494652    0.857140    0.000000
      6          1           0        2.494617   -0.857170    0.000000
 ---------------------------------------------------------------------

 Alpha  occ. eigenvalues --  -10.59143 -10.59142  -0.74213  -0.74112  -0.45850
 Alpha  occ. eigenvalues --   -0.45761  -0.31093  -0.28112
 Alpha virt. eigenvalues --   -0.07187  -0.06406   0.02551   0.03416   0.06684
 Alpha virt. eigenvalues --    0.08605   0.08836   0.10460   0.12552   0.15442
 Alpha virt. eigenvalues --    0.17598   0.19979   0.21028   0.22805   0.45257

  Beta  occ. eigenvalues --  -10.59143 -10.59142  -0.74213  -0.74112  -0.45850
  Beta  occ. eigenvalues --   -0.45761  -0.31093  -0.28112
  Beta virt. eigenvalues --   -0.07187  -0.06406   0.02551   0.03416   0.06684
  Beta virt. eigenvalues --    0.08605   0.08836   0.10460   0.12552   0.15442
  Beta virt. eigenvalues --    0.17598   0.19979   0.21028   0.22805   0.45257

 Mulliken charges and spin densities:
               1          2
     1  C   -0.236858   0.000000
     2  C   -0.236858  -0.000000
     3  H    0.118429  -0.000000
     4  H    0.118429   0.000000
     5  H    0.118429   0.000000
     6  H    0.118429  -0.000000
 Sum of Mulliken charges =  -0.00000  -0.00000

 Dipole moment (field-independent basis, Debye):
    X=              0.0000    Y=              0.0000    Z=              0.0000  Tot=              0.0000
 Quadrupole moment (field-independent basis, Debye-Ang):
   XX=             -5.4975   YY=            -14.7415   ZZ=            -12.9747
   XY=             -0.0001   XZ=              0.0000   YZ=              0.0000

 Normal termination of Gaussian 16 at Tue Dec  3 11:14:40 2024.
