 Gaussian 16, Revision A.03,
 Gaussian 16:  ES64L-G16RevA.03 25-Dec-2016

 --------------------------------------------
 #p opt UM062X/6-311+G** nosymm int=superfine
 --------------------------------------------

 -------------------
 Title Card Required
 -------------------
 Symbolic Z-matrix:
 Charge =  0 Multiplicity = 1

 SCF Done:  E(UM062X) =  -115.466888790     A.U. after   16 cycles
 SCF Done:  E(UM062X) =  -115.483210403     A.U. after   11 cycles
 SCF Done:  E(UM062X) =  -115.492939430     A.U. after   13 cycles
 SCF Done:  E(UM062X) =  -115.493113011     A.U. after   10 cycles
 SCF Done:  E(UM062X) =  -115.493238138     A.U. after   11 cycles
 SCF Done:  E(UM062X) =  -115.493314765     A.U. after   12 cycles
 SCF Done:  E(UM062X) =  -115.493328604     A.U. after   10 cycles
 SCF Done:  E(UM062X) =  -115.493329692     A.U. after    9 cycles
 Optimization completed.
    -- Stationary point found.

                          Input orientation:
 ---------------------------------------------------------------------
 Center     Atomic      Atomic             Coordinates (Angstroms)
 Number     Number       Type             X           Y           Z
 ---------------------------------------------------------------------
      1          6           0       -1.607203    0.000000    0.000000
      2          8           0        1.607203    0.000000    0.000000
      3          1           0        1.643404   -0.964984    0.000490
      4          1           0       -1.683972   -0.532451    0.937940
      5          1           0       -1.529911    1.078437   -0.000696
      6          1           0       -1.683941   -0.533661   -0.937255
 ---------------------------------------------------------------------

 Alpha  occ. eigenvalues --  -19.58712 -10.66885  -1.01064  -0.84498  -0.56634
 Alpha  occ. eigenvalues --   -0.56383  -0.45594  -0.32546  -0.28896
 Alpha virt. eigenvalues --   -0.15649   0.00479   0.03863   0.04212   0.06621
 Alpha virt. eigenvalues --    0.13628   0.15068   0.15269   0.19944   0.22963
 Alpha virt. eigenvalues --    0.23004   0.24846   0.29201   0.39316   0.39601

  Beta  occ. eigenvalues --  -19.58712 -10.66885  -1.01064  -0.84498  -0.56634
  Beta  occ. eigenvalues --   -0.56383  -0.45594  -0.32546  -0.28896
  Beta virt. eigenvalues --   -0.15649   0.00479   0.03863   0.04212   0.06621
  Beta virt. eigenvalues --    0.13628   0.15068   0.15269   0.19944   0.22963
  Beta virt. eigenvalues --    0.23004   0.24846   0.29201   0.39316   0.39601

 Mulliken charges and spin densities:
               1          2
     1  C   -0.289260   0.000000
     2  O   -0.568873  -0.000000
     3  H    0.212043   0.000000
     4  H    0.210315  -0.000000
     5  H    0.225461  -0.000000
     6  H    0.210314  -0.000000
 Sum of Mulliken charges =  -0.00000  -0.00000

 Dipole moment (field-independent basis, Debye):
    X=             -5.6818    Y=             -1.5609    Z=              0.0008  Tot=              5.8923
 Quadrupole moment (field-independent basis, Debye-Ang):
   XX=            -13.2510   YY=            -11.4658   ZZ=            -13.8860
   XY=             -2.7052   XZ=              0.0013   YZ=             -0.0012

 Normal termination of Gaussian 16 at Mon Apr 21 18:44:38 2025.
