 Gaussian 16, Revision A.03,
 Gaussian 16:  ES64L-G16RevA.03 25-Dec-2016

 ---------------------------------------
 #p UM062X/6-311+G** force int=superfine
 ---------------------------------------

 -------------------
 Title Card Required
 -------------------
 Symbolic Z-matrix:
 Charge =  1 Multiplicity = 2

                         Standard orientation:
 ---------------------------------------------------------------------
 Center     Atomic      Atomic             Coordinates (Angstroms)
 Number     Number       Type             X           Y           Z
 ---------------------------------------------------------------------
      1          6           0        0.000000    0.000000    0.379019
      2          6           0        0.000000    0.000000   -0.379019
      3          1           0        0.000000    0.000000    1.442356
      4          1           0        0.000000    0.000000   -1.442354
 ---------------------------------------------------------------------

 SCF Done:  E(UM062X) =  -75.7537759532     A.U. after   11 cycles

 Unable to determine electronic state:  partially filled degenerate orbitals.
 Alpha  occ. eigenvalues --  -10.99604 -10.88317  -1.32470  -0.95718  -0.93143
 Alpha  occ. eigenvalues --   -0.91876  -0.91235
 Alpha virt. eigenvalues --   -0.15169  -0.13186  -0.13152  -0.12612  -0.12196
 Alpha virt. eigenvalues --   -0.12124  -0.11535  -0.00345  -0.00018   0.00811
 Alpha virt. eigenvalues --    0.02869   0.03405   0.17441   0.21561   0.22581

  Beta  occ. eigenvalues --  -10.98898 -10.87836  -1.25034  -0.91616  -0.90719
  Beta  occ. eigenvalues --   -0.88332
  Beta virt. eigenvalues --   -0.60620  -0.15462  -0.12882  -0.12570  -0.12244
  Beta virt. eigenvalues --   -0.11671  -0.11487  -0.11419   0.00143   0.01457
  Beta virt. eigenvalues --    0.02477   0.03499   0.03989   0.17669   0.20702

 Mulliken charges and spin densities:
               1          2
     1  C    0.271608   0.525813
     2  C    0.271603   0.525812
     3  H    0.228395  -0.025813
     4  H    0.228394  -0.025813
 Sum of Mulliken charges =   1.00000   1.00000

 Dipole moment (field-independent basis, Debye):
    X=              0.0000    Y=              0.0000    Z=              0.0000  Tot=              0.0000
 Quadrupole moment (field-independent basis, Debye-Ang):
   XX=             -8.0677   YY=             -9.3222   ZZ=             -3.2141
   XY=              0.0000   XZ=              0.0000   YZ=              0.0000

 Normal termination of Gaussian 16 at Tue Nov 19 13:23:23 2024.
