 Gaussian 16, Revision A.03,
 Gaussian 16:  ES64L-G16RevA.03 25-Dec-2016

 --------------------------------------------
 #p opt UM062X/6-311+G** nosymm int=superfine
 --------------------------------------------

 -------------------
 Title Card Required
 -------------------
 Symbolic Z-matrix:
 Charge =  0 Multiplicity = 1

 SCF Done:  E(UM062X) =  -76.9069225535     A.U. after   10 cycles
 SCF Done:  E(UM062X) =  -77.0141959301     A.U. after   10 cycles
 SCF Done:  E(UM062X) =  -77.0424067781     A.U. after    9 cycles
 SCF Done:  E(UM062X) =  -77.0448184469     A.U. after    8 cycles
 SCF Done:  E(UM062X) =  -77.0448190108     A.U. after    6 cycles
 Optimization completed.
    -- Stationary point found.

                          Input orientation:
 ---------------------------------------------------------------------
 Center     Atomic      Atomic             Coordinates (Angstroms)
 Number     Number       Type             X           Y           Z
 ---------------------------------------------------------------------
      1          6           0       -0.460857    0.000000    0.000000
      2          6           0        0.460857    0.000000    0.000000
      3          1           0       -1.519660    0.000000    0.000000
      4          1           0        1.519658   -0.000000   -0.000000
 ---------------------------------------------------------------------

 Alpha  occ. eigenvalues --  -10.48304 -10.45656  -0.89559  -0.60437  -0.56114
 Alpha  occ. eigenvalues --   -0.42072  -0.42072
 Alpha virt. eigenvalues --    0.02882   0.03509   0.07044   0.07044   0.07732
 Alpha virt. eigenvalues --    0.07732   0.09593   0.16935   0.22259   0.22259
 Alpha virt. eigenvalues --    0.22517   0.25107   0.44005   0.47285   0.53106

  Beta  occ. eigenvalues --  -10.48304 -10.45656  -0.89559  -0.60437  -0.56114
  Beta  occ. eigenvalues --   -0.42072  -0.42072
  Beta virt. eigenvalues --    0.02882   0.03509   0.07044   0.07044   0.07732
  Beta virt. eigenvalues --    0.07732   0.09593   0.16935   0.22259   0.22259
  Beta virt. eigenvalues --    0.22517   0.25107   0.44005   0.47285   0.53106

 Mulliken charges and spin densities:
               1          2
     1  C   -0.116958  -0.000000
     2  C   -0.116957   0.000000
     3  H    0.116958   0.000000
     4  H    0.116957  -0.000000
 Sum of Mulliken charges =   0.00000   0.00000

 Dipole moment (field-independent basis, Debye):
    X=             -0.0000    Y=              0.0000    Z=              0.0000  Tot=              0.0000
 Quadrupole moment (field-independent basis, Debye-Ang):
   XX=             -7.6927   YY=            -12.3155   ZZ=            -12.3155
   XY=             -0.0000   XZ=             -0.0000   YZ=              0.0000

 Normal termination of Gaussian 16 at Tue Dec  3 19:57:25 2024.
