 Gaussian 16, Revision A.03,
 Gaussian 16:  ES64L-G16RevA.03 25-Dec-2016

 ---------------------------------------------------
 #p UM062X/6-311+G** force int=superfine pop=saveNBO
 ---------------------------------------------------

 -------------------
 Title Card Required
 -------------------
 Symbolic Z-matrix:
 Charge =  0 Multiplicity = 1

                         Standard orientation:
 ---------------------------------------------------------------------
 Center     Atomic      Atomic             Coordinates (Angstroms)
 Number     Number       Type             X           Y           Z
 ---------------------------------------------------------------------
      1         16           0        0.000000    0.000000    1.175200
      2         16           0        0.000000    0.000000   -1.175200
 ---------------------------------------------------------------------

 SCF Done:  E(UM062X) =  -796.245796624     A.U. after   10 cycles

 Unable to determine electronic state:  partially filled degenerate orbitals.
 Alpha  occ. eigenvalues --  -89.98092 -89.98092  -8.33864  -8.33860  -6.25936
 Alpha  occ. eigenvalues --   -6.25935  -6.25864  -6.25857  -6.25075  -6.25074
 Alpha  occ. eigenvalues --   -0.84119  -0.73224  -0.41774  -0.37946  -0.36492
 Alpha  occ. eigenvalues --   -0.30985
 Alpha virt. eigenvalues --   -0.18700  -0.08320   0.03157   0.04293   0.04818
 Alpha virt. eigenvalues --    0.05500   0.07261   0.07557   0.08106   0.14533
 Alpha virt. eigenvalues --    0.31891   0.32858   0.33239   0.33981   0.36001

  Beta  occ. eigenvalues --  -89.98092 -89.98092  -8.33864  -8.33860  -6.25936
  Beta  occ. eigenvalues --   -6.25935  -6.25864  -6.25857  -6.25075  -6.25074
  Beta  occ. eigenvalues --   -0.84119  -0.73224  -0.41774  -0.37946  -0.36492
  Beta  occ. eigenvalues --   -0.30985
  Beta virt. eigenvalues --   -0.18700  -0.08320   0.03157   0.04293   0.04818
  Beta virt. eigenvalues --    0.05500   0.07261   0.07557   0.08106   0.14533
  Beta virt. eigenvalues --    0.31891   0.32858   0.33239   0.33981   0.36001

 Mulliken charges and spin densities:
               1          2
     1  S    0.000000   0.000000
     2  S    0.000000   0.000000
 Sum of Mulliken charges =   0.00000   0.00000

 Dipole moment (field-independent basis, Debye):
    X=              0.0000    Y=             -0.0000    Z=             -0.0000  Tot=              0.0000
 Quadrupole moment (field-independent basis, Debye-Ang):
   XX=            -24.7097   YY=            -29.6629   ZZ=            -23.9946
   XY=              0.0000   XZ=              0.0000   YZ=              0.0000

 Summary of Natural Population Analysis:

                                       Natural Population
                Natural  -----------------------------------------------
    Atom  No    Charge         Core      Valence    Rydberg      Total
 -----------------------------------------------------------------------
      S    1    0.00000      4.99996     2.99326    0.00678     8.00000
      S    2    0.00000      4.99996     2.99326    0.00678     8.00000
 =======================================================================
   * Total *    0.00000      9.99992     5.98652    0.01356    16.00000

 Normal termination of Gaussian 16 at Mon Apr 21 20:08:44 2025.
