 Gaussian 16, Revision A.03,
 Gaussian 16:  ES64L-G16RevA.03 25-Dec-2016

 --------------------------------------------
 #p opt UM062X/6-311+G** nosymm int=superfine
 --------------------------------------------

 -------------------
 Title Card Required
 -------------------
 Symbolic Z-matrix:
 Charge =  0 Multiplicity = 1

 SCF Done:  E(UM062X) =  -380.929108416     A.U. after   18 cycles
 SCF Done:  E(UM062X) =  -380.931928447     A.U. after   16 cycles
 SCF Done:  E(UM062X) =  -380.932888992     A.U. after   10 cycles
 SCF Done:  E(UM062X) =  -380.932930730     A.U. after    9 cycles
 SCF Done:  E(UM062X) =  -380.933185774     A.U. after   17 cycles
 SCF Done:  E(UM062X) =  -380.933214660     A.U. after   17 cycles
 SCF Done:  E(UM062X) =  -380.933220561     A.U. after   27 cycles
 SCF Done:  E(UM062X) =  -380.933221213     A.U. after   13 cycles
 SCF Done:  E(UM062X) =  -380.933221474     A.U. after   15 cycles
 SCF Done:  E(UM062X) =  -380.933223472     A.U. after   14 cycles
 SCF Done:  E(UM062X) =  -380.933226169     A.U. after   19 cycles
 SCF Done:  E(UM062X) =  -380.933226926     A.U. after   15 cycles
 SCF Done:  E(UM062X) =  -380.933226969     A.U. after   11 cycles
 Optimization completed on the basis of negligible forces.
    -- Stationary point found.

                          Input orientation:
 ---------------------------------------------------------------------
 Center     Atomic      Atomic             Coordinates (Angstroms)
 Number     Number       Type             X           Y           Z
 ---------------------------------------------------------------------
      1          6           0       -2.055452    0.000000    0.000000
      2         15           0        2.055452    0.000000    0.000000
      3          1           0       -2.781531   -0.835609   -0.002859
      4          1           0        1.785537   -1.395316    0.005699
      5          1           0       -2.707154    0.894720    0.002178
 ---------------------------------------------------------------------

 Alpha  occ. eigenvalues --  -78.04486 -10.62338  -6.86744  -4.98755  -4.97984
 Alpha  occ. eigenvalues --   -4.97524  -0.76958  -0.65568  -0.49085  -0.38250
 Alpha  occ. eigenvalues --   -0.32926  -0.24383
 Alpha virt. eigenvalues --   -0.11258  -0.09470   0.01413   0.03776   0.04638
 Alpha virt. eigenvalues --    0.06074   0.06932   0.07374   0.08781   0.10566
 Alpha virt. eigenvalues --    0.13516   0.17313   0.18797   0.31273   0.33297

  Beta  occ. eigenvalues --  -78.04486 -10.62338  -6.86744  -4.98755  -4.97984
  Beta  occ. eigenvalues --   -4.97524  -0.76958  -0.65568  -0.49085  -0.38250
  Beta  occ. eigenvalues --   -0.32926  -0.24383
  Beta virt. eigenvalues --   -0.11258  -0.09470   0.01413   0.03776   0.04638
  Beta virt. eigenvalues --    0.06074   0.06932   0.07374   0.08781   0.10566
  Beta virt. eigenvalues --    0.13516   0.17313   0.18797   0.31273   0.33297

 Mulliken charges and spin densities:
               1          2
     1  C   -0.286943   0.000000
     2  P    0.040692  -0.000000
     3  H    0.139666   0.000000
     4  H   -0.032937  -0.000000
     5  H    0.139523  -0.000000
 Sum of Mulliken charges =  -0.00000   0.00000

 Dipole moment (field-independent basis, Debye):
    X=             -2.5664    Y=             -0.5810    Z=              0.0017  Tot=              2.6313
 Quadrupole moment (field-independent basis, Debye-Ang):
   XX=            -12.5264   YY=            -21.3442   ZZ=            -25.2887
   XY=             -2.0829   XZ=              0.0055   YZ=             -0.0199

 Normal termination of Gaussian 16 at Mon Apr 21 19:17:50 2025.
