 Gaussian 16, Revision A.03,
 Gaussian 16:  ES64L-G16RevA.03 25-Dec-2016

 --------------------------------------------
 #p opt UM062X/6-311+G** nosymm int=superfine
 --------------------------------------------

 -------------------
 Title Card Required
 -------------------
 Symbolic Z-matrix:
 Charge =  0 Multiplicity = 1

 SCF Done:  E(UM062X) =  -76.8539343563     A.U. after   15 cycles
 SCF Done:  E(UM062X) =  -76.8542393170     A.U. after   15 cycles
 SCF Done:  E(UM062X) =  -76.8550584337     A.U. after   16 cycles
 SCF Done:  E(UM062X) =  -76.8556610026     A.U. after   20 cycles
 SCF Done:  E(UM062X) =  -76.8557188663     A.U. after   15 cycles
 SCF Done:  E(UM062X) =  -76.8557376337     A.U. after   22 cycles
 SCF Done:  E(UM062X) =  -76.8557380779     A.U. after   14 cycles
 SCF Done:  E(UM062X) =  -76.8557381978     A.U. after   10 cycles
 Optimization completed.
    -- Stationary point found.

                          Input orientation:
 ---------------------------------------------------------------------
 Center     Atomic      Atomic             Coordinates (Angstroms)
 Number     Number       Type             X           Y           Z
 ---------------------------------------------------------------------
      1          6           0       -2.132625    0.000000    0.000000
      2          6           0        2.132625    0.000000    0.000000
      3          1           0       -1.933428   -0.649712    0.888868
      4          1           0        1.933497    0.650216   -0.888515
 ---------------------------------------------------------------------

 Alpha  occ. eigenvalues --  -10.67607 -10.67606  -0.73004  -0.72763  -0.39177
 Alpha  occ. eigenvalues --   -0.39085  -0.22720
 Alpha virt. eigenvalues --   -0.14076  -0.10296  -0.09855   0.03065   0.04379
 Alpha virt. eigenvalues --    0.07193   0.07232   0.09099   0.09504   0.10450
 Alpha virt. eigenvalues --    0.13683   0.17962   0.19008   0.45338   0.46047

  Beta  occ. eigenvalues --  -10.67607 -10.67606  -0.73004  -0.72763  -0.39177
  Beta  occ. eigenvalues --   -0.39085  -0.22720
  Beta virt. eigenvalues --   -0.14076  -0.10296  -0.09855   0.03065   0.04379
  Beta virt. eigenvalues --    0.07193   0.07232   0.09099   0.09504   0.10450
  Beta virt. eigenvalues --    0.13683   0.17962   0.19008   0.45338   0.46047

 Mulliken charges and spin densities:
               1          2
     1  C   -0.139654  -0.000002
     2  C   -0.139661   0.000002
     3  H    0.139658   0.000000
     4  H    0.139657  -0.000000
 Sum of Mulliken charges =  -0.00000   0.00000

 Dipole moment (field-independent basis, Debye):
    X=              0.0001    Y=              0.0008    Z=              0.0005  Tot=              0.0009
 Quadrupole moment (field-independent basis, Debye-Ang):
   XX=            -17.5844   YY=            -13.0342   ZZ=            -13.8674
   XY=              4.0599   XZ=             -5.5517   YZ=              1.3106

 Normal termination of Gaussian 16 at Wed Dec  4 00:28:13 2024.
