 Gaussian 16, Revision A.03,
 Gaussian 16:  ES64L-G16RevA.03 25-Dec-2016

 --------------------------------------------
 #p opt UM062X/6-311+G** nosymm int=superfine
 --------------------------------------------

 -------------------
 Title Card Required
 -------------------
 Symbolic Z-matrix:
 Charge =  0 Multiplicity = 1

 SCF Done:  E(UM062X) =  -379.872460810     A.U. after   11 cycles
 SCF Done:  E(UM062X) =  -379.872551750     A.U. after    9 cycles
 Optimization completed.
    -- Stationary point found.

                          Input orientation:
 ---------------------------------------------------------------------
 Center     Atomic      Atomic             Coordinates (Angstroms)
 Number     Number       Type             X           Y           Z
 ---------------------------------------------------------------------
      1          6           0       -0.965377    0.000000    0.000000
      2         15           0        0.965377    0.000000    0.000000
      3          1           0       -2.050892   -0.000000    0.000000
 ---------------------------------------------------------------------

 Alpha  occ. eigenvalues --  -78.08498 -10.64607  -6.90122  -5.01495  -5.01491
 Alpha  occ. eigenvalues --   -5.01491  -0.75917  -0.63165  -0.42714  -0.30183
 Alpha  occ. eigenvalues --   -0.30183
 Alpha virt. eigenvalues --   -0.07255  -0.07255   0.00732   0.01892   0.05110
 Alpha virt. eigenvalues --    0.05110   0.06829   0.07149   0.10598   0.10598
 Alpha virt. eigenvalues --    0.16245   0.22285   0.32470   0.32789   0.32789

  Beta  occ. eigenvalues --  -78.08498 -10.64607  -6.90122  -5.01495  -5.01491
  Beta  occ. eigenvalues --   -5.01491  -0.75917  -0.63165  -0.42714  -0.30183
  Beta  occ. eigenvalues --   -0.30183
  Beta virt. eigenvalues --   -0.07255  -0.07255   0.00732   0.01892   0.05110
  Beta virt. eigenvalues --    0.05110   0.06829   0.07149   0.10598   0.10598
  Beta virt. eigenvalues --    0.16245   0.22285   0.32470   0.32789   0.32789

 Mulliken charges and spin densities:
               1          2
     1  C   -0.322912  -0.000000
     2  P    0.107384  -0.000000
     3  H    0.215528   0.000000
 Sum of Mulliken charges =  -0.00000  -0.00000

 Dipole moment (field-independent basis, Debye):
    X=             -0.3271    Y=             -0.0000    Z=              0.0000  Tot=              0.3271
 Quadrupole moment (field-independent basis, Debye-Ang):
   XX=            -14.4677   YY=            -21.6513   ZZ=            -21.6513
   XY=              0.0000   XZ=             -0.0000   YZ=              0.0000

 Normal termination of Gaussian 16 at Mon Apr 21 19:29:25 2025.
