 Gaussian 16, Revision A.03,
 Gaussian 16:  ES64L-G16RevA.03 25-Dec-2016

 --------------------------------------------
 #p opt UM062X/6-311+G** nosymm int=superfine
 --------------------------------------------

 -------------------
 Title Card Required
 -------------------
 Symbolic Z-matrix:
 Charge =  0 Multiplicity = 1

 SCF Done:  E(UM062X) =  -683.614576759     A.U. after   11 cycles
 SCF Done:  E(UM062X) =  -683.615127238     A.U. after   10 cycles
 SCF Done:  E(UM062X) =  -683.615678566     A.U. after   10 cycles
 SCF Done:  E(UM062X) =  -683.615682640     A.U. after   10 cycles
 Optimization completed.
    -- Stationary point found.

                          Input orientation:
 ---------------------------------------------------------------------
 Center     Atomic      Atomic             Coordinates (Angstroms)
 Number     Number       Type             X           Y           Z
 ---------------------------------------------------------------------
      1         15           0       -1.959490    0.000000    0.000000
      2         15           0        1.959490    0.000000    0.000000
      3          1           0       -1.845493   -1.418857    0.000000
      4          1           0        1.845493    1.418857    0.000000
 ---------------------------------------------------------------------

 Alpha  occ. eigenvalues --  -78.08526 -78.08526  -6.90531  -6.90531  -5.01943
 Alpha  occ. eigenvalues --   -5.01942  -5.01928  -5.01928  -5.01742  -5.01742
 Alpha  occ. eigenvalues --   -0.68809  -0.67904  -0.40597  -0.40375  -0.26504
 Alpha  occ. eigenvalues --   -0.24446
 Alpha virt. eigenvalues --   -0.16590  -0.14407   0.01972   0.03051   0.03720
 Alpha virt. eigenvalues --    0.04574   0.05519   0.05871   0.06478   0.07784
 Alpha virt. eigenvalues --    0.08595   0.11766   0.28006   0.30211   0.30618

  Beta  occ. eigenvalues --  -78.08526 -78.08526  -6.90531  -6.90531  -5.01943
  Beta  occ. eigenvalues --   -5.01942  -5.01928  -5.01928  -5.01742  -5.01742
  Beta  occ. eigenvalues --   -0.68809  -0.67904  -0.40597  -0.40375  -0.26504
  Beta  occ. eigenvalues --   -0.24446
  Beta virt. eigenvalues --   -0.16590  -0.14407   0.01972   0.03051   0.03720
  Beta virt. eigenvalues --    0.04574   0.05519   0.05871   0.06478   0.07784
  Beta virt. eigenvalues --    0.08595   0.11766   0.28006   0.30211   0.30618

 Mulliken charges and spin densities:
               1          2
     1  P    0.007825   0.000000
     2  P    0.007825  -0.000000
     3  H   -0.007825  -0.000000
     4  H   -0.007825   0.000000
 Sum of Mulliken charges =  -0.00000   0.00000

 Dipole moment (field-independent basis, Debye):
    X=              0.0000    Y=              0.0000    Z=              0.0000  Tot=              0.0000
 Quadrupole moment (field-independent basis, Debye-Ang):
   XX=            -26.7177   YY=            -28.4688   ZZ=            -30.8517
   XY=              3.1433   XZ=             -0.0000   YZ=             -0.0000

 Normal termination of Gaussian 16 at Mon Apr 21 21:12:37 2025.
