 Gaussian 16, Revision A.03,
 Gaussian 16:  ES64L-G16RevA.03 25-Dec-2016

 --------------------------------------------
 #p opt UM062X/6-311+G** nosymm int=superfine
 --------------------------------------------

 -------------------
 Title Card Required
 -------------------
 Symbolic Z-matrix:
 Charge =  0 Multiplicity = 3

 SCF Done:  E(UM062X) =  -25.2349006256     A.U. after   11 cycles
 SCF Done:  E(UM062X) =  -25.2350787638     A.U. after    9 cycles
 SCF Done:  E(UM062X) =  -25.2350791838     A.U. after    8 cycles
 Optimization completed.
    -- Stationary point found.

                          Input orientation:
 ---------------------------------------------------------------------
 Center     Atomic      Atomic             Coordinates (Angstroms)
 Number     Number       Type             X           Y           Z
 ---------------------------------------------------------------------
      1          5           0        0.743422   -0.000001    0.000000
      2          1           0        1.935941    0.000081    0.000000
 ---------------------------------------------------------------------

 Alpha  occ. eigenvalues --   -7.11736  -0.56893  -0.35103  -0.23045
 Alpha virt. eigenvalues --   -0.06170   0.03521   0.04887   0.05466   0.05994
 Alpha virt. eigenvalues --    0.17319   0.35551   0.39913   0.41859   0.43125
 Alpha virt. eigenvalues --    0.56176   0.79023   0.79449   0.83747   0.84073

  Beta  occ. eigenvalues --   -7.10095  -0.50844
  Beta virt. eigenvalues --   -0.15909  -0.05635  -0.04258   0.03583   0.10337
  Beta virt. eigenvalues --    0.10378   0.13079   0.13744   0.25992   0.35222
  Beta virt. eigenvalues --    0.36092   0.36683   0.56541   0.74737   0.75279

 Mulliken charges and spin densities:
               1          2
     1  B   -0.067724   1.893499
     2  H    0.067724   0.106501
 Sum of Mulliken charges =  -0.00000   2.00000

 Dipole moment (field-independent basis, Debye):
    X=              0.2922    Y=              0.0000    Z=             -0.0000  Tot=              0.2922
 Quadrupole moment (field-independent basis, Debye-Ang):
   XX=             -6.9031   YY=             -9.5870   ZZ=             -6.2466
   XY=              0.0002   XZ=             -0.0000   YZ=              0.0001

 1\1\GINC-NODE02\FOpt\UM062X\6-311+G(d,p)\B1H1(3)\SZHAO\16-Apr-2025\0\\
 #p opt UM062X/6-311+G** nosymm int=superfine\\Title Card Required\\0,3
 \B,0.7434223278,-0.0000006838,0.\H,1.9359409022,0.0000809538,0.\\Versi
 on=ES64L-G16RevA.03\HF=-25.2350792\S2=2.001087\S2-1=0.\S2A=2.\RMSD=1.5
 93e-09\RMSF=1.206e-07\Dipole=0.1149568,0.0000079,0.\Quadrupole=0.50247
 67,-1.4929906,0.9905139,0.0001253,0.,0.0000697\PG=C*V [C*(H1B1)]\\@

 Normal termination of Gaussian 16 at Wed Apr 16 06:59:53 2025.
