 Gaussian 16, Revision A.03,
 Gaussian 16:  ES64L-G16RevA.03 25-Dec-2016

 --------------------------------------------
 #p opt UM062X/6-311+G** nosymm int=superfine
 --------------------------------------------

 -------------------
 Title Card Required
 -------------------
 Symbolic Z-matrix:
 Charge =  0 Multiplicity = 1

 SCF Done:  E(UM062X) =  -79.6338647300     A.U. after   10 cycles
 SCF Done:  E(UM062X) =  -79.6349560533     A.U. after    9 cycles
 SCF Done:  E(UM062X) =  -79.6352218646     A.U. after    8 cycles
 Optimization completed.
    -- Stationary point found.

                          Input orientation:
 ---------------------------------------------------------------------
 Center     Atomic      Atomic             Coordinates (Angstroms)
 Number     Number       Type             X           Y           Z
 ---------------------------------------------------------------------
      1          6           0       -1.446675    0.000000    0.000000
      2          6           0        1.446800    0.000000    0.000000
      3          1           0        1.590592   -0.926893    0.536337
      4          1           0       -1.590457   -0.927938   -0.534527
      5          1           0        1.590585    0.927938    0.534527
      6          1           0        1.590562   -0.001045   -1.070887
      7          1           0       -1.590466    0.926893   -0.536337
      8          1           0       -1.590440    0.001044    1.070886
 ---------------------------------------------------------------------

 Alpha  occ. eigenvalues --  -10.56549 -10.56547  -0.76979  -0.75421  -0.48576
 Alpha  occ. eigenvalues --   -0.48576  -0.47720  -0.47720  -0.25147
 Alpha virt. eigenvalues --   -0.06224   0.02807   0.05403   0.05403   0.05912
 Alpha virt. eigenvalues --    0.07944   0.07944   0.10781   0.12587   0.18300
 Alpha virt. eigenvalues --    0.18300   0.21522   0.21522   0.24226   0.25417

  Beta  occ. eigenvalues --  -10.56549 -10.56547  -0.76979  -0.75421  -0.48576
  Beta  occ. eigenvalues --   -0.48576  -0.47720  -0.47720  -0.25147
  Beta virt. eigenvalues --   -0.06224   0.02807   0.05403   0.05403   0.05912
  Beta virt. eigenvalues --    0.07944   0.07944   0.10781   0.12587   0.18300
  Beta virt. eigenvalues --    0.18300   0.21522   0.21522   0.24226   0.25417

 Mulliken charges and spin densities:
               1          2
     1  C   -0.520888   0.000000
     2  C   -0.520888  -0.000000
     3  H    0.173629   0.000000
     4  H    0.173629   0.000000
     5  H    0.173629   0.000000
     6  H    0.173630   0.000000
     7  H    0.173629  -0.000000
     8  H    0.173630  -0.000000
 Sum of Mulliken charges =  -0.00000   0.00000

 Dipole moment (field-independent basis, Debye):
    X=              0.0000    Y=             -0.0000    Z=             -0.0000  Tot=              0.0000
 Quadrupole moment (field-independent basis, Debye-Ang):
   XX=            -15.4449   YY=            -14.7962   ZZ=            -14.7963
   XY=             -0.0000   XZ=              0.0000   YZ=             -0.0000

 Normal termination of Gaussian 16 at Tue Dec  3 09:59:51 2024.
