 Gaussian 16, Revision A.03,
 Gaussian 16:  ES64L-G16RevA.03 25-Dec-2016

 --------------------------------------------
 #p opt UM062X/6-311+G** nosymm int=superfine
 --------------------------------------------

 -------------------
 Title Card Required
 -------------------
 Symbolic Z-matrix:
 Charge =  0 Multiplicity = 1

 SCF Done:  E(UM062X) =  -51.7883615378     A.U. after   10 cycles
 SCF Done:  E(UM062X) =  -51.7937806233     A.U. after    9 cycles
 SCF Done:  E(UM062X) =  -51.7970411159     A.U. after   11 cycles
 SCF Done:  E(UM062X) =  -51.7970443018     A.U. after    9 cycles
 SCF Done:  E(UM062X) =  -51.7970426527     A.U. after   10 cycles
 SCF Done:  E(UM062X) =  -51.7970432659     A.U. after    9 cycles
 SCF Done:  E(UM062X) =  -51.7970441952     A.U. after   10 cycles
 SCF Done:  E(UM062X) =  -51.7970443257     A.U. after    8 cycles
 Optimization completed.
    -- Stationary point found.

                          Input orientation:
 ---------------------------------------------------------------------
 Center     Atomic      Atomic             Coordinates (Angstroms)
 Number     Number       Type             X           Y           Z
 ---------------------------------------------------------------------
      1          5           0       -2.095607    0.000000    0.000000
      2          5           0        2.095607    0.000000    0.000000
      3          1           0       -2.552679   -1.087253   -0.000053
      4          1           0        2.552679    1.087237   -0.005898
      5          1           0       -2.552681    1.087252    0.000059
      6          1           0        2.552681   -1.087236    0.005899
 ---------------------------------------------------------------------

 Alpha  occ. eigenvalues --   -7.11559  -7.11558  -0.57977  -0.57727  -0.45298
 Alpha  occ. eigenvalues --   -0.45235  -0.19705
 Alpha virt. eigenvalues --   -0.07805  -0.05165  -0.04206   0.02257   0.03144
 Alpha virt. eigenvalues --    0.03847   0.05387   0.06184   0.07185   0.08395
 Alpha virt. eigenvalues --    0.09993   0.15259   0.15846   0.17156   0.23763

  Beta  occ. eigenvalues --   -7.11559  -7.11558  -0.57977  -0.57727  -0.45298
  Beta  occ. eigenvalues --   -0.45235  -0.19705
  Beta virt. eigenvalues --   -0.07805  -0.05165  -0.04206   0.02257   0.03144
  Beta virt. eigenvalues --    0.03847   0.05387   0.06184   0.07185   0.08395
  Beta virt. eigenvalues --    0.09993   0.15259   0.15846   0.17156   0.23763

 Mulliken charges and spin densities:
               1          2
     1  B   -0.061055   0.000002
     2  B   -0.061055  -0.000002
     3  H    0.030527   0.000000
     4  H    0.030527  -0.000000
     5  H    0.030527   0.000000
     6  H    0.030527  -0.000000
 Sum of Mulliken charges =  -0.00000   0.00000

 Dipole moment (field-independent basis, Debye):
    X=              0.0000    Y=              0.0000    Z=              0.0000  Tot=              0.0000
 Quadrupole moment (field-independent basis, Debye-Ang):
   XX=            -10.6401   YY=            -16.9653   ZZ=            -14.6069
   XY=             -0.0000   XZ=              0.0000   YZ=              0.0063

 Normal termination of Gaussian 16 at Mon Apr 21 17:18:35 2025.
