 Gaussian 16, Revision A.03,
 Gaussian 16:  ES64L-G16RevA.03 25-Dec-2016

 --------------------------------------------
 #p opt UM062X/6-311+G** nosymm int=superfine
 --------------------------------------------

 -------------------
 Title Card Required
 -------------------
 Symbolic Z-matrix:
 Charge =  0 Multiplicity = 1

 SCF Done:  E(UM062X) =  -474.351540994     A.U. after   26 cycles
 SCF Done:  E(UM062X) =  -474.351867086     A.U. after   21 cycles
 SCF Done:  E(UM062X) =  -474.352577534     A.U. after   26 cycles
 SCF Done:  E(UM062X) =  -474.353164067     A.U. after   35 cycles
 SCF Done:  E(UM062X) =  -474.353385513     A.U. after   21 cycles
 SCF Done:  E(UM062X) =  -474.353542485     A.U. after   25 cycles
 SCF Done:  E(UM062X) =  -474.353545857     A.U. after   18 cycles
 SCF Done:  E(UM062X) =  -474.353548216     A.U. after   33 cycles
 SCF Done:  E(UM062X) =  -474.353548561     A.U. after   19 cycles
 SCF Done:  E(UM062X) =  -474.353548727     A.U. after   22 cycles
 Optimization completed.
    -- Stationary point found.

                          Input orientation:
 ---------------------------------------------------------------------
 Center     Atomic      Atomic             Coordinates (Angstroms)
 Number     Number       Type             X           Y           Z
 ---------------------------------------------------------------------
      1          8           0       -2.014392    0.000000    0.000000
      2         16           0        2.014392    0.000000    0.000000
      3          1           0       -1.975389   -0.706146   -0.664037
      4          1           0        1.735600    0.795125    1.051347
 ---------------------------------------------------------------------

 Alpha  occ. eigenvalues --  -89.97741 -19.67058  -8.33945  -6.26146  -6.25795
 Alpha  occ. eigenvalues --   -6.25224  -1.08360  -0.83976  -0.52438  -0.49842
 Alpha  occ. eigenvalues --   -0.39667  -0.35891  -0.32725
 Alpha virt. eigenvalues --   -0.23922   0.01503   0.03888   0.04631   0.05273
 Alpha virt. eigenvalues --    0.06554   0.12546   0.19130   0.19696   0.21136
 Alpha virt. eigenvalues --    0.24061   0.30787   0.33945   0.35016   0.38845

  Beta  occ. eigenvalues --  -89.97741 -19.67058  -8.33945  -6.26146  -6.25795
  Beta  occ. eigenvalues --   -6.25224  -1.08360  -0.83976  -0.52438  -0.49842
  Beta  occ. eigenvalues --   -0.39667  -0.35891  -0.32725
  Beta virt. eigenvalues --   -0.23922   0.01503   0.03888   0.04631   0.05273
  Beta virt. eigenvalues --    0.06554   0.12546   0.19130   0.19696   0.21136
  Beta virt. eigenvalues --    0.24061   0.30787   0.33945   0.35016   0.38845

 Mulliken charges and spin densities:
               1          2
     1  O   -0.382334  -0.000000
     2  S    0.031668   0.000000
     3  H    0.245977   0.000000
     4  H    0.104688  -0.000000
 Sum of Mulliken charges =   0.00000  -0.00000

 Dipole moment (field-independent basis, Debye):
    X=              2.4863    Y=             -0.5762    Z=             -0.2663  Tot=              2.5661
 Quadrupole moment (field-independent basis, Debye-Ang):
   XX=            -18.8843   YY=            -19.9470   ZZ=            -18.9813
   XY=              3.9981   XZ=              4.2895   YZ=              3.2140

 Normal termination of Gaussian 16 at Thu May 15 13:45:01 2025.
