 Gaussian 16, Revision A.03,
 Gaussian 16:  ES64L-G16RevA.03 25-Dec-2016

 --------------------------------------------
 #p opt UM062X/6-311+G** nosymm int=superfine
 --------------------------------------------

 -------------------
 Title Card Required
 -------------------
 Symbolic Z-matrix:
 Charge =  0 Multiplicity = 3

 SCF Done:  E(UM062X) =  -50.7532300207     A.U. after   10 cycles

 Alpha  occ. eigenvalues --   -7.06862  -7.06755  -0.61715  -0.52472  -0.44527
 Alpha  occ. eigenvalues --   -0.27479  -0.27479
 Alpha virt. eigenvalues --    0.01865   0.01865   0.02503   0.02638   0.05395
 Alpha virt. eigenvalues --    0.05395   0.07087   0.08998   0.08998   0.11697
 Alpha virt. eigenvalues --    0.15512   0.22764   0.32451   0.34934   0.38792

  Beta  occ. eigenvalues --   -7.06614  -7.06483  -0.55544  -0.50661  -0.43632
  Beta virt. eigenvalues --   -0.07805  -0.07805   0.01049   0.03023   0.03646
  Beta virt. eigenvalues --    0.03646   0.05222   0.08532   0.08532   0.10168
  Beta virt. eigenvalues --    0.13851   0.13851   0.18098   0.24056   0.33981

 Mulliken charges and spin densities:
               1          2
     1  B   -0.047817   1.036110
     2  B   -0.047817   1.036110
     3  H    0.047817  -0.036110
     4  H    0.047817  -0.036110
 Sum of Mulliken charges =  -0.00000   2.00000

 Dipole moment (field-independent basis, Debye):
    X=              0.0000    Y=              0.0000    Z=             -0.0000  Tot=              0.0000
 Quadrupole moment (field-independent basis, Debye-Ang):
   XX=            -12.3585   YY=            -14.3231   ZZ=            -14.3231
   XY=              0.0000   XZ=              0.0000   YZ=             -0.0000

 Optimization completed.
    -- Stationary point found.

                          Input orientation:
 ---------------------------------------------------------------------
 Center     Atomic      Atomic             Coordinates (Angstroms)
 Number     Number       Type             X           Y           Z
 ---------------------------------------------------------------------
      1          5           0       -0.778410    0.000000    0.000000
      2          5           0        0.778410    0.000000    0.000000
      3          1           0       -1.950953   -0.000080    0.000000
      4          1           0        1.950953    0.000080    0.000000
 ---------------------------------------------------------------------

 1\1\GINC-NODE06\FOpt\UM062X\6-311+G(d,p)\B2H2(3)\SZHAO\21-Apr-2025\0\\
 #p opt UM062X/6-311+G** nosymm int=superfine\\Title Card Required\\0,3
 \B,-0.77841047,0.,0.\B,0.77841047,0.,0.\H,-1.95095276,-0.00008027,0.\H
 ,1.95095276,0.00008027,0.\\Version=ES64L-G16RevA.03\HF=-50.75323\S2=2.
 005881\S2-1=0.\S2A=2.000013\RMSD=2.740e-09\RMSF=3.726e-05\Dipole=0.,0.
 ,0.\Quadrupole=0.9737176,-0.4868588,-0.4868588,0.0000141,0.,0.\PG=C*V
 [C*(H1B1B1H1)]\\@

 Normal termination of Gaussian 16 at Mon Apr 21 17:26:57 2025.
