 Gaussian 16, Revision A.03,
 Gaussian 16:  ES64L-G16RevA.03 25-Dec-2016

 --------------------------------------------
 #p opt UM062X/6-311+G** nosymm int=superfine
 --------------------------------------------

 -------------------
 Title Card Required
 -------------------
 Symbolic Z-matrix:
 Charge =  0 Multiplicity = 1

 SCF Done:  E(UM062X) =  -81.7481040423     A.U. after   17 cycles
 SCF Done:  E(UM062X) =  -81.7552395723     A.U. after   13 cycles
 SCF Done:  E(UM062X) =  -81.7597901165     A.U. after   14 cycles
 SCF Done:  E(UM062X) =  -81.7714365182     A.U. after   15 cycles
 SCF Done:  E(UM062X) =  -81.7815787106     A.U. after   14 cycles
 SCF Done:  E(UM062X) =  -81.7837003175     A.U. after   13 cycles
 SCF Done:  E(UM062X) =  -81.7775411475     A.U. after   15 cycles
 SCF Done:  E(UM062X) =  -81.7861202451     A.U. after   14 cycles
 SCF Done:  E(UM062X) =  -81.7861511618     A.U. after   11 cycles
 SCF Done:  E(UM062X) =  -81.7861517271     A.U. after    9 cycles
 Optimization completed.
    -- Stationary point found.

                          Input orientation:
 ---------------------------------------------------------------------
 Center     Atomic      Atomic             Coordinates (Angstroms)
 Number     Number       Type             X           Y           Z
 ---------------------------------------------------------------------
      1          5           0       -1.470399    0.000000    0.000000
      2          7           0        1.470399    0.000000    0.000000
      3          1           0       -1.848069   -1.109839   -0.026707
      4          1           0        1.518772    0.805081    0.631474
      5          1           0       -1.848068    1.109833   -0.026956
      6          1           0        1.518772   -0.804947    0.631646
 ---------------------------------------------------------------------

 Alpha  occ. eigenvalues --  -14.72092  -7.17207  -0.87731  -0.61891  -0.50193
 Alpha  occ. eigenvalues --   -0.48443  -0.33727  -0.26252
 Alpha virt. eigenvalues --   -0.07918  -0.06705   0.01081   0.03018   0.04193
 Alpha virt. eigenvalues --    0.05258   0.10416   0.12588   0.13737   0.17310
 Alpha virt. eigenvalues --    0.20512   0.20972   0.21427   0.29818   0.32763

  Beta  occ. eigenvalues --  -14.72092  -7.17207  -0.87731  -0.61891  -0.50193
  Beta  occ. eigenvalues --   -0.48443  -0.33727  -0.26252
  Beta virt. eigenvalues --   -0.07918  -0.06705   0.01081   0.03018   0.04193
  Beta virt. eigenvalues --    0.05258   0.10416   0.12588   0.13737   0.17310
  Beta virt. eigenvalues --    0.20512   0.20972   0.21427   0.29818   0.32763

 Mulliken charges and spin densities:
               1          2
     1  B    0.182559   0.000001
     2  N   -0.725245  -0.000001
     3  H    0.055888  -0.000000
     4  H    0.215455   0.000000
     5  H    0.055888  -0.000000
     6  H    0.215455   0.000000
 Sum of Mulliken charges =  -0.00000   0.00000

 Dipole moment (field-independent basis, Debye):
    X=             -4.1032    Y=              0.0002    Z=              1.7782  Tot=              4.4720
 Quadrupole moment (field-independent basis, Debye-Ang):
   XX=            -14.4490   YY=            -13.4078   ZZ=            -14.4767
   XY=              0.0003   XZ=              3.0733   YZ=             -0.0001

 Normal termination of Gaussian 16 at Mon Apr 21 17:46:00 2025.
