 Gaussian 16, Revision A.03,
 Gaussian 16:  ES64L-G16RevA.03 25-Dec-2016

 --------------------------------------------
 #p opt UM062X/6-311+G** nosymm int=superfine
 --------------------------------------------

 -------------------
 Title Card Required
 -------------------
 Symbolic Z-matrix:
 Charge =  0 Multiplicity = 1

 SCF Done:  E(UM062X) =  -438.557979210     A.U. after   11 cycles
 SCF Done:  E(UM062X) =  -438.568461832     A.U. after   11 cycles
 SCF Done:  E(UM062X) =  -438.571684512     A.U. after   11 cycles
 SCF Done:  E(UM062X) =  -438.571707528     A.U. after    9 cycles
 SCF Done:  E(UM062X) =  -438.571718459     A.U. after    9 cycles
 SCF Done:  E(UM062X) =  -438.571721157     A.U. after    8 cycles
 SCF Done:  E(UM062X) =  -438.571721314     A.U. after    7 cycles
 Optimization completed.
    -- Stationary point found.

                          Input orientation:
 ---------------------------------------------------------------------
 Center     Atomic      Atomic             Coordinates (Angstroms)
 Number     Number       Type             X           Y           Z
 ---------------------------------------------------------------------
      1          6           0       -1.435220    0.000000    0.000000
      2         16           0        1.435220    0.000000    0.000000
      3          1           0        1.408265   -1.343825   -0.000778
      4          1           0       -1.532441    1.076441    0.002713
      5          1           0       -1.559375   -0.529772   -0.933913
      6          1           0       -1.559452   -0.534451    0.931236
 ---------------------------------------------------------------------

 Alpha  occ. eigenvalues --  -89.88950 -10.62778  -8.25180  -6.17245  -6.17148
 Alpha  occ. eigenvalues --   -6.16616  -0.81575  -0.76397  -0.53097  -0.52998
 Alpha  occ. eigenvalues --   -0.43102  -0.31065  -0.29009
 Alpha virt. eigenvalues --   -0.10502   0.01758   0.04241   0.05023   0.05562
 Alpha virt. eigenvalues --    0.07610   0.07885   0.08511   0.11189   0.13543
 Alpha virt. eigenvalues --    0.16933   0.17619   0.22804   0.32980   0.36291

  Beta  occ. eigenvalues --  -89.88950 -10.62778  -8.25180  -6.17245  -6.17148
  Beta  occ. eigenvalues --   -6.16616  -0.81575  -0.76397  -0.53097  -0.52998
  Beta  occ. eigenvalues --   -0.43102  -0.31065  -0.29009
  Beta virt. eigenvalues --   -0.10502   0.01758   0.04241   0.05023   0.05562
  Beta virt. eigenvalues --    0.07610   0.07885   0.08511   0.11189   0.13543
  Beta virt. eigenvalues --    0.16933   0.17619   0.22804   0.32980   0.36291

 Mulliken charges and spin densities:
               1          2
     1  C   -0.458892   0.000000
     2  S   -0.218430  -0.000000
     3  H    0.058140   0.000000
     4  H    0.207077  -0.000000
     5  H    0.206077  -0.000000
     6  H    0.206028  -0.000000
 Sum of Mulliken charges =  -0.00000   0.00000

 Dipole moment (field-independent basis, Debye):
    X=             -3.2197    Y=             -0.9375    Z=             -0.0006  Tot=              3.3534
 Quadrupole moment (field-independent basis, Debye-Ang):
   XX=            -20.8195   YY=            -19.4232   ZZ=            -23.4497
   XY=             -1.5675   XZ=             -0.0009   YZ=              0.0023

 Normal termination of Gaussian 16 at Mon Apr 21 19:36:20 2025.
