 Gaussian 16, Revision A.03,
 Gaussian 16:  ES64L-G16RevA.03 25-Dec-2016

 --------------------------------------------
 #p opt UM062X/6-311+G** nosymm int=superfine
 --------------------------------------------

 -------------------
 Title Card Required
 -------------------
 Symbolic Z-matrix:
 Charge =  1 Multiplicity = 2

 SCF Done:  E(UM062X) =  -77.8806131793     A.U. after   10 cycles
 SCF Done:  E(UM062X) =  -77.9294073659     A.U. after   10 cycles
 SCF Done:  E(UM062X) =  -77.9907895314     A.U. after   11 cycles
 SCF Done:  E(UM062X) =  -78.0063042713     A.U. after    9 cycles
 SCF Done:  E(UM062X) =  -78.0088502783     A.U. after    9 cycles
 SCF Done:  E(UM062X) =  -78.0088611064     A.U. after    8 cycles
 SCF Done:  E(UM062X) =  -78.0088627370     A.U. after    7 cycles
 Optimization completed.
    -- Stationary point found.

                          Input orientation:
 ---------------------------------------------------------------------
 Center     Atomic      Atomic             Coordinates (Angstroms)
 Number     Number       Type             X           Y           Z
 ---------------------------------------------------------------------
      1          6           0       -1.131027    0.000000    0.000000
      2          6           0        1.131027    0.000000    0.000000
      3          1           0       -1.564411   -0.994876   -0.000000
      4          1           0       -1.564300    0.994812   -0.000000
      5          1           0        1.564411    0.994876    0.000000
      6          1           0        1.564300   -0.994812    0.000000
 ---------------------------------------------------------------------

 Alpha  occ. eigenvalues --  -10.92386 -10.92375  -1.04967  -1.00540  -0.80171
 Alpha  occ. eigenvalues --   -0.78196  -0.63443  -0.54234
 Alpha virt. eigenvalues --   -0.37769  -0.29190  -0.13868  -0.10907  -0.10380
 Alpha virt. eigenvalues --   -0.08119  -0.07540  -0.06988  -0.04736  -0.03812
 Alpha virt. eigenvalues --   -0.03480   0.00180   0.01875   0.09236   0.17974

  Beta  occ. eigenvalues --  -10.92141 -10.92135  -1.02035  -0.98224  -0.79710
  Beta  occ. eigenvalues --   -0.77835  -0.61768
  Beta virt. eigenvalues --   -0.34077  -0.28608  -0.26965  -0.15058  -0.11169
  Beta virt. eigenvalues --   -0.10534  -0.07494  -0.07381  -0.07250  -0.03987
  Beta virt. eigenvalues --   -0.03805  -0.02967   0.00695   0.00902   0.10112

 Mulliken charges and spin densities:
               1          2
     1  C   -0.068034   0.541764
     2  C   -0.068034   0.541763
     3  H    0.284026  -0.020882
     4  H    0.284007  -0.020881
     5  H    0.284026  -0.020882
     6  H    0.284007  -0.020881
 Sum of Mulliken charges =   1.00000   1.00000

 Dipole moment (field-independent basis, Debye):
    X=              0.0000    Y=              0.0000    Z=             -0.0000  Tot=              0.0000
 Quadrupole moment (field-independent basis, Debye-Ang):
   XX=             -0.3388   YY=             -8.0110   ZZ=            -12.7262
   XY=              0.0007   XZ=              0.0000   YZ=             -0.0000

 Normal termination of Gaussian 16 at Tue Nov 19 11:32:51 2024.
