 Gaussian 16, Revision A.03,
 Gaussian 16:  ES64L-G16RevA.03 25-Dec-2016

 --------------------------------------------
 #p opt UM062X/6-311+G** nosymm int=superfine
 --------------------------------------------

 -------------------
 Title Card Required
 -------------------
 Symbolic Z-matrix:
 Charge =  0 Multiplicity = 1

 SCF Done:  E(UM062X) =  -80.7780571324     A.U. after   10 cycles
 SCF Done:  E(UM062X) =  -80.7780598758     A.U. after    8 cycles
 SCF Done:  E(UM062X) =  -80.7780574011     A.U. after    7 cycles
 SCF Done:  E(UM062X) =  -80.7780600603     A.U. after    8 cycles
 Optimization completed.
    -- Stationary point found.

                          Input orientation:
 ---------------------------------------------------------------------
 Center     Atomic      Atomic             Coordinates (Angstroms)
 Number     Number       Type             X           Y           Z
 ---------------------------------------------------------------------
      1          5           0       -0.667066    0.000000    0.000000
      2          7           0        0.667066    0.000000    0.000000
      3          1           0       -1.833216   -0.000156   -0.000007
      4          1           0        1.663225    0.000866    0.000000
 ---------------------------------------------------------------------

 Alpha  occ. eigenvalues --  -14.73669  -7.08211  -0.91160  -0.61513  -0.52349
 Alpha  occ. eigenvalues --   -0.34826  -0.34826
 Alpha virt. eigenvalues --    0.01274   0.02037   0.02037   0.02668   0.07250
 Alpha virt. eigenvalues --    0.07250   0.09988   0.14344   0.18581   0.18581
 Alpha virt. eigenvalues --    0.21447   0.26030   0.36275   0.42463   0.42463

  Beta  occ. eigenvalues --  -14.73669  -7.08211  -0.91160  -0.61513  -0.52349
  Beta  occ. eigenvalues --   -0.34826  -0.34826
  Beta virt. eigenvalues --    0.01274   0.02037   0.02037   0.02668   0.07250
  Beta virt. eigenvalues --    0.07250   0.09988   0.14344   0.18581   0.18581
  Beta virt. eigenvalues --    0.21447   0.26030   0.36275   0.42463   0.42463

 Mulliken charges and spin densities:
               1          2
     1  B    0.222437  -0.000000
     2  N   -0.542813   0.000000
     3  H    0.038529  -0.000000
     4  H    0.281848   0.000000
 Sum of Mulliken charges =   0.00000  -0.00000

 Dipole moment (field-independent basis, Debye):
    X=             -0.5133    Y=              0.0014    Z=              0.0000  Tot=              0.5133
 Quadrupole moment (field-independent basis, Debye-Ang):
   XX=             -7.6424   YY=            -13.6289   ZZ=            -13.6289
   XY=              0.0032   XZ=              0.0000   YZ=             -0.0000

 Normal termination of Gaussian 16 at Mon Apr 21 17:55:48 2025.
