 Gaussian 16, Revision A.03,
 Gaussian 16:  ES64L-G16RevA.03 25-Dec-2016

 --------------------------------------------
 #p opt UM062X/6-311+G** nosymm int=superfine
 --------------------------------------------

 -------------------
 Title Card Required
 -------------------
 Symbolic Z-matrix:
 Charge =  0 Multiplicity = 1

 SCF Done:  E(UM062X) =  -582.412210228     A.U. after   10 cycles
 SCF Done:  E(UM062X) =  -582.414078712     A.U. after    8 cycles
 SCF Done:  E(UM062X) =  -582.414479612     A.U. after    9 cycles
 Optimization completed.
    -- Stationary point found.

                          Input orientation:
 ---------------------------------------------------------------------
 Center     Atomic      Atomic             Coordinates (Angstroms)
 Number     Number       Type             X           Y           Z
 ---------------------------------------------------------------------
      1         14           0       -1.944819    0.000000    0.000000
      2         14           0        1.944819    0.000000    0.000000
      3          1           0        2.365665   -1.414415   -0.000057
      4          1           0       -2.365661   -0.707093    1.224998
      5          1           0        2.365773    0.707265   -1.224859
      6          1           0        2.365668    0.707145    1.224965
      7          1           0       -2.365668    1.414415   -0.000114
      8          1           0       -2.365778   -0.707319   -1.224826
 ---------------------------------------------------------------------

 Alpha  occ. eigenvalues --  -67.01645 -67.01645  -5.56492  -5.56490  -3.87715
 Alpha  occ. eigenvalues --   -3.87714  -3.87507  -3.87507  -3.87507  -3.87507
 Alpha  occ. eigenvalues --   -0.61080  -0.60426  -0.41850  -0.41850  -0.41649
 Alpha  occ. eigenvalues --   -0.41649  -0.23899
 Alpha virt. eigenvalues --   -0.08239   0.02163   0.02912   0.02912   0.03471
 Alpha virt. eigenvalues --    0.05274   0.05274   0.05461   0.07106   0.07264
 Alpha virt. eigenvalues --    0.07264   0.08965   0.08965   0.13369   0.16514

  Beta  occ. eigenvalues --  -67.01645 -67.01645  -5.56492  -5.56490  -3.87715
  Beta  occ. eigenvalues --   -3.87714  -3.87507  -3.87507  -3.87507  -3.87507
  Beta  occ. eigenvalues --   -0.61080  -0.60426  -0.41850  -0.41850  -0.41649
  Beta  occ. eigenvalues --   -0.41649  -0.23899
  Beta virt. eigenvalues --   -0.08239   0.02163   0.02912   0.02912   0.03471
  Beta virt. eigenvalues --    0.05274   0.05274   0.05461   0.07106   0.07264
  Beta virt. eigenvalues --    0.07264   0.08965   0.08965   0.13369   0.16514

 Mulliken charges and spin densities:
               1          2
     1  Si   0.276638   0.000000
     2  Si   0.276638  -0.000000
     3  H   -0.092212  -0.000000
     4  H   -0.092213  -0.000000
     5  H   -0.092213  -0.000000
     6  H   -0.092213  -0.000000
     7  H   -0.092212   0.000000
     8  H   -0.092213  -0.000000
 Sum of Mulliken charges =  -0.00000  -0.00000

 Dipole moment (field-independent basis, Debye):
    X=              0.0000    Y=             -0.0000    Z=              0.0000  Tot=              0.0000
 Quadrupole moment (field-independent basis, Debye-Ang):
   XX=            -29.0219   YY=            -32.0113   ZZ=            -32.0113
   XY=             -0.0001   XZ=              0.0000   YZ=              0.0000

 Normal termination of Gaussian 16 at Mon Apr 21 20:20:32 2025.
