 Gaussian 16, Revision A.03,
 Gaussian 16:  ES64L-G16RevA.03 25-Dec-2016

 --------------------------------------------
 #p opt UM062X/6-311+G** nosymm int=superfine
 --------------------------------------------

 -------------------
 Title Card Required
 -------------------
 Symbolic Z-matrix:
 Charge =  1 Multiplicity = 2

 SCF Done:  E(UM062X) =  -79.3190479773     A.U. after   10 cycles
 SCF Done:  E(UM062X) =  -79.3200323437     A.U. after    9 cycles
 SCF Done:  E(UM062X) =  -79.3200383231     A.U. after    8 cycles
 Optimization completed.
    -- Stationary point found.

                          Input orientation:
 ---------------------------------------------------------------------
 Center     Atomic      Atomic             Coordinates (Angstroms)
 Number     Number       Type             X           Y           Z
 ---------------------------------------------------------------------
      1          6           0       -1.911740    0.000000    0.000000
      2          6           0        1.911740    0.000000    0.000000
      3          1           0        1.941156   -0.937616    0.542669
      4          1           0       -1.939499   -0.938716   -0.540849
      5          1           0        1.940450    0.938809    0.540640
      6          1           0        1.939442   -0.001167   -1.083377
      7          1           0       -1.941207    0.937719   -0.542489
      8          1           0       -1.940342    0.000944    1.083354
 ---------------------------------------------------------------------

 Alpha  occ. eigenvalues --  -10.83779 -10.83777  -1.02334  -1.01923  -0.73356
 Alpha  occ. eigenvalues --   -0.73355  -0.73205  -0.73205  -0.48100
 Alpha virt. eigenvalues --   -0.37447  -0.12899  -0.10186  -0.09572  -0.09571
 Alpha virt. eigenvalues --   -0.06229  -0.06229  -0.04405  -0.03030  -0.00325
 Alpha virt. eigenvalues --   -0.00323   0.01327   0.01329   0.02922   0.08528

  Beta  occ. eigenvalues --  -10.83562 -10.83562  -0.99675  -0.99409  -0.72840
  Beta  occ. eigenvalues --   -0.72840  -0.72670  -0.72669
  Beta virt. eigenvalues --   -0.32696  -0.26605  -0.16332  -0.10992  -0.10991
  Beta virt. eigenvalues --   -0.10203  -0.06239  -0.06238  -0.05097  -0.02086
  Beta virt. eigenvalues --   -0.00613  -0.00609   0.01595   0.01598   0.02745

 Mulliken charges and spin densities:
               1          2
     1  C   -0.254757   0.557534
     2  C   -0.254757   0.557534
     3  H    0.251605  -0.019177
     4  H    0.251565  -0.019180
     5  H    0.251587  -0.019181
     6  H    0.251566  -0.019177
     7  H    0.251606  -0.019177
     8  H    0.251586  -0.019177
 Sum of Mulliken charges =   1.00000   1.00000

 Dipole moment (field-independent basis, Debye):
    X=              0.0000    Y=             -0.0000    Z=             -0.0001  Tot=              0.0001
 Quadrupole moment (field-independent basis, Debye-Ang):
   XX=              6.2752   YY=            -11.1083   ZZ=            -11.1084
   XY=             -0.0018   XZ=              0.0011   YZ=              0.0000

 Normal termination of Gaussian 16 at Wed Nov 13 12:53:27 2024.
