 Gaussian 16, Revision A.03,
 Gaussian 16:  ES64L-G16RevA.03 25-Dec-2016

 --------------------------------------------
 #p opt UM062X/6-311+G** nosymm int=superfine
 --------------------------------------------

 -------------------
 Title Card Required
 -------------------
 Symbolic Z-matrix:
 Charge =  1 Multiplicity = 2

 SCF Done:  E(UM062X) =  -75.6784195436     A.U. after    9 cycles
 SCF Done:  E(UM062X) =  -75.9356240223     A.U. after   11 cycles
 SCF Done:  E(UM062X) =  -76.0823925203     A.U. after   11 cycles
 SCF Done:  E(UM062X) =  -76.0834101560     A.U. after    9 cycles
 SCF Done:  E(UM062X) =  -76.0834346347     A.U. after    8 cycles
 Optimization completed.
    -- Stationary point found.

                          Input orientation:
 ---------------------------------------------------------------------
 Center     Atomic      Atomic             Coordinates (Angstroms)
 Number     Number       Type             X           Y           Z
 ---------------------------------------------------------------------
      1          6           0       -0.403873    0.000000    0.000000
      2          6           0        0.403873    0.000000    0.000000
      3          1           0       -1.469910    0.000000    0.000000
      4          1           0        1.469908   -0.000000    0.000000
 ---------------------------------------------------------------------

 Alpha  occ. eigenvalues --  -10.94988 -10.87689  -1.33730  -0.93577  -0.92041
 Alpha  occ. eigenvalues --   -0.92028  -0.87800
 Alpha virt. eigenvalues --   -0.15014  -0.14363  -0.13276  -0.13129  -0.12273
 Alpha virt. eigenvalues --   -0.11932  -0.11776  -0.01285  -0.00429  -0.00212
 Alpha virt. eigenvalues --    0.02726   0.03610   0.17116   0.22612   0.23575

  Beta  occ. eigenvalues --  -10.94398 -10.87289  -1.26634  -0.92064  -0.90943
  Beta  occ. eigenvalues --   -0.84988
  Beta virt. eigenvalues --   -0.58180  -0.15447  -0.12985  -0.12549  -0.12344
  Beta virt. eigenvalues --   -0.12196  -0.11975  -0.11675  -0.00190   0.00419
  Beta virt. eigenvalues --    0.01518   0.03265   0.04165   0.17408   0.21498

 Mulliken charges and spin densities:
               1          2
     1  C    0.266037   0.524651
     2  C    0.266035   0.524650
     3  H    0.233964  -0.024650
     4  H    0.233963  -0.024650
 Sum of Mulliken charges =   1.00000   1.00000

 Dipole moment (field-independent basis, Debye):
    X=             -0.0000    Y=             -0.0000    Z=              0.0000  Tot=              0.0000
 Quadrupole moment (field-independent basis, Debye-Ang):
   XX=             -2.9796   YY=             -8.7257   ZZ=             -9.0840
   XY=             -0.0000   XZ=             -0.0000   YZ=              0.6383

 Normal termination of Gaussian 16 at Tue Nov 19 12:37:56 2024.
