 Gaussian 16, Revision A.03,
 Gaussian 16:  ES64L-G16RevA.03 25-Dec-2016

 ---------------------------------------------------------------------
 #p opt UM062X/6-311+G** nosymm int=superfine SCF=(Tight,MaxCycle=200)
 ---------------------------------------------------------------------

 -------------------
 Title Card Required
 -------------------
 Symbolic Z-matrix:
 Charge =  1 Multiplicity = 2

 SCF Done:  E(UM062X) =  -1615.37709740     A.U. after   22 cycles
 SCF Done:  E(UM062X) =  -1615.47843628     A.U. after   21 cycles
 SCF Done:  E(UM062X) =  -1615.56116475     A.U. after   20 cycles
 SCF Done:  E(UM062X) =  -1615.56219708     A.U. after   19 cycles
 SCF Done:  E(UM062X) =  -1615.55507646     A.U. after   22 cycles
 SCF Done:  E(UM062X) =  -1615.56329779     A.U. after   21 cycles
 SCF Done:  E(UM062X) =  -1615.56336371     A.U. after   20 cycles
 SCF Done:  E(UM062X) =  -1615.56229836     A.U. after   20 cycles
 SCF Done:  E(UM062X) =  -1615.56309146     A.U. after   21 cycles
 SCF Done:  E(UM062X) =  -1615.56408536     A.U. after   16 cycles
 SCF Done:  E(UM062X) =  -1615.56424776     A.U. after   17 cycles
 SCF Done:  E(UM062X) =  -1615.56425349     A.U. after   17 cycles
 SCF Done:  E(UM062X) =  -1615.56427740     A.U. after   16 cycles
 SCF Done:  E(UM062X) =  -1615.56427825     A.U. after   12 cycles
 SCF Done:  E(UM062X) =  -1615.56427824     A.U. after   13 cycles
 SCF Done:  E(UM062X) =  -1615.56427850     A.U. after   12 cycles
 Optimization completed.
    -- Stationary point found.

                          Input orientation:
 ---------------------------------------------------------------------
 Center     Atomic      Atomic             Coordinates (Angstroms)
 Number     Number       Type             X           Y           Z
 ---------------------------------------------------------------------
      1          6           0       -1.084270   -0.000000    0.000000
      2          6           0        1.084270    0.000000   -0.000000
      3          6           0        0.000053   -2.177710    0.000285
      4          6           0        0.000058   -3.546032    0.000377
      5          6           0       -1.123727   -4.328047    0.320963
      6          6           0       -1.177845   -1.478619    0.305199
      7          6           0        0.652796   -5.725108   -0.187643
      8          1           0        1.254706   -6.605105   -0.364220
      9          6           0       -1.426034    0.881381    1.128527
     10          6           0       -0.652938   -5.725088    0.187693
     11          1           0       -1.254946   -6.605069    0.364018
     12          6           0        1.123733   -4.328082   -0.320530
     13          6           0        1.177891   -1.478648   -0.304966
     14          6           0        1.632618    2.293091   -1.079192
     15          6           0       -1.435766    0.249054   -1.424600
     16          6           0       -1.862772    2.999356    2.283080
     17          1           0       -2.023233    4.069356    2.220395
     18          6           0       -2.277343   -3.648719    0.656636
     19          1           0       -3.190222   -4.171266    0.919415
     20          6           0       -1.554162    1.525836   -2.049874
     21          6           0        2.297810   -2.215831   -0.637364
     22          1           0        3.232747   -1.710414   -0.855589
     23          6           0        1.435752    0.249322    1.424565
     24          6           0        1.553786    1.526222    2.049668
     25          6           0        2.277262   -3.648790   -0.656560
     26          1           0        3.190037   -4.171363   -0.919653
     27          6           0       -1.633013    2.293154    1.078872
     28          6           0       -1.446991    0.284052    2.413254
     29          1           0       -1.266200   -0.775950    2.503744
     30          6           0        1.598980   -0.872432    2.278684
     31          1           0        1.555884   -1.872498    1.877980
     32          6           0       -1.888788    2.379337    3.508966
     33          1           0       -2.068850    2.951665    4.410683
     34          6           0       -2.297849   -2.215763    0.637401
     35          1           0       -3.232838   -1.710317    0.855335
     36          6           0       -1.759457    1.607167   -3.445124
     37          1           0       -1.826418    2.592987   -3.890349
     38          6           0        1.425878    0.881272   -1.128659
     39          6           0       -1.588748    3.126956   -0.089906
     40          1           0       -1.632710    4.189995    0.126432
     41          6           0       -1.902746    0.492573   -4.237384
     42          1           0       -2.075941    0.591015   -5.301899
     43          6           0       -1.520945    2.806591   -1.398297
     44          1           0       -1.516452    3.649712   -2.082388
     45          6           0        1.758832    1.607806    3.444938
     46          1           0        1.825491    2.593707    3.890027
     47          6           0       -1.671881    0.998202    3.569201
     48          1           0       -1.669894    0.484110    4.522743
     49          6           0       -1.598882   -0.872867   -2.278526
     50          1           0       -1.555529   -1.872864   -1.877672
     51          6           0        1.902236    0.493362    4.237390
     52          1           0        2.075209    0.592001    5.301922
     53          6           0        1.862323    2.999159   -2.283491
     54          1           0        2.022606    4.069194   -2.220946
     55          6           0        1.836229   -0.762164    3.633764
     56          1           0        1.968391   -1.662283    4.221651
     57          6           0        1.888502    2.378973   -3.509289
     58          1           0        2.068506    2.951206   -4.411078
     59          6           0        1.588190    3.127053    0.089465
     60          1           0        1.631999    4.190067   -0.127023
     61          6           0       -1.836356   -0.762852   -3.633584
     62          1           0       -1.968409   -1.663086   -4.221319
     63          6           0        1.520363    2.806872    1.397901
     64          1           0        1.515669    3.650096    2.081863
     65          6           0        1.447025    0.283765   -2.413302
     66          1           0        1.266450   -0.776283   -2.503652
     67          6           0        1.671851    0.997791   -3.569337
     68          1           0        1.670007    0.483560   -4.522806
 ---------------------------------------------------------------------

 Alpha  occ. eigenvalues --  -10.71957 -10.71951 -10.68789 -10.68788 -10.68545
 Alpha  occ. eigenvalues --  -10.68545 -10.68501 -10.68501 -10.67876 -10.67875
 Alpha  occ. eigenvalues --  -10.66904 -10.66904 -10.66744 -10.66744 -10.66693
 Alpha  occ. eigenvalues --  -10.66692 -10.66073 -10.66073 -10.65958 -10.65958
 Alpha  occ. eigenvalues --  -10.65934 -10.65934 -10.65925 -10.65925 -10.65676
 Alpha  occ. eigenvalues --  -10.65675 -10.65583 -10.65582 -10.65573 -10.65573
 Alpha  occ. eigenvalues --  -10.65406 -10.65406 -10.65380 -10.65380 -10.65247
 Alpha  occ. eigenvalues --  -10.65247 -10.64979 -10.64979 -10.64726 -10.64095
 Alpha  occ. eigenvalues --  -10.63998 -10.62830  -1.12960  -1.10407  -1.09895
 Alpha  occ. eigenvalues --   -1.08528  -1.07840  -1.06146  -1.04389  -1.02735
 Alpha  occ. eigenvalues --   -1.02274  -1.00694  -1.00294  -0.97929  -0.97730
 Alpha  occ. eigenvalues --   -0.96966  -0.96231  -0.94954  -0.93453  -0.93422
 Alpha  occ. eigenvalues --   -0.92720  -0.91928  -0.87820  -0.87132  -0.84976
 Alpha  occ. eigenvalues --   -0.84745  -0.82870  -0.81611  -0.81224  -0.79929
 Alpha  occ. eigenvalues --   -0.79753  -0.79522  -0.77741  -0.76411  -0.76190
 Alpha  occ. eigenvalues --   -0.75533  -0.75355  -0.73837  -0.70162  -0.69919
 Alpha  occ. eigenvalues --   -0.69082  -0.68327  -0.67761  -0.67578  -0.67046
 Alpha  occ. eigenvalues --   -0.66811  -0.65550  -0.65268  -0.65002  -0.64854
 Alpha  occ. eigenvalues --   -0.63541  -0.63072  -0.62255  -0.62218  -0.61455
 Alpha  occ. eigenvalues --   -0.61265  -0.60710  -0.60292  -0.60196  -0.59979
 Alpha  occ. eigenvalues --   -0.59605  -0.58867  -0.58620  -0.58101  -0.57790
 Alpha  occ. eigenvalues --   -0.57450  -0.56299  -0.55802  -0.55724  -0.55704
 Alpha  occ. eigenvalues --   -0.54920  -0.54464  -0.53650  -0.52878  -0.52751
 Alpha  occ. eigenvalues --   -0.52566  -0.52219  -0.52054  -0.51612  -0.51047
 Alpha  occ. eigenvalues --   -0.50931  -0.50921  -0.50551  -0.49325  -0.48860
 Alpha  occ. eigenvalues --   -0.48774  -0.48486  -0.48116  -0.44348  -0.43892
 Alpha  occ. eigenvalues --   -0.43391  -0.43241  -0.40797  -0.40190  -0.39439
 Alpha  occ. eigenvalues --   -0.37948  -0.37927  -0.37224  -0.34580
 Alpha virt. eigenvalues --   -0.16730  -0.15541  -0.15194  -0.14980  -0.10225
 Alpha virt. eigenvalues --   -0.09970  -0.08738  -0.08658  -0.08326  -0.07686
 Alpha virt. eigenvalues --   -0.07646  -0.07490  -0.06744  -0.06559  -0.06356

  Beta  occ. eigenvalues --  -10.71863 -10.71860 -10.68771 -10.68770 -10.68546
  Beta  occ. eigenvalues --  -10.68546 -10.68460 -10.68460 -10.67847 -10.67847
  Beta  occ. eigenvalues --  -10.66882 -10.66881 -10.66716 -10.66715 -10.66696
  Beta  occ. eigenvalues --  -10.66696 -10.66058 -10.66058 -10.65956 -10.65956
  Beta  occ. eigenvalues --  -10.65935 -10.65935 -10.65908 -10.65908 -10.65664
  Beta  occ. eigenvalues --  -10.65663 -10.65586 -10.65586 -10.65580 -10.65580
  Beta  occ. eigenvalues --  -10.65398 -10.65398 -10.65374 -10.65373 -10.65245
  Beta  occ. eigenvalues --  -10.65245 -10.64975 -10.64975 -10.64715 -10.64094
  Beta  occ. eigenvalues --  -10.63998 -10.62831  -1.12821  -1.10300  -1.09716
  Beta  occ. eigenvalues --   -1.08391  -1.07711  -1.06014  -1.04290  -1.02556
  Beta  occ. eigenvalues --   -1.02110  -1.00563  -1.00146  -0.97806  -0.97620
  Beta  occ. eigenvalues --   -0.96837  -0.96122  -0.94910  -0.93341  -0.93327
  Beta  occ. eigenvalues --   -0.92573  -0.91808  -0.87540  -0.86878  -0.84874
  Beta  occ. eigenvalues --   -0.84651  -0.82801  -0.81491  -0.81146  -0.79818
  Beta  occ. eigenvalues --   -0.79679  -0.79449  -0.77602  -0.76223  -0.76019
  Beta  occ. eigenvalues --   -0.75368  -0.75321  -0.73713  -0.70051  -0.69774
  Beta  occ. eigenvalues --   -0.68979  -0.68237  -0.67655  -0.67491  -0.66917
  Beta  occ. eigenvalues --   -0.66705  -0.65453  -0.65153  -0.64879  -0.64725
  Beta  occ. eigenvalues --   -0.63242  -0.63029  -0.62178  -0.62110  -0.61205
  Beta  occ. eigenvalues --   -0.61085  -0.60558  -0.60165  -0.60135  -0.59910
  Beta  occ. eigenvalues --   -0.59465  -0.58682  -0.58538  -0.57987  -0.57446
  Beta  occ. eigenvalues --   -0.57276  -0.56173  -0.55703  -0.55628  -0.55170
  Beta  occ. eigenvalues --   -0.54903  -0.54010  -0.53371  -0.52771  -0.52654
  Beta  occ. eigenvalues --   -0.52510  -0.52125  -0.51934  -0.51132  -0.50960
  Beta  occ. eigenvalues --   -0.50807  -0.50618  -0.49828  -0.49140  -0.48729
  Beta  occ. eigenvalues --   -0.48719  -0.48381  -0.47630  -0.43760  -0.43199
  Beta  occ. eigenvalues --   -0.42926  -0.42837  -0.40368  -0.40137  -0.38821
  Beta  occ. eigenvalues --   -0.37656  -0.37315  -0.36844
  Beta virt. eigenvalues --   -0.24970  -0.15882  -0.15481  -0.14870  -0.14663
  Beta virt. eigenvalues --   -0.10081  -0.09573  -0.08575  -0.08361  -0.08223
  Beta virt. eigenvalues --   -0.07581  -0.07549  -0.07391  -0.06545  -0.06343

 Mulliken charges and spin densities:
               1          2
     1  C   -0.027781   0.089070
     2  C   -0.027638   0.089099
     3  C    0.136211   0.000914
     4  C    0.118311  -0.004265
     5  C    0.120687   0.007373
     6  C    0.134602   0.000509
     7  C   -0.301544   0.001422
     8  H    0.176095  -0.000075
     9  C    0.193040   0.052224
    10  C   -0.301673   0.001425
    11  H    0.176096  -0.000075
    12  C    0.120895   0.007376
    13  C    0.134915   0.000507
    14  C    0.038041   0.057520
    15  C    0.213766   0.025924
    16  C   -0.115332  -0.007383
    17  H    0.164394   0.000160
    18  C   -0.479079  -0.000716
    19  H    0.174997   0.000500
    20  C    0.217044   0.069889
    21  C   -0.170459   0.014557
    22  H    0.174644  -0.000623
    23  C    0.213863   0.025912
    24  C    0.216695   0.069903
    25  C   -0.478967  -0.000721
    26  H    0.175001   0.000500
    27  C    0.037770   0.057525
    28  C   -0.102193  -0.007973
    29  H    0.199039  -0.000313
    30  C   -0.296335   0.009245
    31  H    0.220436  -0.000048
    32  C   -0.310805   0.038110
    33  H    0.180971  -0.001976
    34  C   -0.170532   0.014552
    35  H    0.174633  -0.000623
    36  C   -0.143435  -0.022551
    37  H    0.162983   0.000613
    38  C    0.193074   0.052236
    39  C   -0.200265   0.082027
    40  H    0.168394  -0.005913
    41  C   -0.247473   0.025522
    42  H    0.178671  -0.001085
    43  C   -0.165813   0.046879
    44  H    0.160779  -0.002907
    45  C   -0.143313  -0.022550
    46  H    0.162976   0.000613
    47  C   -0.148540   0.037435
    48  H    0.172639  -0.003313
    49  C   -0.296445   0.009251
    50  H    0.220409  -0.000048
    51  C   -0.247385   0.025524
    52  H    0.178670  -0.001085
    53  C   -0.115460  -0.007366
    54  H    0.164384   0.000160
    55  C   -0.144143  -0.002223
    56  H    0.174919  -0.000254
    57  C   -0.310758   0.038111
    58  H    0.180969  -0.001976
    59  C   -0.200223   0.082064
    60  H    0.168394  -0.005915
    61  C   -0.144187  -0.002221
    62  H    0.174915  -0.000254
    63  C   -0.165972   0.046881
    64  H    0.160777  -0.002908
    65  C   -0.102460  -0.007988
    66  H    0.199022  -0.000312
    67  C   -0.148548   0.037439
    68  H    0.172640  -0.003312
 Sum of Mulliken charges =   1.00000   1.00000

 Dipole moment (field-independent basis, Debye):
    X=             -0.0008    Y=              2.7881    Z=             -0.0009  Tot=              2.7881
 Quadrupole moment (field-independent basis, Debye-Ang):
   XX=           -222.4076   YY=           -174.4567   ZZ=           -177.0167
   XY=             -0.0032   XZ=             -1.6599   YZ=              0.0045

 Normal termination of Gaussian 16 at Fri Mar 21 08:16:39 2025.
