 Gaussian 16, Revision A.03,
 Gaussian 16:  ES64L-G16RevA.03 25-Dec-2016

 --------------------------------------------
 #p opt UM062X/6-311+G** nosymm int=superfine
 --------------------------------------------

 -------------------
 Title Card Required
 -------------------
 Symbolic Z-matrix:
 Charge =  0 Multiplicity = 1

 SCF Done:  E(UM062X) =  -80.4087415372     A.U. after   16 cycles
 SCF Done:  E(UM062X) =  -80.4121012195     A.U. after    9 cycles
 SCF Done:  E(UM062X) =  -80.4121498746     A.U. after    9 cycles
 Optimization completed.
    -- Stationary point found.

                          Input orientation:
 ---------------------------------------------------------------------
 Center     Atomic      Atomic             Coordinates (Angstroms)
 Number     Number       Type             X           Y           Z
 ---------------------------------------------------------------------
      1          5           0       -1.917066    0.000000    0.000000
      2          7           0        1.917066    0.000000    0.000000
      3          1           0       -3.150289   -0.000549   -0.000000
      4          1           0        2.956520    0.000580    0.000000
 ---------------------------------------------------------------------

 Alpha  occ. eigenvalues --  -14.82527  -7.11991  -0.88995  -0.54200  -0.45510
 Alpha  occ. eigenvalues --   -0.33174  -0.27176
 Alpha virt. eigenvalues --   -0.12053  -0.03952  -0.03904   0.02607   0.03966
 Alpha virt. eigenvalues --    0.06658   0.06765   0.09585   0.13904   0.14934
 Alpha virt. eigenvalues --    0.17208   0.19558   0.25431   0.38787   0.42488

  Beta  occ. eigenvalues --  -14.82527  -7.11991  -0.88995  -0.54200  -0.45510
  Beta  occ. eigenvalues --   -0.33174  -0.27176
  Beta virt. eigenvalues --   -0.12053  -0.03952  -0.03904   0.02607   0.03966
  Beta virt. eigenvalues --    0.06658   0.06765   0.09585   0.13904   0.14934
  Beta virt. eigenvalues --    0.17208   0.19558   0.25431   0.38787   0.42488

 Mulliken charges and spin densities:
               1          2
     1  B   -0.012811  -0.000000
     2  N   -0.192712  -0.000000
     3  H   -0.008376   0.000000
     4  H    0.213899   0.000000
 Sum of Mulliken charges =  -0.00000  -0.00000

 Dipole moment (field-independent basis, Debye):
    X=              0.2058    Y=              0.0001    Z=              0.0000  Tot=              0.2058
 Quadrupole moment (field-independent basis, Debye-Ang):
   XX=             -3.6184   YY=            -11.8655   ZZ=            -15.1473
   XY=              0.0017   XZ=              0.0000   YZ=             -0.0000

 Normal termination of Gaussian 16 at Mon Apr 21 18:08:58 2025.
