 Gaussian 16, Revision A.03,
 Gaussian 16:  ES64L-G16RevA.03 25-Dec-2016

 ---------------------------------------
 #p UM062X/6-311+G** force int=superfine
 ---------------------------------------

 -------------------
 Title Card Required
 -------------------
 Symbolic Z-matrix:
 Charge =  1 Multiplicity = 2

                         Standard orientation:
 ---------------------------------------------------------------------
 Center     Atomic      Atomic             Coordinates (Angstroms)
 Number     Number       Type             X           Y           Z
 ---------------------------------------------------------------------
      1          7           0        0.000000    0.000000    0.905391
      2          7           0        0.000000    0.000000   -0.905391
 ---------------------------------------------------------------------

 SCF Done:  E(UM062X) =  -108.646976819     A.U. after   10 cycles

 Unable to determine electronic state:  an orbital has unidentified symmetry.
 Alpha  occ. eigenvalues --  -15.37883 -15.37856  -1.35322  -1.18441  -0.81722
 Alpha  occ. eigenvalues --   -0.78638  -0.75986
 Alpha virt. eigenvalues --   -0.55721  -0.53022  -0.40705  -0.14001  -0.09345
 Alpha virt. eigenvalues --   -0.09101  -0.08822  -0.04177  -0.03052  -0.02779
 Alpha virt. eigenvalues --    0.06236   0.43308   0.45089   0.49931   0.53355

  Beta  occ. eigenvalues --  -15.37454 -15.37435  -1.31381  -1.15104  -0.79950
  Beta  occ. eigenvalues --   -0.74185
  Beta virt. eigenvalues --   -0.53721  -0.51267  -0.45016  -0.38815  -0.15673
  Beta virt. eigenvalues --   -0.10062  -0.09539  -0.09179  -0.04946  -0.03339
  Beta virt. eigenvalues --   -0.03106   0.04896   0.44896   0.45339   0.49742

 Mulliken charges and spin densities:
               1          2
     1  N    0.500000   0.500000
     2  N    0.500000   0.500000
 Sum of Mulliken charges =   1.00000   1.00000

 Dipole moment (field-independent basis, Debye):
    X=              0.0000    Y=              0.0000    Z=              0.0000  Tot=              0.0000
 Quadrupole moment (field-independent basis, Debye-Ang):
   XX=             -8.3161   YY=             -9.7488   ZZ=             -5.1858
   XY=              0.0000   XZ=             -0.0000   YZ=              0.0000

 Optimization completed.
    -- Stationary point found.
 Normal termination of Gaussian 16 at Wed Feb 26 13:43:45 2025.
