 Gaussian 16, Revision A.03,
 Gaussian 16:  ES64L-G16RevA.03 25-Dec-2016

 --------------------------------------------
 #p opt UM062X/6-311+G** nosymm int=superfine
 --------------------------------------------

 -------------------
 Title Card Required
 -------------------
 Symbolic Z-matrix:
 Charge =  0 Multiplicity = 1

 SCF Done:  E(UM062X) =  -581.172614124     A.U. after   10 cycles
 SCF Done:  E(UM062X) =  -581.173170064     A.U. after    8 cycles
 SCF Done:  E(UM062X) =  -581.173352272     A.U. after    9 cycles
 SCF Done:  E(UM062X) =  -581.173346889     A.U. after    8 cycles
 SCF Done:  E(UM062X) =  -581.173352602     A.U. after    9 cycles
 SCF Done:  E(UM062X) =  -581.173354670     A.U. after    8 cycles
 SCF Done:  E(UM062X) =  -581.178181531     A.U. after   14 cycles
 SCF Done:  E(UM062X) =  -581.190565913     A.U. after   12 cycles
 SCF Done:  E(UM062X) =  -581.214207682     A.U. after   12 cycles
 SCF Done:  E(UM062X) =  -581.216664095     A.U. after   10 cycles
 SCF Done:  E(UM062X) =  -581.216793405     A.U. after   10 cycles
 SCF Done:  E(UM062X) =  -581.216795205     A.U. after    9 cycles
 SCF Done:  E(UM062X) =  -581.216795931     A.U. after    7 cycles
 SCF Done:  E(UM062X) =  -581.216798695     A.U. after    9 cycles
 SCF Done:  E(UM062X) =  -581.216800008     A.U. after    9 cycles
 SCF Done:  E(UM062X) =  -581.216800092     A.U. after    8 cycles
 Optimization completed.
    -- Stationary point found.

                          Input orientation:
 ---------------------------------------------------------------------
 Center     Atomic      Atomic             Coordinates (Angstroms)
 Number     Number       Type             X           Y           Z
 ---------------------------------------------------------------------
      1         14           0       -1.462518    0.000000    0.000000
      2         14           0        1.462518    0.000000    0.000000
      3          1           0       -2.001128   -1.145187    0.804505
      4          1           0        2.001102    1.144799   -0.805066
      5          1           0       -2.001166    1.145177    0.804475
      6          1           0        2.000967   -1.145594   -0.804044
 ---------------------------------------------------------------------

 Alpha  occ. eigenvalues --  -67.02459 -67.02458  -5.57092  -5.57091  -3.88360
 Alpha  occ. eigenvalues --   -3.88357  -3.87909  -3.87908  -3.87817  -3.87816
 Alpha  occ. eigenvalues --   -0.59811  -0.56989  -0.40606  -0.39643  -0.32892
 Alpha  occ. eigenvalues --   -0.25933
 Alpha virt. eigenvalues --   -0.10178  -0.01916   0.02254   0.02875   0.04330
 Alpha virt. eigenvalues --    0.05085   0.05360   0.05396   0.05597   0.06487
 Alpha virt. eigenvalues --    0.08695   0.08937   0.12416   0.15290   0.28098

  Beta  occ. eigenvalues --  -67.02459 -67.02458  -5.57092  -5.57091  -3.88360
  Beta  occ. eigenvalues --   -3.88357  -3.87909  -3.87908  -3.87817  -3.87816
  Beta  occ. eigenvalues --   -0.59811  -0.56989  -0.40606  -0.39643  -0.32892
  Beta  occ. eigenvalues --   -0.25933
  Beta virt. eigenvalues --   -0.10178  -0.01916   0.02254   0.02875   0.04330
  Beta virt. eigenvalues --    0.05085   0.05360   0.05396   0.05597   0.06487
  Beta virt. eigenvalues --    0.08695   0.08937   0.12416   0.15290   0.28098

 Mulliken charges and spin densities:
               1          2
     1  Si   0.219838   0.000007
     2  Si   0.219817  -0.000007
     3  H   -0.109919   0.000000
     4  H   -0.109907  -0.000000
     5  H   -0.109908   0.000000
     6  H   -0.109920  -0.000000
 Sum of Mulliken charges =  -0.00000   0.00000

 Dipole moment (field-independent basis, Debye):
    X=             -0.0002    Y=              0.0001    Z=             -0.0000  Tot=              0.0002
 Quadrupole moment (field-independent basis, Debye-Ang):
   XX=            -25.7333   YY=            -31.3247   ZZ=            -33.1470
   XY=              0.0005   XZ=              2.2397   YZ=             -0.0005

 Normal termination of Gaussian 16 at Mon Apr 21 20:29:33 2025.
