 Gaussian 16, Revision A.03,
 Gaussian 16:  ES64L-G16RevA.03 25-Dec-2016

 --------------------------------------------
 #p opt UM062X/6-311+G** nosymm int=superfine
 --------------------------------------------

 -------------------
 Title Card Required
 -------------------
 Symbolic Z-matrix:
 Charge =  0 Multiplicity = 1

 SCF Done:  E(UM062X) =  -79.3351912001     A.U. after    9 cycles
 SCF Done:  E(UM062X) =  -79.3862852703     A.U. after    8 cycles
 SCF Done:  E(UM062X) =  -79.4228296020     A.U. after    9 cycles
 SCF Done:  E(UM062X) =  -79.4230256623     A.U. after    7 cycles
 SCF Done:  E(UM062X) =  -79.4230287713     A.U. after    7 cycles
 Optimization completed.
    -- Stationary point found.

                          Input orientation:
 ---------------------------------------------------------------------
 Center     Atomic      Atomic             Coordinates (Angstroms)
 Number     Number       Type             X           Y           Z
 ---------------------------------------------------------------------
      1          6           0       -0.503941    0.000000    0.000000
      2          6           0        0.503993    0.000000    0.000000
      3          1           0        1.035637   -0.848592    0.491034
      4          1           0       -1.035572   -0.849587   -0.489361
      5          1           0        1.035624    0.849589    0.489357
      6          1           0        1.035626   -0.000922   -0.980442
      7          1           0       -1.035585    0.848590   -0.491039
      8          1           0       -1.035575    0.000920    0.980440
 ---------------------------------------------------------------------

 Alpha  occ. eigenvalues --  -10.50226 -10.48994  -0.98641  -0.66942  -0.57786
 Alpha  occ. eigenvalues --   -0.57785  -0.54181  -0.32549  -0.32547
 Alpha virt. eigenvalues --    0.01929   0.04123   0.04170   0.04171   0.08552
 Alpha virt. eigenvalues --    0.09043   0.09044   0.14274   0.17365   0.17365
 Alpha virt. eigenvalues --    0.20686   0.20687   0.23796   0.27554   0.40968

  Beta  occ. eigenvalues --  -10.50226 -10.48994  -0.98641  -0.66942  -0.57786
  Beta  occ. eigenvalues --   -0.57785  -0.54181  -0.32549  -0.32547
  Beta virt. eigenvalues --    0.01929   0.04123   0.04170   0.04171   0.08552
  Beta virt. eigenvalues --    0.09043   0.09044   0.14274   0.17365   0.17365
  Beta virt. eigenvalues --    0.20686   0.20687   0.23796   0.27554   0.40968

 Mulliken charges and spin densities:
               1          2
     1  C   -0.409028  -0.000000
     2  C   -0.409028   0.000000
     3  H    0.136344  -0.000000
     4  H    0.136340   0.000000
     5  H    0.136341  -0.000000
     6  H    0.136343  -0.000000
     7  H    0.136344   0.000000
     8  H    0.136343   0.000000
 Sum of Mulliken charges =  -0.00000   0.00000

 Dipole moment (field-independent basis, Debye):
    X=              0.0000    Y=             -0.0000    Z=             -0.0000  Tot=              0.0000
 Quadrupole moment (field-independent basis, Debye-Ang):
   XX=            -15.7025   YY=            -14.9506   ZZ=            -14.9508
   XY=             -0.0000   XZ=             -0.0000   YZ=             -0.0001

 Normal termination of Gaussian 16 at Tue Nov 19 11:37:13 2024.
