 Gaussian 16, Revision A.03,
 Gaussian 16:  ES64L-G16RevA.03 25-Dec-2016

 --------------------------------------------
 #p opt UM062X/6-311+G** nosymm int=superfine
 --------------------------------------------

 -------------------
 Title Card Required
 -------------------
 Symbolic Z-matrix:
 Charge =  0 Multiplicity = 1

 SCF Done:  E(UM062X) =  -579.924472319     A.U. after   12 cycles
 SCF Done:  E(UM062X) =  -579.924488081     A.U. after    7 cycles
 Optimization completed.
    -- Stationary point found.

                          Input orientation:
 ---------------------------------------------------------------------
 Center     Atomic      Atomic             Coordinates (Angstroms)
 Number     Number       Type             X           Y           Z
 ---------------------------------------------------------------------
      1         14           0       -1.203705    0.000000    0.000000
      2         14           0        1.203705    0.000000    0.000000
      3          1           0       -2.667174   -0.000049   -0.000000
      4          1           0        2.667174    0.000016    0.000000
 ---------------------------------------------------------------------

 Alpha  occ. eigenvalues --  -67.05731 -67.05731  -5.60005  -5.60000  -3.91201
 Alpha  occ. eigenvalues --   -3.91201  -3.91195  -3.91195  -3.90997  -3.90959
 Alpha  occ. eigenvalues --   -0.60918  -0.56304  -0.42373  -0.23780  -0.23780
 Alpha virt. eigenvalues --   -0.10824  -0.06444  -0.06444   0.01575   0.02147
 Alpha virt. eigenvalues --    0.03621   0.05204   0.05204   0.06946   0.06946
 Alpha virt. eigenvalues --    0.12044   0.13366   0.25138   0.28624   0.29798

  Beta  occ. eigenvalues --  -67.05731 -67.05731  -5.60005  -5.60000  -3.91201
  Beta  occ. eigenvalues --   -3.91201  -3.91195  -3.91195  -3.90997  -3.90959
  Beta  occ. eigenvalues --   -0.60918  -0.56304  -0.42373  -0.23780  -0.23780
  Beta virt. eigenvalues --   -0.10824  -0.06444  -0.06444   0.01575   0.02147
  Beta virt. eigenvalues --    0.03621   0.05204   0.05204   0.06946   0.06946
  Beta virt. eigenvalues --    0.12044   0.13366   0.25138   0.28624   0.29798

 Mulliken charges and spin densities:
               1          2
     1  Si  -0.054599   0.000000
     2  Si  -0.054599  -0.000000
     3  H    0.054599  -0.000000
     4  H    0.054599  -0.000000
 Sum of Mulliken charges =  -0.00000  -0.00000

 Dipole moment (field-independent basis, Debye):
    X=              0.0000    Y=             -0.0000    Z=              0.0000  Tot=              0.0000
 Quadrupole moment (field-independent basis, Debye-Ang):
   XX=            -19.0105   YY=            -32.3893   ZZ=            -32.3893
   XY=              0.0003   XZ=              0.0000   YZ=              0.0000

 Normal termination of Gaussian 16 at Mon Apr 21 21:22:45 2025.
