 Gaussian 16, Revision A.03,
 Gaussian 16:  ES64L-G16RevA.03 25-Dec-2016

 ---------------------------------------------------
 #p UM062X/6-311+G** force int=superfine pop=saveNBO
 ---------------------------------------------------

 -------------------
 Title Card Required
 -------------------
 Symbolic Z-matrix:
 Charge =  0 Multiplicity = 1

                         Standard orientation:
 ---------------------------------------------------------------------
 Center     Atomic      Atomic             Coordinates (Angstroms)
 Number     Number       Type             X           Y           Z
 ---------------------------------------------------------------------
      1         16           0        0.000000    0.000000    1.725200
      2         16           0        0.000000    0.000000   -1.725200
 ---------------------------------------------------------------------

 SCF Done:  E(UM062X) =  -796.074106044     A.U. after    9 cycles

 Unable to determine electronic state:  partially filled degenerate orbitals.
 Alpha  occ. eigenvalues --  -89.99190 -89.99190  -8.34913  -8.34913  -6.26948
 Alpha  occ. eigenvalues --   -6.26948  -6.26928  -6.26928  -6.26094  -6.26094
 Alpha  occ. eigenvalues --   -0.78740  -0.77150  -0.35268  -0.34593  -0.34186
 Alpha  occ. eigenvalues --   -0.32039
 Alpha virt. eigenvalues --   -0.23041  -0.20437   0.03063   0.03743   0.04849
 Alpha virt. eigenvalues --    0.05341   0.07160   0.07503   0.07620   0.13013
 Alpha virt. eigenvalues --    0.31812   0.32704   0.33196   0.34720   0.36338

  Beta  occ. eigenvalues --  -89.99190 -89.99190  -8.34913  -8.34913  -6.26948
  Beta  occ. eigenvalues --   -6.26948  -6.26928  -6.26928  -6.26094  -6.26094
  Beta  occ. eigenvalues --   -0.78740  -0.77150  -0.35268  -0.34593  -0.34186
  Beta  occ. eigenvalues --   -0.32039
  Beta virt. eigenvalues --   -0.23041  -0.20437   0.03063   0.03743   0.04849
  Beta virt. eigenvalues --    0.05341   0.07160   0.07503   0.07620   0.13013
  Beta virt. eigenvalues --    0.31812   0.32704   0.33196   0.34720   0.36338

 Mulliken charges and spin densities:
               1          2
     1  S    0.000000   0.000000
     2  S    0.000000   0.000000
 Sum of Mulliken charges =   0.00000   0.00000

 Dipole moment (field-independent basis, Debye):
    X=             -0.0000    Y=              0.0000    Z=              0.0000  Tot=              0.0000
 Quadrupole moment (field-independent basis, Debye-Ang):
   XX=            -30.3586   YY=            -25.4161   ZZ=            -22.5002
   XY=              0.0000   XZ=             -0.0000   YZ=              0.0000

 Summary of Natural Population Analysis:

                                       Natural Population
                Natural  -----------------------------------------------
    Atom  No    Charge         Core      Valence    Rydberg      Total
 -----------------------------------------------------------------------
      S    1   -0.00000      5.00000     2.99913    0.00087     8.00000
      S    2   -0.00000      5.00000     2.99913    0.00087     8.00000
 =======================================================================
   * Total *   -0.00000      9.99999     5.99827    0.00174    16.00000

 Normal termination of Gaussian 16 at Mon Apr 21 20:09:09 2025.
