 Gaussian 16, Revision A.03,
 Gaussian 16:  ES64L-G16RevA.03 25-Dec-2016

 --------------------------------------------
 #p opt UM062X/6-311+G** nosymm int=superfine
 --------------------------------------------

 -------------------
 Title Card Required
 -------------------
 Symbolic Z-matrix:
 Charge =  1 Multiplicity = 2

 SCF Done:  E(UM062X) =  -379.514882437     A.U. after   21 cycles
 SCF Done:  E(UM062X) =  -379.514956141     A.U. after   17 cycles
 Optimization completed.
    -- Stationary point found.

                          Input orientation:
 ---------------------------------------------------------------------
 Center     Atomic      Atomic             Coordinates (Angstroms)
 Number     Number       Type             X           Y           Z
 ---------------------------------------------------------------------
      1          6           0       -0.969427    0.000000    0.000000
      2         15           0        0.969427    0.000000    0.000000
      3          1           0       -2.065120   -0.000000    0.000000
 ---------------------------------------------------------------------

 Alpha  occ. eigenvalues --  -78.40236 -10.94577  -7.21371  -5.33362  -5.32722
 Alpha  occ. eigenvalues --   -5.32599  -1.05049  -0.91651  -0.71166  -0.59935
 Alpha  occ. eigenvalues --   -0.57955
 Alpha virt. eigenvalues --   -0.35713  -0.33720  -0.23357  -0.14083  -0.10331
 Alpha virt. eigenvalues --   -0.09900  -0.09566  -0.09146  -0.05273  -0.05093
 Alpha virt. eigenvalues --   -0.00263   0.04705   0.12474   0.13764   0.13818

  Beta  occ. eigenvalues --  -78.39644 -10.94596  -7.21223  -5.32440  -5.32131
  Beta  occ. eigenvalues --   -5.32109  -1.02277  -0.89416  -0.69897  -0.57025
  Beta virt. eigenvalues --   -0.40401  -0.33132  -0.29417  -0.21987  -0.15275
  Beta virt. eigenvalues --   -0.10735  -0.09632  -0.09564  -0.09031  -0.05135
  Beta virt. eigenvalues --   -0.05065  -0.00638   0.04763   0.10935   0.12547

 Mulliken charges and spin densities:
               1          2
     1  C    0.002565   0.219578
     2  P    0.679747   0.789428
     3  H    0.317688  -0.009007
 Sum of Mulliken charges =   1.00000   1.00000

 Dipole moment (field-independent basis, Debye):
    X=              0.2528    Y=             -0.0000    Z=              0.0000  Tot=              0.2528
 Quadrupole moment (field-independent basis, Debye-Ang):
   XX=             -5.4674   YY=            -16.3419   ZZ=            -17.0164
   XY=              0.0000   XZ=             -0.0000   YZ=              1.2618

 Normal termination of Gaussian 16 at Mon Apr 21 19:24:16 2025.
