 Gaussian 16, Revision A.03,
 Gaussian 16:  ES64L-G16RevA.03 25-Dec-2016

 ---------------------------------------
 #p UM062X/6-311+G** force int=superfine
 ---------------------------------------

 -------------------
 Title Card Required
 -------------------
 Symbolic Z-matrix:
 Charge =  0 Multiplicity = 1

                         Standard orientation:
 ---------------------------------------------------------------------
 Center     Atomic      Atomic             Coordinates (Angstroms)
 Number     Number       Type             X           Y           Z
 ---------------------------------------------------------------------
      1          6           0        0.465788    0.000016   -0.000000
      2          6           0       -0.465787   -0.000017   -0.000001
      3          1           0       -1.025537   -0.973373   -0.020966
      4          1           0        1.025567   -0.504848    0.832462
      5          1           0       -1.025568    0.504852   -0.832460
      6          1           0       -1.025576    0.468533    0.853424
      7          1           0        1.025536    0.973373    0.020971
      8          1           0        1.025575   -0.468535   -0.853423
 ---------------------------------------------------------------------

 SCF Done:  E(UM062X) =  -79.2071845071     A.U. after   10 cycles

 The electronic state is 1-A.
 Alpha  occ. eigenvalues --  -10.51355 -10.48974  -1.00248  -0.66494  -0.59839
 Alpha  occ. eigenvalues --   -0.59838  -0.55488  -0.31060  -0.31058
 Alpha virt. eigenvalues --    0.01825   0.03723   0.03723   0.04067   0.08516
 Alpha virt. eigenvalues --    0.09081   0.09081   0.14254   0.16315   0.16315
 Alpha virt. eigenvalues --    0.21180   0.21181   0.23542   0.27255   0.41779

  Beta  occ. eigenvalues --  -10.51355 -10.48974  -1.00248  -0.66494  -0.59839
  Beta  occ. eigenvalues --   -0.59838  -0.55488  -0.31060  -0.31058
  Beta virt. eigenvalues --    0.01825   0.03723   0.03723   0.04067   0.08516
  Beta virt. eigenvalues --    0.09081   0.09081   0.14254   0.16315   0.16315
  Beta virt. eigenvalues --    0.21180   0.21181   0.23542   0.27255   0.41779

 Mulliken charges and spin densities:
               1          2
     1  C   -0.400088  -0.000000
     2  C   -0.400088   0.000000
     3  H    0.133368  -0.000000
     4  H    0.133360   0.000000
     5  H    0.133360  -0.000000
     6  H    0.133360  -0.000000
     7  H    0.133368   0.000000
     8  H    0.133360   0.000000
 Sum of Mulliken charges =  -0.00000   0.00000

 Dipole moment (field-independent basis, Debye):
    X=              0.0000    Y=             -0.0000    Z=              0.0000  Tot=              0.0000
 Quadrupole moment (field-independent basis, Debye-Ang):
   XX=            -15.7587   YY=            -14.9723   ZZ=            -14.9727
   XY=              0.0001   XZ=             -0.0000   YZ=              0.0000

 Normal termination of Gaussian 16 at Tue Nov 19 12:34:14 2024.
