 Gaussian 16, Revision A.03,
 Gaussian 16:  ES64L-G16RevA.03 25-Dec-2016

 ---------------------------------------
 #p UM062X/6-311+G** force int=superfine
 ---------------------------------------

 -------------------
 Title Card Required
 -------------------
 Symbolic Z-matrix:
 Charge =  1 Multiplicity = 2

                         Standard orientation:
 ---------------------------------------------------------------------
 Center     Atomic      Atomic             Coordinates (Angstroms)
 Number     Number       Type             X           Y           Z
 ---------------------------------------------------------------------
      1          6           0        1.169871   -0.000036   -0.000024
      2          6           0       -1.169871    0.000042    0.000012
      3          1           0       -1.264519   -0.968728   -0.478059
      4          1           0        1.263769   -0.898446    0.600037
      5          1           0       -1.264166    0.898522   -0.599882
      6          1           0       -1.263771    0.070402    1.078096
      7          1           0        1.264540    0.968783    0.477944
      8          1           0        1.264148   -0.070567   -1.078064
 ---------------------------------------------------------------------

 SCF Done:  E(UM062X) =  -79.3621287294     A.U. after    9 cycles

 The electronic state is 2-A.
 Alpha  occ. eigenvalues --  -10.85851 -10.85844  -1.07602  -1.02263  -0.77075
 Alpha  occ. eigenvalues --   -0.77074  -0.74189  -0.74189  -0.58913
 Alpha virt. eigenvalues --   -0.29584  -0.15722  -0.10791  -0.10791  -0.09958
 Alpha virt. eigenvalues --   -0.06645  -0.06262  -0.06261  -0.04526  -0.04524
 Alpha virt. eigenvalues --   -0.02564   0.01667   0.01669   0.05083   0.07321

  Beta  occ. eigenvalues --  -10.85645 -10.85645  -1.04298  -0.99647  -0.76257
  Beta  occ. eigenvalues --   -0.76256  -0.73534  -0.73533
  Beta virt. eigenvalues --   -0.36265  -0.21217  -0.15779  -0.11079  -0.11079
  Beta virt. eigenvalues --   -0.09195  -0.06706  -0.06586  -0.06585  -0.04234
  Beta virt. eigenvalues --   -0.04232  -0.01793   0.02170   0.02172   0.05500

 Mulliken charges and spin densities:
               1          2
     1  C   -0.298676   0.567684
     2  C   -0.298676   0.567684
     3  H    0.266240  -0.022568
     4  H    0.266212  -0.022551
     5  H    0.266227  -0.022560
     6  H    0.266209  -0.022556
     7  H    0.266241  -0.022569
     8  H    0.266223  -0.022563
 Sum of Mulliken charges =   1.00000   1.00000

 Dipole moment (field-independent basis, Debye):
    X=             -0.0000    Y=             -0.0000    Z=              0.0000  Tot=              0.0000
 Quadrupole moment (field-independent basis, Debye-Ang):
   XX=             -4.7734   YY=            -10.8804   ZZ=            -10.8806
   XY=              0.0005   XZ=              0.0003   YZ=              0.0000

 Normal termination of Gaussian 16 at Wed Nov 13 13:45:30 2024.
