 Gaussian 16, Revision A.03,
 Gaussian 16:  ES64L-G16RevA.03 25-Dec-2016

 ---------------------------------------------------------------------
 #p opt UM062X/6-311+G** nosymm int=superfine SCF=(Tight,MaxCycle=200)
 ---------------------------------------------------------------------

 -------------------
 Title Card Required
 -------------------
 Symbolic Z-matrix:
 Charge =  1 Multiplicity = 2

 SCF Done:  E(UM062X) =  -1614.49274896     A.U. after   26 cycles
 SCF Done:  E(UM062X) =  -1614.82739258     A.U. after   22 cycles
 SCF Done:  E(UM062X) =  -1615.30448780     A.U. after   44 cycles
 SCF Done:  E(UM062X) =  -1615.50374587     A.U. after   27 cycles
 SCF Done:  E(UM062X) =  -1615.52689405     A.U. after   24 cycles
 SCF Done:  E(UM062X) =  -1615.54009537     A.U. after   23 cycles
 SCF Done:  E(UM062X) =  -1615.51824302     A.U. after   24 cycles
 SCF Done:  E(UM062X) =  -1615.53800381     A.U. after   23 cycles
 SCF Done:  E(UM062X) =  -1615.54750537     A.U. after   20 cycles
 SCF Done:  E(UM062X) =  -1615.55065982     A.U. after   22 cycles
 SCF Done:  E(UM062X) =  -1615.55471671     A.U. after   18 cycles
 SCF Done:  E(UM062X) =  -1615.55472519     A.U. after   18 cycles
 SCF Done:  E(UM062X) =  -1615.55472640     A.U. after   16 cycles
 SCF Done:  E(UM062X) =  -1615.55472734     A.U. after   16 cycles
 SCF Done:  E(UM062X) =  -1615.55472773     A.U. after   15 cycles
 SCF Done:  E(UM062X) =  -1615.55472800     A.U. after   16 cycles
 SCF Done:  E(UM062X) =  -1615.55472814     A.U. after   16 cycles
 SCF Done:  E(UM062X) =  -1615.55472823     A.U. after   15 cycles
 SCF Done:  E(UM062X) =  -1615.55472827     A.U. after   14 cycles
 SCF Done:  E(UM062X) =  -1615.55472829     A.U. after   13 cycles
 Optimization completed.
    -- Stationary point found.

                          Input orientation:
 ---------------------------------------------------------------------
 Center     Atomic      Atomic             Coordinates (Angstroms)
 Number     Number       Type             X           Y           Z
 ---------------------------------------------------------------------
      1          6           0       -0.941634    0.000000    0.000000
      2          6           0        0.941634    0.000000    0.000000
      3          6           0       -0.000060   -2.191915    0.000510
      4          6           0       -0.000090   -3.554028    0.000780
      5          6           0       -1.112999   -4.326969    0.369647
      6          6           0       -1.144402   -1.471387    0.356284
      7          6           0        0.645017   -5.724607   -0.214243
      8          1           0        1.236238   -6.606897   -0.414249
      9          6           0       -1.397449    0.939956    1.081944
     10          6           0       -0.645494   -5.724495    0.216022
     11          1           0       -1.236819   -6.606681    0.416178
     12          6           0        1.112709   -4.327163   -0.368044
     13          6           0        1.144334   -1.471582   -0.355553
     14          6           0        1.604449    2.344708   -0.953669
     15          6           0       -1.395074    0.178346   -1.449677
     16          6           0       -1.861718    3.119239    2.116399
     17          1           0       -2.016396    4.184744    1.990810
     18          6           0       -2.245231   -3.630935    0.750374
     19          1           0       -3.151407   -4.143977    1.052598
     20          6           0       -1.512254    1.421107   -2.133900
     21          6           0        2.259340   -2.194084   -0.730483
     22          1           0        3.183348   -1.687928   -0.989736
     23          6           0        1.394848    0.179043    1.449678
     24          6           0        1.512201    1.422155    2.133271
     25          6           0        2.244949   -3.631334   -0.749077
     26          1           0        3.151049   -4.144528   -1.051269
     27          6           0       -1.603431    2.345404    0.952456
     28          6           0       -1.471913    0.411048    2.380596
     29          1           0       -1.295714   -0.643374    2.532836
     30          6           0        1.614774   -0.969308    2.236749
     31          1           0        1.582722   -1.952799    1.797157
     32          6           0       -1.924538    2.565286    3.370900
     33          1           0       -2.123581    3.181822    4.238466
     34          6           0       -2.259501   -2.193700    0.731369
     35          1           0       -3.183491   -1.687387    0.990378
     36          6           0       -1.749404    1.445274   -3.527252
     37          1           0       -1.807708    2.411498   -4.014946
     38          6           0        1.397555    0.939314   -1.082445
     39          6           0       -1.537720    3.116689   -0.251937
     40          1           0       -1.576067    4.190148   -0.092553
     41          6           0       -1.934954    0.297460   -4.263381
     42          1           0       -2.128582    0.346394   -5.327549
     43          6           0       -1.450751    2.729787   -1.547067
     44          1           0       -1.432510    3.540349   -2.269302
     45          6           0        1.748726    1.446997    3.526714
     46          1           0        1.807108    2.413467    4.013912
     47          6           0       -1.724900    1.188198    3.498966
     48          1           0       -1.757677    0.717895    4.474569
     49          6           0       -1.615478   -0.970394   -2.236072
     50          1           0       -1.583412   -1.953664   -1.795985
     51          6           0        1.933661    0.299523    4.263541
     52          1           0        2.126796    0.348979    5.327773
     53          6           0        1.863004    3.117821   -2.118055
     54          1           0        2.018407    4.183283   -1.992999
     55          6           0        1.885190   -0.919452    3.595961
     56          1           0        2.052094   -1.846399    4.131215
     57          6           0        1.925161    2.563249   -3.372303
     58          1           0        2.124409    3.179250   -4.240202
     59          6           0        1.539416    3.116647    0.250311
     60          1           0        1.578780    4.189986    0.090384
     61          6           0       -1.886385   -0.921192   -3.595195
     62          1           0       -2.053614   -1.848384   -4.129923
     63          6           0        1.451830    2.730518    1.545654
     64          1           0        1.434093    3.541514    2.267415
     65          6           0        1.471398    0.409766   -2.380885
     66          1           0        1.294559   -0.644629   -2.532581
     67          6           0        1.724597    1.186223   -3.499679
     68          1           0        1.756852    0.715440   -4.475068
 ---------------------------------------------------------------------

 Alpha  occ. eigenvalues --  -10.71624 -10.71613 -10.68831 -10.68829 -10.68742
 Alpha  occ. eigenvalues --  -10.68740 -10.68380 -10.68379 -10.67626 -10.67625
 Alpha  occ. eigenvalues --  -10.67556 -10.67555 -10.67297 -10.67297 -10.66663
 Alpha  occ. eigenvalues --  -10.66662 -10.66652 -10.66651 -10.66174 -10.66173
 Alpha  occ. eigenvalues --  -10.66016 -10.66015 -10.65705 -10.65705 -10.65700
 Alpha  occ. eigenvalues --  -10.65699 -10.65579 -10.65578 -10.65353 -10.65353
 Alpha  occ. eigenvalues --  -10.65324 -10.65323 -10.65058 -10.65057 -10.65021
 Alpha  occ. eigenvalues --  -10.65021 -10.64636 -10.64636 -10.63863 -10.63803
 Alpha  occ. eigenvalues --  -10.63768 -10.62311  -1.12995  -1.10374  -1.09769
 Alpha  occ. eigenvalues --   -1.08567  -1.07921  -1.06209  -1.03773  -1.02982
 Alpha  occ. eigenvalues --   -1.02522  -1.00587  -0.99573  -0.97992  -0.97910
 Alpha  occ. eigenvalues --   -0.96931  -0.96224  -0.94669  -0.93441  -0.93423
 Alpha  occ. eigenvalues --   -0.92435  -0.91740  -0.88060  -0.86575  -0.84998
 Alpha  occ. eigenvalues --   -0.84839  -0.82473  -0.81653  -0.80992  -0.80038
 Alpha  occ. eigenvalues --   -0.79715  -0.79508  -0.77887  -0.76304  -0.76060
 Alpha  occ. eigenvalues --   -0.75321  -0.75024  -0.73798  -0.70142  -0.70100
 Alpha  occ. eigenvalues --   -0.68813  -0.68024  -0.67780  -0.67615  -0.67204
 Alpha  occ. eigenvalues --   -0.66891  -0.65431  -0.65015  -0.64962  -0.64620
 Alpha  occ. eigenvalues --   -0.63675  -0.63030  -0.62284  -0.61956  -0.61465
 Alpha  occ. eigenvalues --   -0.61426  -0.60592  -0.60309  -0.60036  -0.59739
 Alpha  occ. eigenvalues --   -0.59601  -0.58795  -0.58266  -0.57852  -0.57700
 Alpha  occ. eigenvalues --   -0.57088  -0.56002  -0.55933  -0.55733  -0.55656
 Alpha  occ. eigenvalues --   -0.55126  -0.54576  -0.54282  -0.52960  -0.52840
 Alpha  occ. eigenvalues --   -0.52517  -0.52018  -0.52003  -0.51621  -0.51166
 Alpha  occ. eigenvalues --   -0.50742  -0.50668  -0.50589  -0.48985  -0.48638
 Alpha  occ. eigenvalues --   -0.48506  -0.48207  -0.47912  -0.44138  -0.43627
 Alpha  occ. eigenvalues --   -0.43579  -0.42836  -0.41124  -0.40212  -0.39727
 Alpha  occ. eigenvalues --   -0.38213  -0.37603  -0.36950  -0.35920
 Alpha virt. eigenvalues --   -0.15852  -0.15319  -0.15048  -0.13225  -0.10286
 Alpha virt. eigenvalues --   -0.09912  -0.08877  -0.08842  -0.08385  -0.07779
 Alpha virt. eigenvalues --   -0.07663  -0.07576  -0.07162  -0.06576  -0.06298

  Beta  occ. eigenvalues --  -10.71587 -10.71577 -10.68792 -10.68790 -10.68712
  Beta  occ. eigenvalues --  -10.68710 -10.68363 -10.68362 -10.67607 -10.67607
  Beta  occ. eigenvalues --  -10.67522 -10.67520 -10.67251 -10.67251 -10.66624
  Beta  occ. eigenvalues --  -10.66623 -10.66600 -10.66599 -10.66169 -10.66169
  Beta  occ. eigenvalues --  -10.66029 -10.66028 -10.65706 -10.65705 -10.65691
  Beta  occ. eigenvalues --  -10.65690 -10.65606 -10.65605 -10.65347 -10.65347
  Beta  occ. eigenvalues --  -10.65308 -10.65307 -10.65062 -10.65061 -10.65030
  Beta  occ. eigenvalues --  -10.65029 -10.64635 -10.64634 -10.63863 -10.63802
  Beta  occ. eigenvalues --  -10.63768 -10.62313  -1.12875  -1.10257  -1.09565
  Beta  occ. eigenvalues --   -1.08430  -1.07780  -1.06095  -1.03704  -1.02731
  Beta  occ. eigenvalues --   -1.02299  -1.00484  -0.99471  -0.97811  -0.97755
  Beta  occ. eigenvalues --   -0.96847  -0.96148  -0.94639  -0.93230  -0.93218
  Beta  occ. eigenvalues --   -0.92304  -0.91611  -0.87864  -0.86435  -0.84843
  Beta  occ. eigenvalues --   -0.84691  -0.82414  -0.81535  -0.80922  -0.79908
  Beta  occ. eigenvalues --   -0.79632  -0.79431  -0.77726  -0.76125  -0.75914
  Beta  occ. eigenvalues --   -0.75185  -0.75006  -0.73694  -0.69993  -0.69989
  Beta  occ. eigenvalues --   -0.68740  -0.67908  -0.67680  -0.67482  -0.67064
  Beta  occ. eigenvalues --   -0.66769  -0.65328  -0.64936  -0.64837  -0.64506
  Beta  occ. eigenvalues --   -0.63349  -0.62978  -0.62208  -0.61853  -0.61273
  Beta  occ. eigenvalues --   -0.61262  -0.60474  -0.60218  -0.59933  -0.59643
  Beta  occ. eigenvalues --   -0.59432  -0.58570  -0.58215  -0.57712  -0.57236
  Beta  occ. eigenvalues --   -0.57028  -0.55857  -0.55802  -0.55654  -0.55011
  Beta  occ. eigenvalues --   -0.54702  -0.54447  -0.53933  -0.52837  -0.52738
  Beta  occ. eigenvalues --   -0.52444  -0.51936  -0.51813  -0.51386  -0.51064
  Beta  occ. eigenvalues --   -0.50580  -0.50492  -0.49536  -0.48907  -0.48429
  Beta  occ. eigenvalues --   -0.48205  -0.48058  -0.47606  -0.43545  -0.43016
  Beta  occ. eigenvalues --   -0.42737  -0.42396  -0.40849  -0.39724  -0.39679
  Beta  occ. eigenvalues --   -0.37417  -0.36977  -0.36284
  Beta virt. eigenvalues --   -0.26400  -0.15590  -0.14936  -0.14750  -0.12924
  Beta virt. eigenvalues --   -0.09865  -0.09790  -0.08791  -0.08420  -0.08174
  Beta virt. eigenvalues --   -0.07597  -0.07553  -0.07448  -0.06723  -0.06573

 Mulliken charges and spin densities:
               1          2
     1  C    0.052628  -0.016428
     2  C    0.051549  -0.016527
     3  C    0.197721   0.001838
     4  C    0.101359  -0.001255
     5  C    0.118640   0.004514
     6  C    0.111943   0.006252
     7  C   -0.294571   0.000544
     8  H    0.174968  -0.000032
     9  C    0.147080   0.081533
    10  C   -0.294209   0.000545
    11  H    0.174968  -0.000033
    12  C    0.118661   0.004517
    13  C    0.112146   0.006261
    14  C    0.051319   0.014750
    15  C    0.126921   0.056814
    16  C   -0.161567   0.068654
    17  H    0.169226  -0.002569
    18  C   -0.497215   0.003560
    19  H    0.173308   0.000252
    20  C    0.295954   0.012569
    21  C   -0.167623   0.009828
    22  H    0.173960  -0.000202
    23  C    0.126707   0.056843
    24  C    0.295263   0.012620
    25  C   -0.497210   0.003563
    26  H    0.173314   0.000252
    27  C    0.052007   0.014666
    28  C   -0.159144  -0.059732
    29  H    0.197953   0.001667
    30  C   -0.361358  -0.012012
    31  H    0.211424   0.000545
    32  C   -0.207117  -0.002116
    33  H    0.178930   0.000182
    34  C   -0.167532   0.009823
    35  H    0.173995  -0.000202
    36  C   -0.214109   0.014665
    37  H    0.164423  -0.000714
    38  C    0.147072   0.081553
    39  C   -0.178127   0.115266
    40  H    0.170075  -0.007930
    41  C   -0.286199   0.002740
    42  H    0.176941   0.000168
    43  C   -0.176344   0.070700
    44  H    0.164255  -0.003669
    45  C   -0.213845   0.014680
    46  H    0.164404  -0.000714
    47  C   -0.169807   0.127878
    48  H    0.177932  -0.006854
    49  C   -0.361983  -0.012004
    50  H    0.211373   0.000544
    51  C   -0.285766   0.002702
    52  H    0.176940   0.000169
    53  C   -0.160278   0.068760
    54  H    0.169223  -0.002572
    55  C    0.008935   0.020354
    56  H    0.175888  -0.001463
    57  C   -0.206723  -0.002105
    58  H    0.178932   0.000181
    59  C   -0.178851   0.115123
    60  H    0.170122  -0.007923
    61  C    0.009790   0.020371
    62  H    0.175886  -0.001463
    63  C   -0.176559   0.070756
    64  H    0.164257  -0.003676
    65  C   -0.158701  -0.059739
    66  H    0.198008   0.001672
    67  C   -0.169499   0.127915
    68  H    0.177939  -0.006856
 Sum of Mulliken charges =   1.00000   1.00000

 Dipole moment (field-independent basis, Debye):
    X=              0.0012    Y=              3.7067    Z=             -0.0016  Tot=              3.7067
 Quadrupole moment (field-independent basis, Debye-Ang):
   XX=           -222.3994   YY=           -173.8013   ZZ=           -177.1374
   XY=              0.0139   XZ=             -2.4164   YZ=              0.0018

 Normal termination of Gaussian 16 at Fri Mar 21 14:02:09 2025.
