 Gaussian 16, Revision A.03,
 Gaussian 16:  ES64L-G16RevA.03 25-Dec-2016

 --------------------------------------------
 #p opt UM062X/6-311+G** nosymm int=superfine
 --------------------------------------------

 -------------------
 Title Card Required
 -------------------
 Symbolic Z-matrix:
 Charge =  1 Multiplicity = 2

 SCF Done:  E(UM062X) =  -76.8365696142     A.U. after   10 cycles
 SCF Done:  E(UM062X) =  -76.8590132166     A.U. after   11 cycles
 SCF Done:  E(UM062X) =  -76.8591965431     A.U. after    8 cycles
 Optimization completed.
    -- Stationary point found.

                          Input orientation:
 ---------------------------------------------------------------------
 Center     Atomic      Atomic             Coordinates (Angstroms)
 Number     Number       Type             X           Y           Z
 ---------------------------------------------------------------------
      1          6           0       -0.552995    0.000000    0.000000
      2          6           0        0.552995    0.000000    0.000000
      3          1           0       -1.630187    0.000000   -0.000000
      4          1           0        1.630187    0.000000   -0.000000
 ---------------------------------------------------------------------

 Alpha  occ. eigenvalues --  -10.91903 -10.91314  -1.28003  -0.96139  -0.90582
 Alpha  occ. eigenvalues --   -0.77366  -0.74297
 Alpha virt. eigenvalues --   -0.23398  -0.21470  -0.14613  -0.14391  -0.11812
 Alpha virt. eigenvalues --   -0.10875  -0.10588  -0.04267  -0.03989  -0.03718
 Alpha virt. eigenvalues --    0.02362   0.04495   0.17667   0.18638   0.27517

  Beta  occ. eigenvalues --  -10.91618 -10.91065  -1.22730  -0.94591  -0.89920
  Beta  occ. eigenvalues --   -0.71697
  Beta virt. eigenvalues --   -0.48934  -0.20059  -0.18059  -0.15637  -0.13833
  Beta virt. eigenvalues --   -0.11825  -0.11102  -0.10732  -0.03427  -0.03391
  Beta virt. eigenvalues --   -0.02563   0.02371   0.04829   0.18387   0.19079

 Mulliken charges and spin densities:
               1          2
     1  C    0.214148   0.519655
     2  C    0.214148   0.519655
     3  H    0.285852  -0.019655
     4  H    0.285852  -0.019655
 Sum of Mulliken charges =   1.00000   1.00000

 Dipole moment (field-independent basis, Debye):
    X=             -0.0000    Y=              0.0000    Z=              0.0000  Tot=              0.0000
 Quadrupole moment (field-independent basis, Debye-Ang):
   XX=             -1.4134   YY=            -10.4840   ZZ=             -9.6214
   XY=             -0.0000   XZ=             -0.0000   YZ=             -0.7192

 Normal termination of Gaussian 16 at Tue Nov 19 12:58:31 2024.
