 Gaussian 16, Revision A.03,
 Gaussian 16:  ES64L-G16RevA.03 25-Dec-2016

 --------------------------------------------
 #p opt UM062X/6-311+G** nosymm int=superfine
 --------------------------------------------

 -------------------
 Title Card Required
 -------------------
 Symbolic Z-matrix:
 Charge =  0 Multiplicity = 1

 SCF Done:  E(UM062X) =  -684.827065574     A.U. after   14 cycles
 SCF Done:  E(UM062X) =  -684.871496920     A.U. after   13 cycles
 SCF Done:  E(UM062X) =  -684.918468804     A.U. after   12 cycles
 SCF Done:  E(UM062X) =  -684.929771789     A.U. after   11 cycles
 SCF Done:  E(UM062X) =  -684.929958791     A.U. after   11 cycles
 SCF Done:  E(UM062X) =  -684.930394512     A.U. after   11 cycles
 SCF Done:  E(UM062X) =  -684.939656155     A.U. after   13 cycles
 SCF Done:  E(UM062X) =  -684.971872752     A.U. after   12 cycles
 SCF Done:  E(UM062X) =  -685.032401176     A.U. after   11 cycles
 SCF Done:  E(UM062X) =  -685.048642379     A.U. after   11 cycles
 SCF Done:  E(UM062X) =  -685.050571785     A.U. after    9 cycles
 SCF Done:  E(UM062X) =  -685.051062034     A.U. after    9 cycles
 SCF Done:  E(UM062X) =  -685.051494028     A.U. after    9 cycles
 SCF Done:  E(UM062X) =  -685.052138455     A.U. after    9 cycles
 SCF Done:  E(UM062X) =  -685.052691122     A.U. after    9 cycles
 SCF Done:  E(UM062X) =  -685.053396975     A.U. after    9 cycles
 SCF Done:  E(UM062X) =  -685.056279132     A.U. after   10 cycles
 SCF Done:  E(UM062X) =  -685.057129544     A.U. after    9 cycles
 SCF Done:  E(UM062X) =  -685.057228842     A.U. after    9 cycles
 SCF Done:  E(UM062X) =  -685.057247101     A.U. after    8 cycles
 Optimization completed.
    -- Stationary point found.

                          Input orientation:
 ---------------------------------------------------------------------
 Center     Atomic      Atomic             Coordinates (Angstroms)
 Number     Number       Type             X           Y           Z
 ---------------------------------------------------------------------
      1         15           0        1.081143   -0.281767    0.489172
      2         15           0       -1.081148    0.281428    0.489369
      3          1           0       -1.548721   -1.050168    0.400465
      4          1           0        1.548731    1.049885    0.401204
      5          1           0       -1.261795    0.540721   -0.890202
      6          1           0        1.261789   -0.540099   -0.890580
 ---------------------------------------------------------------------

 Alpha  occ. eigenvalues --  -78.02631 -78.02631  -6.85324  -6.85318  -4.96898
 Alpha  occ. eigenvalues --   -4.96874  -4.96848  -4.96848  -4.96625  -4.96621
 Alpha  occ. eigenvalues --   -0.77064  -0.66769  -0.46419  -0.46143  -0.40735
 Alpha  occ. eigenvalues --   -0.32946  -0.31080
 Alpha virt. eigenvalues --    0.00267   0.00761   0.03472   0.03761   0.04003
 Alpha virt. eigenvalues --    0.04881   0.05327   0.06603   0.06608   0.08340
 Alpha virt. eigenvalues --    0.10657   0.14787   0.19177   0.27430   0.29455

  Beta  occ. eigenvalues --  -78.02631 -78.02631  -6.85324  -6.85318  -4.96898
  Beta  occ. eigenvalues --   -4.96874  -4.96848  -4.96848  -4.96625  -4.96621
  Beta  occ. eigenvalues --   -0.77064  -0.66769  -0.46419  -0.46143  -0.40735
  Beta  occ. eigenvalues --   -0.32946  -0.31080
  Beta virt. eigenvalues --    0.00267   0.00761   0.03472   0.03761   0.04003
  Beta virt. eigenvalues --    0.04881   0.05327   0.06603   0.06608   0.08340
  Beta virt. eigenvalues --    0.10657   0.14787   0.19177   0.27430   0.29455

 Mulliken charges and spin densities:
               1          2
     1  P   -0.051018   0.000000
     2  P   -0.051017  -0.000000
     3  H    0.025201   0.000000
     4  H    0.025202   0.000000
     5  H    0.025816   0.000000
     6  H    0.025816   0.000000
 Sum of Mulliken charges =  -0.00000   0.00000

 Dipole moment (field-independent basis, Debye):
    X=              0.0000    Y=              0.0005    Z=             -1.3728  Tot=              1.3728
 Quadrupole moment (field-independent basis, Debye-Ang):
   XX=            -29.9941   YY=            -29.8153   ZZ=            -30.9802
   XY=              2.4864   XZ=              0.0009   YZ=              0.0004

 Normal termination of Gaussian 16 at Wed Apr 16 05:54:17 2025.
