 Gaussian 16, Revision A.03,
 Gaussian 16:  ES64L-G16RevA.03 25-Dec-2016

 --------------------------------------------
 #p opt UM062X/6-311+G** nosymm int=superfine
 --------------------------------------------

 -------------------
 Title Card Required
 -------------------
 Symbolic Z-matrix:
 Charge =  0 Multiplicity = 1

 SCF Done:  E(UM062X) =  -579.892012530     A.U. after   10 cycles
 SCF Done:  E(UM062X) =  -579.895089542     A.U. after    9 cycles
 SCF Done:  E(UM062X) =  -579.895097127     A.U. after    8 cycles
 Optimization completed.
    -- Stationary point found.

                          Input orientation:
 ---------------------------------------------------------------------
 Center     Atomic      Atomic             Coordinates (Angstroms)
 Number     Number       Type             X           Y           Z
 ---------------------------------------------------------------------
      1         14           0       -1.853705    0.000000    0.000000
      2         14           0        1.853705    0.000000    0.000000
      3          1           0       -3.382357   -0.000021   -0.000000
      4          1           0        3.382357    0.000047    0.000000
 ---------------------------------------------------------------------

 Alpha  occ. eigenvalues --  -67.04459 -67.04458  -5.58875  -5.58874  -3.89973
 Alpha  occ. eigenvalues --   -3.89973  -3.89526  -3.89525  -3.89393  -3.89392
 Alpha  occ. eigenvalues --   -0.55083  -0.54394  -0.34716  -0.30262  -0.18632
 Alpha virt. eigenvalues --   -0.09873  -0.09641  -0.07789   0.02301   0.02956
 Alpha virt. eigenvalues --    0.04554   0.05510   0.05749   0.06016   0.07092
 Alpha virt. eigenvalues --    0.07910   0.09299   0.18800   0.29213   0.29523

  Beta  occ. eigenvalues --  -67.04459 -67.04458  -5.58875  -5.58874  -3.89973
  Beta  occ. eigenvalues --   -3.89973  -3.89526  -3.89525  -3.89393  -3.89392
  Beta  occ. eigenvalues --   -0.55083  -0.54394  -0.34716  -0.30262  -0.18632
  Beta virt. eigenvalues --   -0.09873  -0.09641  -0.07789   0.02301   0.02956
  Beta virt. eigenvalues --    0.04554   0.05510   0.05749   0.06016   0.07092
  Beta virt. eigenvalues --    0.07910   0.09299   0.18800   0.29213   0.29523

 Mulliken charges and spin densities:
               1          2
     1  Si   0.144130   0.000000
     2  Si   0.144130  -0.000000
     3  H   -0.144130  -0.000000
     4  H   -0.144130   0.000000
 Sum of Mulliken charges =  -0.00000  -0.00000

 Dipole moment (field-independent basis, Debye):
    X=             -0.0000    Y=              0.0000    Z=             -0.0000  Tot=              0.0000
 Quadrupole moment (field-independent basis, Debye-Ang):
   XX=            -31.1304   YY=            -24.2428   ZZ=            -35.5953
   XY=             -0.0002   XZ=             -0.0000   YZ=              0.0006

 Normal termination of Gaussian 16 at Mon Apr 21 21:24:53 2025.
