 Gaussian 16, Revision A.03,
 Gaussian 16:  ES64L-G16RevA.03 25-Dec-2016

 --------------------------------------------
 #p opt UM062X/6-311+G** nosymm int=superfine
 --------------------------------------------

 -------------------
 Title Card Required
 -------------------
 Symbolic Z-matrix:
 Charge =  0 Multiplicity = 1

 SCF Done:  E(UM062X) =  -582.513316306     A.U. after    9 cycles
 SCF Done:  E(UM062X) =  -582.513467305     A.U. after    7 cycles
 SCF Done:  E(UM062X) =  -582.513481826     A.U. after    7 cycles
 Optimization completed.
    -- Stationary point found.

                          Input orientation:
 ---------------------------------------------------------------------
 Center     Atomic      Atomic             Coordinates (Angstroms)
 Number     Number       Type             X           Y           Z
 ---------------------------------------------------------------------
      1         14           0       -1.319819    0.000000    0.000000
      2         14           0        1.319819    0.000000    0.000000
      3          1           0        1.809826   -1.395946   -0.000033
      4          1           0       -1.809872   -0.697826    1.208998
      5          1           0        1.809952    0.697960   -1.208888
      6          1           0        1.809875    0.697877    1.208968
      7          1           0       -1.809828    1.395946   -0.000094
      8          1           0       -1.809953   -0.698012   -1.208857
 ---------------------------------------------------------------------

 Alpha  occ. eigenvalues --  -66.99802 -66.99802  -5.54790  -5.54789  -3.85944
 Alpha  occ. eigenvalues --   -3.85928  -3.85889  -3.85889  -3.85887  -3.85887
 Alpha  occ. eigenvalues --   -0.62706  -0.58495  -0.41740  -0.41739  -0.40120
 Alpha  occ. eigenvalues --   -0.40119  -0.31787
 Alpha virt. eigenvalues --    0.00206   0.01938   0.03126   0.03126   0.04438
 Alpha virt. eigenvalues --    0.05670   0.05670   0.05853   0.05853   0.06112
 Alpha virt. eigenvalues --    0.09044   0.09045   0.09148   0.15689   0.17904

  Beta  occ. eigenvalues --  -66.99802 -66.99802  -5.54790  -5.54789  -3.85944
  Beta  occ. eigenvalues --   -3.85928  -3.85889  -3.85889  -3.85887  -3.85887
  Beta  occ. eigenvalues --   -0.62706  -0.58495  -0.41740  -0.41739  -0.40120
  Beta  occ. eigenvalues --   -0.40119  -0.31787
  Beta virt. eigenvalues --    0.00206   0.01938   0.03126   0.03126   0.04438
  Beta virt. eigenvalues --    0.05670   0.05670   0.05853   0.05853   0.06112
  Beta virt. eigenvalues --    0.09044   0.09045   0.09148   0.15689   0.17904

 Mulliken charges and spin densities:
               1          2
     1  Si   0.299570   0.000000
     2  Si   0.299570  -0.000000
     3  H   -0.099859   0.000000
     4  H   -0.099856  -0.000000
     5  H   -0.099855   0.000000
     6  H   -0.099856   0.000000
     7  H   -0.099859  -0.000000
     8  H   -0.099855  -0.000000
 Sum of Mulliken charges =  -0.00000   0.00000

 Dipole moment (field-independent basis, Debye):
    X=              0.0000    Y=              0.0000    Z=             -0.0000  Tot=              0.0000
 Quadrupole moment (field-independent basis, Debye-Ang):
   XX=            -31.8596   YY=            -31.4731   ZZ=            -31.4730
   XY=              0.0004   XZ=             -0.0000   YZ=             -0.0000

 Normal termination of Gaussian 16 at Mon Apr 21 20:18:28 2025.
