 Gaussian 16, Revision A.03,
 Gaussian 16:  ES64L-G16RevA.03 25-Dec-2016

 --------------------------------------------
 #p opt UM062X/6-311+G** nosymm int=superfine
 --------------------------------------------

 -------------------
 Title Card Required
 -------------------
 Symbolic Z-matrix:
 Charge =  0 Multiplicity = 1

 SCF Done:  E(UM062X) =  -437.369363698     A.U. after   12 cycles
 SCF Done:  E(UM062X) =  -437.370429461     A.U. after   10 cycles
 SCF Done:  E(UM062X) =  -437.370700029     A.U. after   11 cycles
 SCF Done:  E(UM062X) =  -437.369318575     A.U. after   11 cycles
 SCF Done:  E(UM062X) =  -437.370714417     A.U. after    8 cycles
 Optimization completed.
    -- Stationary point found.

                          Input orientation:
 ---------------------------------------------------------------------
 Center     Atomic      Atomic             Coordinates (Angstroms)
 Number     Number       Type             X           Y           Z
 ---------------------------------------------------------------------
      1          6           0       -1.002140    0.000000    0.000000
      2         16           0        1.002140    0.000000    0.000000
      3          1           0       -1.506353   -0.957799    0.000672
      4          1           0       -1.507173    0.957366   -0.001527
 ---------------------------------------------------------------------

 Alpha  occ. eigenvalues --  -89.92048 -10.66165  -8.27921  -6.19985  -6.19909
 Alpha  occ. eigenvalues --   -6.19288  -0.83015  -0.71293  -0.55323  -0.42065
 Alpha  occ. eigenvalues --   -0.32999  -0.30045
 Alpha virt. eigenvalues --   -0.10997  -0.00069   0.03410   0.05035   0.06159
 Alpha virt. eigenvalues --    0.07493   0.08279   0.08565   0.09744   0.14777
 Alpha virt. eigenvalues --    0.16651   0.20780   0.34826   0.36565   0.36739

  Beta  occ. eigenvalues --  -89.92048 -10.66165  -8.27921  -6.19985  -6.19909
  Beta  occ. eigenvalues --   -6.19288  -0.83015  -0.71293  -0.55323  -0.42065
  Beta  occ. eigenvalues --   -0.32999  -0.30045
  Beta virt. eigenvalues --   -0.10997  -0.00069   0.03410   0.05035   0.06159
  Beta virt. eigenvalues --    0.07493   0.08279   0.08565   0.09744   0.14777
  Beta virt. eigenvalues --    0.16651   0.20780   0.34826   0.36565   0.36739

 Mulliken charges and spin densities:
               1          2
     1  C   -0.356829   0.000000
     2  S   -0.062095  -0.000000
     3  H    0.209465   0.000000
     4  H    0.209459  -0.000000
 Sum of Mulliken charges =  -0.00000   0.00000

 Dipole moment (field-independent basis, Debye):
    X=             -2.5052    Y=             -0.0003    Z=             -0.0008  Tot=              2.5052
 Quadrupole moment (field-independent basis, Debye-Ang):
   XX=            -17.2535   YY=            -20.9190   ZZ=            -21.1840
   XY=             -0.0010   XZ=              0.0006   YZ=             -0.0003

 Normal termination of Gaussian 16 at Mon Apr 21 19:41:39 2025.
