 Gaussian 16, Revision A.03,
 Gaussian 16:  ES64L-G16RevA.03 25-Dec-2016

 --------------------------------------------
 #p opt UM062X/6-311+G** nosymm int=superfine
 --------------------------------------------

 -------------------
 Title Card Required
 -------------------
 Symbolic Z-matrix:
 Charge =  0 Multiplicity = 1

 SCF Done:  E(UM062X) =  -579.900061219     A.U. after    9 cycles
 SCF Done:  E(UM062X) =  -579.903864387     A.U. after   10 cycles
 SCF Done:  E(UM062X) =  -579.903883896     A.U. after    7 cycles
 Optimization completed.
    -- Stationary point found.

                          Input orientation:
 ---------------------------------------------------------------------
 Center     Atomic      Atomic             Coordinates (Angstroms)
 Number     Number       Type             X           Y           Z
 ---------------------------------------------------------------------
      1         14           0       -1.603705    0.000000    0.000000
      2         14           0        1.603705    0.000000    0.000000
      3          1           0       -3.141304    0.000036   -0.000000
      4          1           0        3.141304    0.000103    0.000000
 ---------------------------------------------------------------------

 Alpha  occ. eigenvalues --  -67.04307 -67.04307  -5.58727  -5.58727  -3.89802
 Alpha  occ. eigenvalues --   -3.89801  -3.89357  -3.89357  -3.89256  -3.89255
 Alpha  occ. eigenvalues --   -0.55396  -0.53776  -0.36555  -0.28109  -0.19730
 Alpha virt. eigenvalues --   -0.10307  -0.08719  -0.07126   0.02224   0.03050
 Alpha virt. eigenvalues --    0.04436   0.04791   0.05635   0.06151   0.07120
 Alpha virt. eigenvalues --    0.09376   0.10195   0.21602   0.29354   0.29720

  Beta  occ. eigenvalues --  -67.04307 -67.04307  -5.58727  -5.58727  -3.89802
  Beta  occ. eigenvalues --   -3.89801  -3.89357  -3.89357  -3.89256  -3.89255
  Beta  occ. eigenvalues --   -0.55396  -0.53776  -0.36555  -0.28109  -0.19730
  Beta virt. eigenvalues --   -0.10307  -0.08719  -0.07126   0.02224   0.03050
  Beta virt. eigenvalues --    0.04436   0.04791   0.05635   0.06151   0.07120
  Beta virt. eigenvalues --    0.09376   0.10195   0.21602   0.29354   0.29720

 Mulliken charges and spin densities:
               1          2
     1  Si   0.142109   0.000000
     2  Si   0.142109  -0.000000
     3  H   -0.142109  -0.000000
     4  H   -0.142109   0.000000
 Sum of Mulliken charges =  -0.00000   0.00000

 Dipole moment (field-independent basis, Debye):
    X=             -0.0000    Y=              0.0000    Z=             -0.0000  Tot=              0.0000
 Quadrupole moment (field-independent basis, Debye-Ang):
   XX=            -32.4647   YY=            -24.0916   ZZ=            -35.2068
   XY=             -0.0002   XZ=             -0.0000   YZ=              0.0014

 Normal termination of Gaussian 16 at Mon Apr 21 21:24:20 2025.
