 Gaussian 16, Revision A.03,
 Gaussian 16:  ES64L-G16RevA.03 25-Dec-2016

 --------------------------------------------
 #p opt UM062X/6-311+G** nosymm int=superfine
 --------------------------------------------

 -------------------
 Title Card Required
 -------------------
 Symbolic Z-matrix:
 Charge =  0 Multiplicity = 1

 SCF Done:  E(UM062X) =  -110.395061962     A.U. after   11 cycles
 SCF Done:  E(UM062X) =  -110.408060615     A.U. after   12 cycles
 SCF Done:  E(UM062X) =  -110.409330441     A.U. after   11 cycles
 SCF Done:  E(UM062X) =  -110.409330985     A.U. after    8 cycles
 Optimization completed.
    -- Stationary point found.

                          Input orientation:
 ---------------------------------------------------------------------
 Center     Atomic      Atomic             Coordinates (Angstroms)
 Number     Number       Type             X           Y           Z
 ---------------------------------------------------------------------
      1          7           0       -0.990428    0.000000    0.000000
      2          7           0        0.990428    0.000000    0.000000
      3          1           0       -0.984090   -1.033005    0.000000
      4          1           0        0.984090    1.033005    0.000000
 ---------------------------------------------------------------------

 Alpha  occ. eigenvalues --  -14.87672 -14.87660  -0.96788  -0.87758  -0.50417
 Alpha  occ. eigenvalues --   -0.47239  -0.39005  -0.34961
 Alpha virt. eigenvalues --   -0.15115  -0.05510   0.05807   0.08088   0.11031
 Alpha virt. eigenvalues --    0.12302   0.13075   0.14990   0.16306   0.18844
 Alpha virt. eigenvalues --    0.21220   0.25830   0.53799   0.56924   0.75939

  Beta  occ. eigenvalues --  -14.87672 -14.87660  -0.96788  -0.87758  -0.50417
  Beta  occ. eigenvalues --   -0.47239  -0.39005  -0.34961
  Beta virt. eigenvalues --   -0.15115  -0.05510   0.05807   0.08088   0.11031
  Beta virt. eigenvalues --    0.12302   0.13075   0.14990   0.16306   0.18844
  Beta virt. eigenvalues --    0.21220   0.25830   0.53799   0.56924   0.75939

 Mulliken charges and spin densities:
               1          2
     1  N   -0.249905   0.000000
     2  N   -0.249905  -0.000000
     3  H    0.249905   0.000000
     4  H    0.249905  -0.000000
 Sum of Mulliken charges =  -0.00000   0.00000

 Dipole moment (field-independent basis, Debye):
    X=              0.0000    Y=              0.0000    Z=              0.0000  Tot=              0.0000
 Quadrupole moment (field-independent basis, Debye-Ang):
   XX=            -13.6789   YY=            -10.7113   ZZ=            -13.8305
   XY=              3.9472   XZ=             -0.0000   YZ=              0.0000

 Normal termination of Gaussian 16 at Thu May 15 15:34:27 2025.
