 Gaussian 16, Revision A.03,
 Gaussian 16:  ES64L-G16RevA.03 25-Dec-2016

 --------------------------------------------
 #p opt UM062X/6-311+G** nosymm int=superfine
 --------------------------------------------

 -------------------
 Title Card Required
 -------------------
 Symbolic Z-matrix:
 Charge =  0 Multiplicity = 1

 SCF Done:  E(UM062X) =  -92.8336100708     A.U. after   12 cycles
 SCF Done:  E(UM062X) =  -92.8355866837     A.U. after   11 cycles
 SCF Done:  E(UM062X) =  -92.8355976099     A.U. after   10 cycles
 Optimization completed.
    -- Stationary point found.

                          Input orientation:
 ---------------------------------------------------------------------
 Center     Atomic      Atomic             Coordinates (Angstroms)
 Number     Number       Type             X           Y           Z
 ---------------------------------------------------------------------
      1          6           0       -1.672395    0.000000    0.000000
      2          7           0        1.672395    0.000000    0.000000
      3          1           0       -2.798053    0.000000    0.000000
 ---------------------------------------------------------------------

 Alpha  occ. eigenvalues --  -14.82329 -10.76143  -0.80057  -0.76851  -0.45176
 Alpha  occ. eigenvalues --   -0.26886  -0.26886
 Alpha virt. eigenvalues --   -0.17760  -0.17760  -0.08376   0.00075   0.06548
 Alpha virt. eigenvalues --    0.06548   0.07782   0.12814   0.16428   0.17268
 Alpha virt. eigenvalues --    0.17268   0.24071   0.42257   0.52183   0.52183

  Beta  occ. eigenvalues --  -14.82329 -10.76143  -0.80057  -0.76851  -0.45176
  Beta  occ. eigenvalues --   -0.26886  -0.26886
  Beta virt. eigenvalues --   -0.17760  -0.17760  -0.08376   0.00075   0.06548
  Beta virt. eigenvalues --    0.06548   0.07782   0.12814   0.16428   0.17268
  Beta virt. eigenvalues --    0.17268   0.24071   0.42257   0.52183   0.52183

 Mulliken charges and spin densities:
               1          2
     1  C    0.057767  -0.000000
     2  N   -0.235015   0.000000
     3  H    0.177249   0.000000
 Sum of Mulliken charges =  -0.00000   0.00000

 Dipole moment (field-independent basis, Debye):
    X=             -5.7212    Y=             -0.0000    Z=             -0.0000  Tot=              5.7212
 Quadrupole moment (field-independent basis, Debye-Ang):
   XX=             -4.8662   YY=            -14.2859   ZZ=            -14.2859
   XY=              0.0000   XZ=              0.0000   YZ=             -0.0000

 Normal termination of Gaussian 16 at Mon Apr 21 18:38:47 2025.
