 Gaussian 16, Revision A.03,
 Gaussian 16:  ES64L-G16RevA.03 25-Dec-2016

 --------------------------------------------
 #p opt UM062X/6-311+G** nosymm int=superfine
 --------------------------------------------

 -------------------
 Title Card Required
 -------------------
 Symbolic Z-matrix:
 Charge =  0 Multiplicity = 1

 SCF Done:  E(UM062X) =  -379.546604189     A.U. after   19 cycles
 SCF Done:  E(UM062X) =  -379.548056462     A.U. after   12 cycles
 SCF Done:  E(UM062X) =  -379.548062958     A.U. after   11 cycles
 Optimization completed.
    -- Stationary point found.

                          Input orientation:
 ---------------------------------------------------------------------
 Center     Atomic      Atomic             Coordinates (Angstroms)
 Number     Number       Type             X           Y           Z
 ---------------------------------------------------------------------
      1          6           0       -2.240377    0.000000    0.000000
      2         15           0        2.240377    0.000000    0.000000
      3          1           0       -3.363653   -0.000000    0.000000
 ---------------------------------------------------------------------

 Alpha  occ. eigenvalues --  -78.06026 -10.72399  -6.87986  -4.99917  -4.98958
 Alpha  occ. eigenvalues --   -4.98958  -0.77196  -0.59700  -0.42794  -0.22734
 Alpha  occ. eigenvalues --   -0.22734
 Alpha virt. eigenvalues --   -0.16259  -0.16259  -0.11288   0.00981   0.04362
 Alpha virt. eigenvalues --    0.05906   0.05906   0.07502   0.08134   0.08134
 Alpha virt. eigenvalues --    0.12409   0.15378   0.33255   0.34003   0.34003

  Beta  occ. eigenvalues --  -78.06026 -10.72399  -6.87986  -4.99917  -4.98958
  Beta  occ. eigenvalues --   -4.98958  -0.77196  -0.59700  -0.42794  -0.22734
  Beta  occ. eigenvalues --   -0.22734
  Beta virt. eigenvalues --   -0.16259  -0.16259  -0.11288   0.00981   0.04362
  Beta virt. eigenvalues --    0.05906   0.05906   0.07502   0.08134   0.08134
  Beta virt. eigenvalues --    0.12409   0.15378   0.33255   0.34003   0.34003

 Mulliken charges and spin densities:
               1          2
     1  C   -0.044514   0.000000
     2  P   -0.110790  -0.000000
     3  H    0.155305  -0.000000
 Sum of Mulliken charges =  -0.00000  -0.00000

 Dipole moment (field-independent basis, Debye):
    X=             -4.2654    Y=             -0.0000    Z=              0.0000  Tot=              4.2654
 Quadrupole moment (field-independent basis, Debye-Ang):
   XX=             -9.5252   YY=            -24.1205   ZZ=            -24.1205
   XY=              0.0000   XZ=              0.0000   YZ=             -0.0000

 Normal termination of Gaussian 16 at Mon Apr 21 19:25:52 2025.
