 Gaussian 16, Revision A.03,
 Gaussian 16:  ES64L-G16RevA.03 25-Dec-2016

 --------------------------------------------
 #p opt UM062X/6-311+G** nosymm int=superfine
 --------------------------------------------

 -------------------
 Title Card Required
 -------------------
 Symbolic Z-matrix:
 Charge =  0 Multiplicity = 1

 SCF Done:  E(UM062X) =  -95.6675565172     A.U. after   13 cycles
 SCF Done:  E(UM062X) =  -95.6846458077     A.U. after   11 cycles
 SCF Done:  E(UM062X) =  -95.6927571406     A.U. after   11 cycles
 SCF Done:  E(UM062X) =  -95.6928664318     A.U. after   10 cycles
 SCF Done:  E(UM062X) =  -95.6928807117     A.U. after    9 cycles
 SCF Done:  E(UM062X) =  -95.6928893250     A.U. after    9 cycles
 SCF Done:  E(UM062X) =  -95.6928897851     A.U. after    8 cycles
 Optimization completed.
    -- Stationary point found.

                          Input orientation:
 ---------------------------------------------------------------------
 Center     Atomic      Atomic             Coordinates (Angstroms)
 Number     Number       Type             X           Y           Z
 ---------------------------------------------------------------------
      1          6           0       -1.280542    0.000000    0.000000
      2          7           0        1.280542    0.000000    0.000000
      3          1           0        1.311148   -1.015100    0.135958
      4          1           0       -1.385806    1.075225    0.002011
      5          1           0        1.311020    0.369948    0.955020
      6          1           0       -1.385751   -0.516411   -0.943100
      7          1           0       -1.484867   -0.542130    0.912977
 ---------------------------------------------------------------------

 Alpha  occ. eigenvalues --  -14.75094 -10.60445  -0.90485  -0.79155  -0.51688
 Alpha  occ. eigenvalues --   -0.51263  -0.50098  -0.36143  -0.29585
 Alpha virt. eigenvalues --   -0.07264   0.01593   0.04986   0.05563   0.06794
 Alpha virt. eigenvalues --    0.10565   0.13472   0.16001   0.16618   0.17848
 Alpha virt. eigenvalues --    0.20251   0.21942   0.22216   0.31603   0.41495

  Beta  occ. eigenvalues --  -14.75094 -10.60445  -0.90485  -0.79155  -0.51688
  Beta  occ. eigenvalues --   -0.51263  -0.50098  -0.36143  -0.29585
  Beta virt. eigenvalues --   -0.07264   0.01593   0.04986   0.05563   0.06794
  Beta virt. eigenvalues --    0.10565   0.13472   0.16001   0.16618   0.17848
  Beta virt. eigenvalues --    0.20251   0.21942   0.22216   0.31603   0.41495

 Mulliken charges and spin densities:
               1          2
     1  C   -0.427721   0.000000
     2  N   -0.593394  -0.000000
     3  H    0.227559   0.000000
     4  H    0.194054  -0.000000
     5  H    0.227552   0.000000
     6  H    0.194112  -0.000000
     7  H    0.177839  -0.000000
 Sum of Mulliken charges =  -0.00000  -0.00000

 Dipole moment (field-independent basis, Debye):
    X=             -2.2816    Y=             -0.9353    Z=              1.5817  Tot=              2.9296
 Quadrupole moment (field-independent basis, Debye-Ang):
   XX=            -15.2285   YY=            -13.3092   ZZ=            -14.1350
   XY=             -1.4283   XZ=              2.4152   YZ=              0.7510

 Normal termination of Gaussian 16 at Mon Apr 21 18:08:06 2025.
