 Gaussian 16, Revision A.03,
 Gaussian 16:  ES64L-G16RevA.03 25-Dec-2016

 ---------------------------------------
 #p UM062X/6-311+G** force int=superfine
 ---------------------------------------

 -------------------
 Title Card Required
 -------------------
 Symbolic Z-matrix:
 Charge =  1 Multiplicity = 2

                         Standard orientation:
 ---------------------------------------------------------------------
 Center     Atomic      Atomic             Coordinates (Angstroms)
 Number     Number       Type             X           Y           Z
 ---------------------------------------------------------------------
      1          6           0        0.068666   -0.304824    1.421264
      2          6           0       -0.068656    0.304832   -1.421261
      3          1           0        0.658697   -0.457145   -1.677289
      4          1           0       -0.254879   -1.328877    1.273490
      5          1           0        0.254620    1.329067   -1.274153
      6          1           0       -1.127249    0.077532   -1.475194
      7          1           0       -0.658556    0.457262    1.677342
      8          1           0        1.127306   -0.077885    1.475789
 ---------------------------------------------------------------------

 SCF Done:  E(UM062X) =  -79.3430957418     A.U. after   10 cycles

 The electronic state is 2-A.
 Alpha  occ. eigenvalues --  -10.85221 -10.85217  -1.04551  -1.02629  -0.75075
 Alpha  occ. eigenvalues --   -0.75074  -0.74120  -0.74120  -0.53605
 Alpha virt. eigenvalues --   -0.34707  -0.14351  -0.10367  -0.10367  -0.10115
 Alpha virt. eigenvalues --   -0.06217  -0.06217  -0.05565  -0.03189  -0.02582
 Alpha virt. eigenvalues --   -0.02580   0.01404   0.01406   0.05233   0.07552

  Beta  occ. eigenvalues --  -10.85024 -10.85024  -1.01575  -1.00242  -0.74491
  Beta  occ. eigenvalues --   -0.74490  -0.73612  -0.73612
  Beta virt. eigenvalues --   -0.32829  -0.25069  -0.15443  -0.11124  -0.11124
  Beta virt. eigenvalues --   -0.09860  -0.06476  -0.06476  -0.05644  -0.02747
  Beta virt. eigenvalues --   -0.02745  -0.02358   0.01734   0.01736   0.06066

 Mulliken charges and spin densities:
               1          2
     1  C   -0.274784   0.570443
     2  C   -0.274784   0.570444
     3  H    0.258289  -0.023475
     4  H    0.258233  -0.023482
     5  H    0.258260  -0.023484
     6  H    0.258234  -0.023484
     7  H    0.258291  -0.023475
     8  H    0.258261  -0.023486
 Sum of Mulliken charges =   1.00000   1.00000

 Dipole moment (field-independent basis, Debye):
    X=             -0.0000    Y=             -0.0000    Z=             -0.0000  Tot=              0.0001
 Quadrupole moment (field-independent basis, Debye-Ang):
   XX=            -10.9879   YY=            -10.5713   ZZ=             -1.4623
   XY=             -0.0987   XZ=              0.4603   YZ=             -2.0466

 Normal termination of Gaussian 16 at Wed Nov 13 12:57:41 2024.
