 Gaussian 16, Revision A.03,
 Gaussian 16:  ES64L-G16RevA.03 25-Dec-2016

 --------------------------------------------
 #p opt UM062X/6-311+G** nosymm int=superfine
 --------------------------------------------

 -------------------
 Title Card Required
 -------------------
 Symbolic Z-matrix:
 Charge =  0 Multiplicity = 1

 SCF Done:  E(UM062X) =  -79.6645771685     A.U. after   10 cycles
 SCF Done:  E(UM062X) =  -79.6647575087     A.U. after    8 cycles
 SCF Done:  E(UM062X) =  -79.6647891773     A.U. after    8 cycles
 Optimization completed.
    -- Stationary point found.

                          Input orientation:
 ---------------------------------------------------------------------
 Center     Atomic      Atomic             Coordinates (Angstroms)
 Number     Number       Type             X           Y           Z
 ---------------------------------------------------------------------
      1          6           0       -1.296675    0.000000    0.000000
      2          6           0        1.296800    0.000000    0.000000
      3          1           0        1.482203   -0.922092    0.533561
      4          1           0       -1.482073   -0.923133   -0.531761
      5          1           0        1.482200    0.923133    0.531760
      6          1           0        1.482155   -0.001039   -1.065346
      7          1           0       -1.482078    0.922093   -0.533561
      8          1           0       -1.482033    0.001039    1.065345
 ---------------------------------------------------------------------

 Alpha  occ. eigenvalues --  -10.56053 -10.56049  -0.77196  -0.74654  -0.48365
 Alpha  occ. eigenvalues --   -0.48364  -0.46892  -0.46892  -0.27015
 Alpha virt. eigenvalues --   -0.03443   0.02635   0.05471   0.05471   0.06469
 Alpha virt. eigenvalues --    0.08133   0.08133   0.10361   0.12814   0.18199
 Alpha virt. eigenvalues --    0.18199   0.21892   0.21893   0.24343   0.25855

  Beta  occ. eigenvalues --  -10.56053 -10.56049  -0.77196  -0.74654  -0.48365
  Beta  occ. eigenvalues --   -0.48364  -0.46892  -0.46892  -0.27015
  Beta virt. eigenvalues --   -0.03443   0.02635   0.05471   0.05471   0.06469
  Beta virt. eigenvalues --    0.08133   0.08133   0.10361   0.12814   0.18199
  Beta virt. eigenvalues --    0.18199   0.21892   0.21893   0.24343   0.25855

 Mulliken charges and spin densities:
               1          2
     1  C   -0.514451  -0.000000
     2  C   -0.514451  -0.000000
     3  H    0.171483   0.000000
     4  H    0.171483  -0.000000
     5  H    0.171483   0.000000
     6  H    0.171484   0.000000
     7  H    0.171483   0.000000
     8  H    0.171484   0.000000
 Sum of Mulliken charges =  -0.00000   0.00000

 Dipole moment (field-independent basis, Debye):
    X=             -0.0000    Y=             -0.0000    Z=             -0.0000  Tot=              0.0000
 Quadrupole moment (field-independent basis, Debye-Ang):
   XX=            -15.5099   YY=            -14.7933   ZZ=            -14.7933
   XY=             -0.0000   XZ=              0.0001   YZ=             -0.0000

 Normal termination of Gaussian 16 at Tue Dec  3 09:57:59 2024.
