 Gaussian 16, Revision A.03,
 Gaussian 16:  ES64L-G16RevA.03 25-Dec-2016

 --------------------------------------------
 #p opt UM062X/6-311+G** nosymm int=superfine
 --------------------------------------------

 -------------------
 Title Card Required
 -------------------
 Symbolic Z-matrix:
 Charge =  0 Multiplicity = 1

 SCF Done:  E(UM062X) =  -81.6931797609     A.U. after   24 cycles
 SCF Done:  E(UM062X) =  -81.7012844920     A.U. after   13 cycles
 SCF Done:  E(UM062X) =  -81.7067300002     A.U. after   34 cycles
 SCF Done:  E(UM062X) =  -81.7209261441     A.U. after   24 cycles
 SCF Done:  E(UM062X) =  -81.7348500684     A.U. after   16 cycles
 SCF Done:  E(UM062X) =  -81.7348825734     A.U. after   14 cycles
 SCF Done:  E(UM062X) =  -81.7382493248     A.U. after   16 cycles
 SCF Done:  E(UM062X) =  -81.7402600547     A.U. after   12 cycles
 SCF Done:  E(UM062X) =  -81.7405316319     A.U. after   13 cycles
 SCF Done:  E(UM062X) =  -81.7405863540     A.U. after   13 cycles
 SCF Done:  E(UM062X) =  -81.7405907837     A.U. after   10 cycles
 Optimization completed.
    -- Stationary point found.

                          Input orientation:
 ---------------------------------------------------------------------
 Center     Atomic      Atomic             Coordinates (Angstroms)
 Number     Number       Type             X           Y           Z
 ---------------------------------------------------------------------
      1          5           0       -1.795399    0.000000    0.000000
      2          7           0        1.795399    0.000000    0.000000
      3          1           0       -2.130046   -1.122647    0.025772
      4          1           0        1.787862    0.802932   -0.637704
      5          1           0       -2.130047    1.122628    0.026572
      6          1           0        1.787862   -0.802474   -0.638282
 ---------------------------------------------------------------------

 Alpha  occ. eigenvalues --  -14.71731  -7.18373  -0.87376  -0.63022  -0.51656
 Alpha  occ. eigenvalues --   -0.48044  -0.33310  -0.23711
 Alpha virt. eigenvalues --   -0.10648  -0.08826   0.00705   0.02711   0.04160
 Alpha virt. eigenvalues --    0.05023   0.09447   0.11669   0.13602   0.17407
 Alpha virt. eigenvalues --    0.20124   0.20602   0.21657   0.27876   0.32398

  Beta  occ. eigenvalues --  -14.71731  -7.18373  -0.87376  -0.63022  -0.51656
  Beta  occ. eigenvalues --   -0.48044  -0.33310  -0.23711
  Beta virt. eigenvalues --   -0.10648  -0.08825   0.00705   0.02711   0.04160
  Beta virt. eigenvalues --    0.05023   0.09447   0.11669   0.13602   0.17407
  Beta virt. eigenvalues --    0.20124   0.20602   0.21657   0.27876   0.32398

 Mulliken charges and spin densities:
               1          2
     1  B    0.156437   0.000012
     2  N   -0.699393  -0.000012
     3  H    0.066937   0.000000
     4  H    0.204541   0.000000
     5  H    0.066937   0.000000
     6  H    0.204541   0.000000
 Sum of Mulliken charges =  -0.00000   0.00000

 Dipole moment (field-independent basis, Debye):
    X=             -5.2270    Y=              0.0007    Z=             -1.8657  Tot=              5.5500
 Quadrupole moment (field-independent basis, Debye-Ang):
   XX=            -13.9582   YY=            -13.4471   ZZ=            -14.5865
   XY=              0.0013   XZ=             -3.6338   YZ=              0.0004

 Normal termination of Gaussian 16 at Mon Apr 21 17:48:56 2025.
