 Gaussian 16, Revision A.03,
 Gaussian 16:  ES64L-G16RevA.03 25-Dec-2016

 --------------------------------------------
 #p opt UM062X/6-311+G** nosymm int=superfine
 --------------------------------------------

 -------------------
 Title Card Required
 -------------------
 Symbolic Z-matrix:
 Charge =  0 Multiplicity = 1

 SCF Done:  E(UM062X) =  -683.823665086     A.U. after    9 cycles
 SCF Done:  E(UM062X) =  -683.823921209     A.U. after    8 cycles
 SCF Done:  E(UM062X) =  -683.823950375     A.U. after    7 cycles
 Optimization completed.
    -- Stationary point found.

                          Input orientation:
 ---------------------------------------------------------------------
 Center     Atomic      Atomic             Coordinates (Angstroms)
 Number     Number       Type             X           Y           Z
 ---------------------------------------------------------------------
      1         15           0       -1.134490    0.000000    0.000000
      2         15           0        1.134490    0.000000    0.000000
      3          1           0       -1.185451   -1.419577    0.000000
      4          1           0        1.185451    1.419577    0.000000
 ---------------------------------------------------------------------

 Alpha  occ. eigenvalues --  -78.05654 -78.05654  -6.87893  -6.87887  -4.99399
 Alpha  occ. eigenvalues --   -4.99396  -4.99313  -4.99300  -4.99154  -4.99145
 Alpha  occ. eigenvalues --   -0.74524  -0.63359  -0.41731  -0.40457  -0.31916
 Alpha  occ. eigenvalues --   -0.30069
 Alpha virt. eigenvalues --   -0.10167  -0.00030   0.01794   0.03493   0.04276
 Alpha virt. eigenvalues --    0.04735   0.05100   0.06456   0.06994   0.08373
 Alpha virt. eigenvalues --    0.11078   0.13080   0.26677   0.29412   0.31473

  Beta  occ. eigenvalues --  -78.05654 -78.05654  -6.87893  -6.87887  -4.99399
  Beta  occ. eigenvalues --   -4.99396  -4.99313  -4.99300  -4.99154  -4.99145
  Beta  occ. eigenvalues --   -0.74524  -0.63359  -0.41731  -0.40457  -0.31916
  Beta  occ. eigenvalues --   -0.30069
  Beta virt. eigenvalues --   -0.10167  -0.00030   0.01794   0.03493   0.04276
  Beta virt. eigenvalues --    0.04735   0.05100   0.06456   0.06994   0.08373
  Beta virt. eigenvalues --    0.11078   0.13080   0.26677   0.29412   0.31473

 Mulliken charges and spin densities:
               1          2
     1  P    0.015389   0.000000
     2  P    0.015389   0.000000
     3  H   -0.015389   0.000000
     4  H   -0.015389  -0.000000
 Sum of Mulliken charges =  -0.00000   0.00000

 Dipole moment (field-independent basis, Debye):
    X=              0.0000    Y=             -0.0000    Z=              0.0000  Tot=              0.0000
 Quadrupole moment (field-independent basis, Debye-Ang):
   XX=            -29.0732   YY=            -27.5159   ZZ=            -29.0764
   XY=              2.5768   XZ=              0.0000   YZ=              0.0000

 Normal termination of Gaussian 16 at Mon Apr 21 21:01:19 2025.
