 Gaussian 16, Revision A.03,
 Gaussian 16:  ES64L-G16RevA.03 25-Dec-2016

 ---------------------------------------
 #p UM062X/6-311+G** force int=superfine
 ---------------------------------------

 -------------------
 Title Card Required
 -------------------
 Symbolic Z-matrix:
 Charge =  0 Multiplicity = 1

                         Standard orientation:
 ---------------------------------------------------------------------
 Center     Atomic      Atomic             Coordinates (Angstroms)
 Number     Number       Type             X           Y           Z
 ---------------------------------------------------------------------
      1          6           0       -1.007933   -0.000001    0.000000
      2          6           0        1.007933    0.000001   -0.000000
      3          1           0        1.298022   -0.458300   -0.939995
      4          1           0       -1.298025    0.584947   -0.866874
      5          1           0        1.298027   -0.584946    0.866873
      6          1           0        1.298085    1.043191    0.073117
      7          1           0       -1.298022    0.458299    0.939996
      8          1           0       -1.298087   -1.043189   -0.073117
 ---------------------------------------------------------------------

 SCF Done:  E(UM062X) =  -79.7419069401     A.U. after    9 cycles

 The electronic state is 1-A.
 Alpha  occ. eigenvalues --  -10.54539 -10.54530  -0.79107  -0.72524  -0.48420
 Alpha  occ. eigenvalues --   -0.48419  -0.44282  -0.44282  -0.33373
 Alpha virt. eigenvalues --    0.02331   0.02671   0.05634   0.05634   0.08494
 Alpha virt. eigenvalues --    0.08494   0.09491   0.11342   0.13809   0.18207
 Alpha virt. eigenvalues --    0.18208   0.22022   0.22022   0.24295   0.27009

  Beta  occ. eigenvalues --  -10.54539 -10.54530  -0.79107  -0.72524  -0.48420
  Beta  occ. eigenvalues --   -0.48419  -0.44282  -0.44282  -0.33373
  Beta virt. eigenvalues --    0.02331   0.02671   0.05634   0.05634   0.08494
  Beta virt. eigenvalues --    0.08494   0.09491   0.11342   0.13809   0.18207
  Beta virt. eigenvalues --    0.18208   0.22022   0.22022   0.24295   0.27009

 Mulliken charges and spin densities:
               1          2
     1  C   -0.497576  -0.000000
     2  C   -0.497575   0.000000
     3  H    0.165858   0.000000
     4  H    0.165859  -0.000000
     5  H    0.165859   0.000000
     6  H    0.165858  -0.000000
     7  H    0.165858   0.000000
     8  H    0.165858   0.000000
 Sum of Mulliken charges =  -0.00000   0.00000

 Dipole moment (field-independent basis, Debye):
    X=              0.0000    Y=             -0.0000    Z=              0.0000  Tot=              0.0000
 Quadrupole moment (field-independent basis, Debye-Ang):
   XX=            -15.5939   YY=            -14.8804   ZZ=            -14.8806
   XY=              0.0001   XZ=              0.0000   YZ=              0.0000

 Normal termination of Gaussian 16 at Tue Nov 19 12:50:48 2024.
