 Gaussian 16, Revision A.03,
 Gaussian 16:  ES64L-G16RevA.03 25-Dec-2016

 --------------------------------------------
 #p opt UM062X/6-311+G** nosymm int=superfine
 --------------------------------------------

 -------------------
 Title Card Required
 -------------------
 Symbolic Z-matrix:
 Charge =  0 Multiplicity = 1

 SCF Done:  E(UM062X) =  -79.6703104399     A.U. after    9 cycles
 SCF Done:  E(UM062X) =  -79.6703966388     A.U. after    8 cycles
 SCF Done:  E(UM062X) =  -79.6704105264     A.U. after    7 cycles
 Optimization completed.
    -- Stationary point found.

                          Input orientation:
 ---------------------------------------------------------------------
 Center     Atomic      Atomic             Coordinates (Angstroms)
 Number     Number       Type             X           Y           Z
 ---------------------------------------------------------------------
      1          6           0       -1.271675    0.000000    0.000000
      2          6           0        1.271800    0.000000    0.000000
      3          1           0        1.465124   -0.921043    0.532955
      4          1           0       -1.464994   -0.922082   -0.531157
      5          1           0        1.465121    0.922082    0.531156
      6          1           0        1.465076   -0.001038   -1.064134
      7          1           0       -1.464999    0.921043   -0.532955
      8          1           0       -1.464954    0.001037    1.064133
 ---------------------------------------------------------------------

 Alpha  occ. eigenvalues --  -10.55955 -10.55951  -0.77265  -0.74505  -0.48336
 Alpha  occ. eigenvalues --   -0.48336  -0.46726  -0.46725  -0.27402
 Alpha virt. eigenvalues --   -0.02903   0.02605   0.05486   0.05486   0.06604
 Alpha virt. eigenvalues --    0.08166   0.08166   0.10285   0.12864   0.18187
 Alpha virt. eigenvalues --    0.18187   0.21941   0.21941   0.24352   0.25943

  Beta  occ. eigenvalues --  -10.55955 -10.55951  -0.77265  -0.74505  -0.48336
  Beta  occ. eigenvalues --   -0.48336  -0.46726  -0.46725  -0.27402
  Beta virt. eigenvalues --   -0.02903   0.02605   0.05486   0.05486   0.06604
  Beta virt. eigenvalues --    0.08166   0.08166   0.10285   0.12864   0.18187
  Beta virt. eigenvalues --    0.18187   0.21941   0.21941   0.24352   0.25943

 Mulliken charges and spin densities:
               1          2
     1  C   -0.513247   0.000000
     2  C   -0.513246  -0.000000
     3  H    0.171082   0.000000
     4  H    0.171082  -0.000000
     5  H    0.171082  -0.000000
     6  H    0.171083   0.000000
     7  H    0.171082  -0.000000
     8  H    0.171083  -0.000000
 Sum of Mulliken charges =  -0.00000  -0.00000

 Dipole moment (field-independent basis, Debye):
    X=              0.0000    Y=             -0.0000    Z=             -0.0000  Tot=              0.0000
 Quadrupole moment (field-independent basis, Debye-Ang):
   XX=            -15.5174   YY=            -14.7958   ZZ=            -14.7958
   XY=             -0.0000   XZ=              0.0001   YZ=             -0.0000

 Normal termination of Gaussian 16 at Tue Dec  3 09:57:40 2024.
