 Gaussian 16, Revision A.03,
 Gaussian 16:  ES64L-G16RevA.03 25-Dec-2016

 ---------------------------------------
 #p UM062X/6-311+G** force int=superfine
 ---------------------------------------

 -------------------
 Title Card Required
 -------------------
 Symbolic Z-matrix:
 Charge =  1 Multiplicity = 2

                         Standard orientation:
 ---------------------------------------------------------------------
 Center     Atomic      Atomic             Coordinates (Angstroms)
 Number     Number       Type             X           Y           Z
 ---------------------------------------------------------------------
      1          6           0        0.820886   -0.681399    1.189556
      2          6           0       -0.820881    0.681407   -1.189551
      3          1           0        0.039421    0.672418   -1.849260
      4          1           0        1.035667   -1.562590    0.595596
      5          1           0       -1.036266    1.562813   -0.596128
      6          1           0       -1.534732   -0.133888   -1.223028
      7          1           0       -0.039347   -0.672249    1.849354
      8          1           0        1.535227    0.133449    1.223438
 ---------------------------------------------------------------------

 SCF Done:  E(UM062X) =  -79.3341263474     A.U. after   10 cycles

 The electronic state is 2-A.
 Alpha  occ. eigenvalues --  -10.84832 -10.84829  -1.03665  -1.02504  -0.74423
 Alpha  occ. eigenvalues --   -0.74423  -0.73885  -0.73885  -0.51594
 Alpha virt. eigenvalues --   -0.35995  -0.13803  -0.10188  -0.10181  -0.10181
 Alpha virt. eigenvalues --   -0.06240  -0.06240  -0.05056  -0.03276  -0.01760
 Alpha virt. eigenvalues --   -0.01757   0.01297   0.01299   0.04589   0.07765

  Beta  occ. eigenvalues --  -10.84631 -10.84631  -1.00860  -1.00084  -0.73899
  Beta  occ. eigenvalues --   -0.73898  -0.73376  -0.73376
  Beta virt. eigenvalues --   -0.32614  -0.25891  -0.15463  -0.11138  -0.11137
  Beta virt. eigenvalues --   -0.10017  -0.06391  -0.06391  -0.05308  -0.02384
  Beta virt. eigenvalues --   -0.02067  -0.02064   0.01599   0.01601   0.05504

 Mulliken charges and spin densities:
               1          2
     1  C   -0.270311   0.565194
     2  C   -0.270312   0.565196
     3  H    0.256796  -0.021727
     4  H    0.256755  -0.021722
     5  H    0.256781  -0.021722
     6  H    0.256734  -0.021747
     7  H    0.256798  -0.021726
     8  H    0.256760  -0.021746
 Sum of Mulliken charges =   1.00000   1.00000

 Dipole moment (field-independent basis, Debye):
    X=             -0.0000    Y=             -0.0001    Z=             -0.0000  Tot=              0.0001
 Quadrupole moment (field-independent basis, Debye-Ang):
   XX=             -7.8276   YY=             -8.8289   ZZ=             -4.2775
   XY=             -2.6763   XZ=              4.6725   YZ=             -3.8794

 Normal termination of Gaussian 16 at Wed Nov 13 12:59:08 2024.
