 Gaussian 16, Revision A.03,
 Gaussian 16:  ES64L-G16RevA.03 25-Dec-2016

 --------------------------------------------
 #p opt UM062X/6-311+G** nosymm int=superfine
 --------------------------------------------

 -------------------
 Title Card Required
 -------------------
 Symbolic Z-matrix:
 Charge =  0 Multiplicity = 1

 SCF Done:  E(UM062X) =  -83.1309439085     A.U. after   10 cycles
 SCF Done:  E(UM062X) =  -83.1449940869     A.U. after    9 cycles
 SCF Done:  E(UM062X) =  -83.1474968744     A.U. after    9 cycles
 SCF Done:  E(UM062X) =  -83.1475090322     A.U. after    7 cycles
 Optimization completed.
    -- Stationary point found.

                          Input orientation:
 ---------------------------------------------------------------------
 Center     Atomic      Atomic             Coordinates (Angstroms)
 Number     Number       Type             X           Y           Z
 ---------------------------------------------------------------------
      1          5           0       -1.527429    0.000000    0.000000
      2          7           0        1.527429    0.000000    0.000000
      3          1           0        1.887214   -0.946846    0.000000
      4          1           0       -1.558217   -0.594240    1.029219
      5          1           0        1.887099    0.473480   -0.820015
      6          1           0        1.887086    0.473476    0.820023
      7          1           0       -1.558208    1.188448    0.000015
      8          1           0       -1.558231   -0.594217   -1.029232
 ---------------------------------------------------------------------

 Alpha  occ. eigenvalues --  -14.73998  -7.03339  -0.97026  -0.56541  -0.54903
 Alpha  occ. eigenvalues --   -0.54903  -0.38962  -0.38961  -0.35340
 Alpha virt. eigenvalues --   -0.00979   0.02132   0.04830   0.04830   0.06031
 Alpha virt. eigenvalues --    0.08505   0.10960   0.10960   0.17394   0.17394
 Alpha virt. eigenvalues --    0.18148   0.19901   0.19901   0.23109   0.28860

  Beta  occ. eigenvalues --  -14.73998  -7.03339  -0.97026  -0.56541  -0.54903
  Beta  occ. eigenvalues --   -0.54903  -0.38962  -0.38961  -0.35340
  Beta virt. eigenvalues --   -0.00979   0.02132   0.04830   0.04830   0.06031
  Beta virt. eigenvalues --    0.08505   0.10960   0.10960   0.17394   0.17394
  Beta virt. eigenvalues --    0.18148   0.19901   0.19901   0.23109   0.28860

 Mulliken charges and spin densities:
               1          2
     1  B    0.013836   0.000000
     2  N   -0.747852  -0.000000
     3  H    0.254329   0.000000
     4  H   -0.009658   0.000000
     5  H    0.254331   0.000000
     6  H    0.254331   0.000000
     7  H   -0.009659  -0.000000
     8  H   -0.009658   0.000000
 Sum of Mulliken charges =  -0.00000   0.00000

 Dipole moment (field-independent basis, Debye):
    X=              2.3329    Y=              0.0002    Z=              0.0000  Tot=              2.3329
 Quadrupole moment (field-independent basis, Debye-Ang):
   XX=            -11.6970   YY=            -15.7390   ZZ=            -15.7390
   XY=              0.0000   XZ=             -0.0000   YZ=              0.0000

 Normal termination of Gaussian 16 at Mon Apr 21 17:38:10 2025.
