 Gaussian 16, Revision A.03,
 Gaussian 16:  ES64L-G16RevA.03 25-Dec-2016

 --------------------------------------------
 #p opt UM062X/6-311+G** nosymm int=superfine
 --------------------------------------------

 -------------------
 Title Card Required
 -------------------
 Symbolic Z-matrix:
 Charge =  0 Multiplicity = 1

 SCF Done:  E(UM062X) =  -94.2601985312     A.U. after   24 cycles
 SCF Done:  E(UM062X) =  -94.2602963296     A.U. after   25 cycles
 SCF Done:  E(UM062X) =  -94.2602711774     A.U. after   42 cycles
 SCF Done:  E(UM062X) =  -94.2603040632     A.U. after   26 cycles
 SCF Done:  E(UM062X) =  -94.2603042065     A.U. after   12 cycles
 Optimization completed.
    -- Stationary point found.

                          Input orientation:
 ---------------------------------------------------------------------
 Center     Atomic      Atomic             Coordinates (Angstroms)
 Number     Number       Type             X           Y           Z
 ---------------------------------------------------------------------
      1          6           0       -1.856637    0.000000    0.000000
      2          7           0        1.856637    0.000000    0.000000
      3          1           0       -2.554311   -0.858704   -0.015482
      4          1           0        0.814679   -0.000917    0.002339
      5          1           0       -2.538016    0.871775    0.012919
 ---------------------------------------------------------------------

 Alpha  occ. eigenvalues --  -14.81115 -10.62866  -0.87489  -0.77550  -0.49671
 Alpha  occ. eigenvalues --   -0.44564  -0.33688  -0.32065
 Alpha virt. eigenvalues --   -0.11031  -0.10135   0.01134   0.05288   0.06605
 Alpha virt. eigenvalues --    0.07384   0.13570   0.13963   0.15750   0.17528
 Alpha virt. eigenvalues --    0.17930   0.18359   0.22631   0.42903   0.46969

  Beta  occ. eigenvalues --  -14.81115 -10.62866  -0.87489  -0.77550  -0.49671
  Beta  occ. eigenvalues --   -0.44564  -0.33688  -0.32065
  Beta virt. eigenvalues --   -0.11031  -0.10135   0.01134   0.05288   0.06605
  Beta virt. eigenvalues --    0.07384   0.13570   0.13963   0.15750   0.17528
  Beta virt. eigenvalues --    0.17930   0.18359   0.22631   0.42903   0.46969

 Mulliken charges and spin densities:
               1          2
     1  C   -0.309524  -0.000000
     2  N   -0.251407   0.000000
     3  H    0.146626  -0.000000
     4  H    0.268075  -0.000000
     5  H    0.146230  -0.000000
 Sum of Mulliken charges =  -0.00000   0.00000

 Dipole moment (field-independent basis, Debye):
    X=             -4.1899    Y=              0.0167    Z=             -0.0000  Tot=              4.1899
 Quadrupole moment (field-independent basis, Debye-Ang):
   XX=            -13.6669   YY=            -12.2305   ZZ=            -14.9088
   XY=             -0.0200   XZ=              0.0041   YZ=              0.0586

 Normal termination of Gaussian 16 at Mon Apr 21 21:07:20 2025.
