 Gaussian 16, Revision A.03,
 Gaussian 16:  ES64L-G16RevA.03 25-Dec-2016

 --------------------------------------------
 #p opt UM062X/6-311+G** nosymm int=superfine
 --------------------------------------------

 -------------------
 Title Card Required
 -------------------
 Symbolic Z-matrix:
 Charge =  0 Multiplicity = 1

 SCF Done:  E(UM062X) =  -437.305971230     A.U. after   12 cycles
 SCF Done:  E(UM062X) =  -437.307225787     A.U. after   10 cycles
 SCF Done:  E(UM062X) =  -437.307725690     A.U. after   12 cycles
 SCF Done:  E(UM062X) =  -437.307504705     A.U. after   11 cycles
 SCF Done:  E(UM062X) =  -437.307729273     A.U. after    8 cycles
 Optimization completed.
    -- Stationary point found.

                          Input orientation:
 ---------------------------------------------------------------------
 Center     Atomic      Atomic             Coordinates (Angstroms)
 Number     Number       Type             X           Y           Z
 ---------------------------------------------------------------------
      1          6           0       -1.127140    0.000000    0.000000
      2         16           0        1.127140    0.000000    0.000000
      3          1           0       -1.614930   -0.966711    0.000135
      4          1           0       -1.615162    0.966594   -0.000233
 ---------------------------------------------------------------------

 Alpha  occ. eigenvalues --  -89.92534 -10.68031  -8.28278  -6.20420  -6.20167
 Alpha  occ. eigenvalues --   -6.19605  -0.81402  -0.72114  -0.56271  -0.39610
 Alpha  occ. eigenvalues --   -0.31070  -0.29948
 Alpha virt. eigenvalues --   -0.13086  -0.04386   0.02220   0.04996   0.06132
 Alpha virt. eigenvalues --    0.06426   0.08351   0.08476   0.09443   0.14217
 Alpha virt. eigenvalues --    0.16206   0.20317   0.35069   0.36165   0.36970

  Beta  occ. eigenvalues --  -89.92534 -10.68031  -8.28278  -6.20420  -6.20167
  Beta  occ. eigenvalues --   -6.19605  -0.81402  -0.72114  -0.56271  -0.39610
  Beta  occ. eigenvalues --   -0.31070  -0.29948
  Beta virt. eigenvalues --   -0.13086  -0.04386   0.02220   0.04996   0.06132
  Beta virt. eigenvalues --    0.06426   0.08351   0.08476   0.09443   0.14217
  Beta virt. eigenvalues --    0.16206   0.20317   0.35069   0.36165   0.36970

 Mulliken charges and spin densities:
               1          2
     1  C   -0.329628   0.000000
     2  S   -0.094581  -0.000000
     3  H    0.212106  -0.000000
     4  H    0.212104  -0.000000
 Sum of Mulliken charges =   0.00000  -0.00000

 Dipole moment (field-independent basis, Debye):
    X=             -2.9745    Y=             -0.0001    Z=             -0.0001  Tot=              2.9745
 Quadrupole moment (field-independent basis, Debye-Ang):
   XX=            -16.4814   YY=            -21.1271   ZZ=            -21.7180
   XY=             -0.0003   XZ=              0.0000   YZ=             -0.0001

 Normal termination of Gaussian 16 at Mon Apr 21 19:42:34 2025.
