 Gaussian 16, Revision A.03,
 Gaussian 16:  ES64L-G16RevA.03 25-Dec-2016

 --------------------------------------------
 #p opt UM062X/6-311+G** nosymm int=superfine
 --------------------------------------------

 -------------------
 Title Card Required
 -------------------
 Symbolic Z-matrix:
 Charge = -1 Multiplicity = 2

 SCF Done:  E(UM062X) =  -53.2142015183     A.U. after   11 cycles
 SCF Done:  E(UM062X) =  -53.2167268544     A.U. after   10 cycles
 SCF Done:  E(UM062X) =  -53.2172646387     A.U. after   10 cycles
 SCF Done:  E(UM062X) =  -53.2172661854     A.U. after    8 cycles
 Optimization completed.
    -- Stationary point found.

                          Input orientation:
 ---------------------------------------------------------------------
 Center     Atomic      Atomic             Coordinates (Angstroms)
 Number     Number       Type             X           Y           Z
 ---------------------------------------------------------------------
      1          5           0       -1.665672    0.000000    0.000000
      2          5           0        1.665672    0.000000    0.000000
      3          1           0        1.761516   -1.195801   -0.000013
      4          1           0       -1.761703   -0.597872    1.035592
      5          1           0        1.761846    0.597890   -1.035570
      6          1           0        1.761656    0.597858    1.035604
      7          1           0       -1.761523    1.195801    0.000001
      8          1           0       -1.761792   -0.597877   -1.035582
 ---------------------------------------------------------------------

 Alpha  occ. eigenvalues --   -6.83255  -6.83254  -0.39293  -0.37891  -0.20888
 Alpha  occ. eigenvalues --   -0.20888  -0.20123  -0.20122   0.00264
 Alpha virt. eigenvalues --    0.14032   0.17171   0.17680   0.17681   0.18766
 Alpha virt. eigenvalues --    0.18766   0.21076   0.22745   0.22937   0.32948
 Alpha virt. eigenvalues --    0.32949   0.35814   0.35814   0.38593   0.39699

  Beta  occ. eigenvalues --   -6.83213  -6.83212  -0.37262  -0.36366  -0.20622
  Beta  occ. eigenvalues --   -0.20622  -0.19961  -0.19961
  Beta virt. eigenvalues --    0.13257   0.14338   0.15943   0.16319   0.16319
  Beta virt. eigenvalues --    0.18331   0.18331   0.23075   0.23660   0.26976
  Beta virt. eigenvalues --    0.32228   0.32229   0.35533   0.35534   0.38578

 Mulliken charges and spin densities:
               1          2
     1  B   -0.309260   0.590009
     2  B   -0.309260   0.590009
     3  H   -0.063545  -0.029970
     4  H   -0.063596  -0.030019
     5  H   -0.063602  -0.030019
     6  H   -0.063593  -0.030019
     7  H   -0.063545  -0.029970
     8  H   -0.063599  -0.030019
 Sum of Mulliken charges =  -1.00000   1.00000

 Dipole moment (field-independent basis, Debye):
    X=              0.0000    Y=             -0.0000    Z=              0.0000  Tot=              0.0000
 Quadrupole moment (field-independent basis, Debye-Ang):
   XX=            -38.1665   YY=            -24.1764   ZZ=            -24.1767
   XY=             -0.0002   XZ=              0.0000   YZ=              0.0000

 Normal termination of Gaussian 16 at Mon Apr 21 16:53:04 2025.
