 Gaussian 16, Revision A.03,
 Gaussian 16:  ES64L-G16RevA.03 25-Dec-2016

 --------------------------------------------
 #p opt UM062X/6-311+G** nosymm int=superfine
 --------------------------------------------

 -------------------
 Title Card Required
 -------------------
 Symbolic Z-matrix:
 Charge =  0 Multiplicity = 1

 SCF Done:  E(UM062X) =  -382.247049045     A.U. after   14 cycles
 SCF Done:  E(UM062X) =  -382.257337567     A.U. after   11 cycles
 SCF Done:  E(UM062X) =  -382.263212119     A.U. after   11 cycles
 SCF Done:  E(UM062X) =  -382.263303465     A.U. after   11 cycles
 SCF Done:  E(UM062X) =  -382.263351363     A.U. after   10 cycles
 SCF Done:  E(UM062X) =  -382.263380328     A.U. after   11 cycles
 SCF Done:  E(UM062X) =  -382.263387874     A.U. after    9 cycles
 SCF Done:  E(UM062X) =  -382.263389812     A.U. after   11 cycles
 SCF Done:  E(UM062X) =  -382.263390890     A.U. after    8 cycles
 SCF Done:  E(UM062X) =  -382.263391492     A.U. after    8 cycles
 SCF Done:  E(UM062X) =  -382.263391663     A.U. after   12 cycles
 Optimization completed.
    -- Stationary point found.

                          Input orientation:
 ---------------------------------------------------------------------
 Center     Atomic      Atomic             Coordinates (Angstroms)
 Number     Number       Type             X           Y           Z
 ---------------------------------------------------------------------
      1          6           0       -1.906264    0.000000    0.000000
      2         15           0        1.906264    0.000000    0.000000
      3          1           0        1.838185   -1.417583    0.027682
      4          1           0       -1.959095    1.052936    0.235647
      5          1           0        1.838142    0.078020    1.415678
      6          1           0       -1.959010   -0.319493   -1.030599
      7          1           0       -1.987291   -0.730597    0.791845
 ---------------------------------------------------------------------

 Alpha  occ. eigenvalues --  -78.03201 -10.59527  -6.85587  -4.97114  -4.97036
 Alpha  occ. eigenvalues --   -4.96853  -0.78792  -0.69405  -0.50933  -0.50879
 Alpha  occ. eigenvalues --   -0.43571  -0.34668  -0.24052
 Alpha virt. eigenvalues --   -0.12262   0.02143   0.03888   0.03986   0.04550
 Alpha virt. eigenvalues --    0.06275   0.06814   0.07234   0.07260   0.11446
 Alpha virt. eigenvalues --    0.17172   0.18283   0.18356   0.23085   0.30297

  Beta  occ. eigenvalues --  -78.03201 -10.59527  -6.85587  -4.97114  -4.97036
  Beta  occ. eigenvalues --   -4.96853  -0.78792  -0.69405  -0.50933  -0.50879
  Beta  occ. eigenvalues --   -0.43571  -0.34668  -0.24052
  Beta virt. eigenvalues --   -0.12262   0.02143   0.03888   0.03986   0.04550
  Beta virt. eigenvalues --    0.06275   0.06814   0.07234   0.07260   0.11446
  Beta virt. eigenvalues --    0.17172   0.18283   0.18356   0.23085   0.30297

 Mulliken charges and spin densities:
               1          2
     1  C   -0.510089   0.000000
     2  P   -0.047461  -0.000000
     3  H   -0.001502   0.000000
     4  H    0.187600  -0.000000
     5  H   -0.001502   0.000000
     6  H    0.187587  -0.000000
     7  H    0.185367  -0.000000
 Sum of Mulliken charges =  -0.00000   0.00000

 Dipole moment (field-independent basis, Debye):
    X=             -1.4888    Y=             -0.5685    Z=              0.6125  Tot=              1.7073
 Quadrupole moment (field-independent basis, Debye-Ang):
   XX=            -22.2444   YY=            -22.3970   ZZ=            -22.5021
   XY=             -1.2419   XZ=              1.3379   YZ=              0.7027

 Normal termination of Gaussian 16 at Mon Apr 21 19:08:04 2025.
