 Gaussian 16, Revision A.03,
 Gaussian 16:  ES64L-G16RevA.03 25-Dec-2016

 --------------------------------------------
 #p opt UM062X/6-311+G** nosymm int=superfine
 --------------------------------------------

 -------------------
 Title Card Required
 -------------------
 Symbolic Z-matrix:
 Charge =  0 Multiplicity = 1

 SCF Done:  E(UM062X) =  -582.415426753     A.U. after   10 cycles
 SCF Done:  E(UM062X) =  -582.417244867     A.U. after    8 cycles
 SCF Done:  E(UM062X) =  -582.417626181     A.U. after    9 cycles
 Optimization completed.
    -- Stationary point found.

                          Input orientation:
 ---------------------------------------------------------------------
 Center     Atomic      Atomic             Coordinates (Angstroms)
 Number     Number       Type             X           Y           Z
 ---------------------------------------------------------------------
      1         14           0       -1.919819    0.000000    0.000000
      2         14           0        1.919819    0.000000    0.000000
      3          1           0        2.342428   -1.413943   -0.000057
      4          1           0       -2.342428   -0.706854    1.224588
      5          1           0        2.342539    0.707026   -1.224450
      6          1           0        2.342435    0.706906    1.224555
      7          1           0       -2.342431    1.413942   -0.000115
      8          1           0       -2.342544   -0.707080   -1.224417
 ---------------------------------------------------------------------

 Alpha  occ. eigenvalues --  -67.01612 -67.01612  -5.56457  -5.56455  -3.87678
 Alpha  occ. eigenvalues --   -3.87677  -3.87474  -3.87474  -3.87474  -3.87474
 Alpha  occ. eigenvalues --   -0.61080  -0.60380  -0.41828  -0.41828  -0.41609
 Alpha  occ. eigenvalues --   -0.41609  -0.24095
 Alpha virt. eigenvalues --   -0.07998   0.02168   0.02912   0.02912   0.03494
 Alpha virt. eigenvalues --    0.05291   0.05291   0.05410   0.07149   0.07240
 Alpha virt. eigenvalues --    0.07240   0.08987   0.08987   0.13484   0.16566

  Beta  occ. eigenvalues --  -67.01612 -67.01612  -5.56457  -5.56455  -3.87678
  Beta  occ. eigenvalues --   -3.87677  -3.87474  -3.87474  -3.87474  -3.87474
  Beta  occ. eigenvalues --   -0.61080  -0.60380  -0.41828  -0.41828  -0.41609
  Beta  occ. eigenvalues --   -0.41609  -0.24095
  Beta virt. eigenvalues --   -0.07998   0.02168   0.02912   0.02912   0.03494
  Beta virt. eigenvalues --    0.05291   0.05291   0.05410   0.07149   0.07240
  Beta virt. eigenvalues --    0.07240   0.08987   0.08987   0.13484   0.16566

 Mulliken charges and spin densities:
               1          2
     1  Si   0.277547   0.000000
     2  Si   0.277547  -0.000000
     3  H   -0.092515  -0.000000
     4  H   -0.092516  -0.000000
     5  H   -0.092516  -0.000000
     6  H   -0.092515   0.000000
     7  H   -0.092515  -0.000000
     8  H   -0.092516  -0.000000
 Sum of Mulliken charges =  -0.00000   0.00000

 Dipole moment (field-independent basis, Debye):
    X=              0.0000    Y=             -0.0000    Z=              0.0000  Tot=              0.0000
 Quadrupole moment (field-independent basis, Debye-Ang):
   XX=            -29.1219   YY=            -31.9961   ZZ=            -31.9961
   XY=             -0.0000   XZ=              0.0000   YZ=              0.0000

 Normal termination of Gaussian 16 at Mon Apr 21 20:20:17 2025.
