 Gaussian 16, Revision A.03,
 Gaussian 16:  ES64L-G16RevA.03 25-Dec-2016

 ---------------------------------------
 #p UM062X/6-311+G** force int=superfine
 ---------------------------------------

 -------------------
 Title Card Required
 -------------------
 Symbolic Z-matrix:
 Charge =  1 Multiplicity = 2

                         Standard orientation:
 ---------------------------------------------------------------------
 Center     Atomic      Atomic             Coordinates (Angstroms)
 Number     Number       Type             X           Y           Z
 ---------------------------------------------------------------------
      1          6           0        0.119824   -0.431066    1.667286
      2          6           0       -0.119818    0.431072   -1.667285
      3          1           0        0.642830   -0.286817   -1.946655
      4          1           0       -0.156098   -1.458452    1.458990
      5          1           0        0.155821    1.458689   -1.459755
      6          1           0       -1.165884    0.149042   -1.702531
      7          1           0       -0.642682    0.286947    1.946724
      8          1           0        1.165978   -0.149444    1.703218
 ---------------------------------------------------------------------

 SCF Done:  E(UM062X) =  -79.3273133259     A.U. after   10 cycles

 The electronic state is 2-A.
 Alpha  occ. eigenvalues --  -10.84426 -10.84424  -1.03054  -1.02306  -0.73949
 Alpha  occ. eigenvalues --   -0.73949  -0.73630  -0.73629  -0.50023
 Alpha virt. eigenvalues --   -0.36770  -0.13383  -0.10215  -0.09955  -0.09955
 Alpha virt. eigenvalues --   -0.06246  -0.06246  -0.04675  -0.03236  -0.01115
 Alpha virt. eigenvalues --   -0.01112   0.01271   0.01273   0.03834   0.08043

  Beta  occ. eigenvalues --  -10.84219 -10.84219  -1.00342  -0.99846  -0.73443
  Beta  occ. eigenvalues --   -0.73442  -0.73111  -0.73111
  Beta virt. eigenvalues --   -0.32704  -0.26314  -0.15672  -0.11135  -0.11134
  Beta virt. eigenvalues --   -0.10116  -0.06323  -0.06323  -0.05058  -0.02316
  Beta virt. eigenvalues --   -0.01464  -0.01461   0.01558   0.01560   0.04287

 Mulliken charges and spin densities:
               1          2
     1  C   -0.265089   0.561249
     2  C   -0.265089   0.561249
     3  H    0.255050  -0.020413
     4  H    0.254997  -0.020431
     5  H    0.255020  -0.020430
     6  H    0.255018  -0.020406
     7  H    0.255051  -0.020413
     8  H    0.255041  -0.020405
 Sum of Mulliken charges =   1.00000   1.00000

 Dipole moment (field-independent basis, Debye):
    X=             -0.0000    Y=             -0.0001    Z=             -0.0000  Tot=              0.0001
 Quadrupole moment (field-independent basis, Debye-Ang):
   XX=            -11.0114   YY=            -10.1897   ZZ=              2.2488
   XY=             -0.2473   XZ=              0.9567   YZ=             -3.4448

 Normal termination of Gaussian 16 at Wed Nov 13 13:03:48 2024.
