 Gaussian 16, Revision A.03,
 Gaussian 16:  ES64L-G16RevA.03 25-Dec-2016

 --------------------------------------------
 #p opt UM062X/6-311+G** nosymm int=superfine
 --------------------------------------------

 -------------------
 Title Card Required
 -------------------
 Symbolic Z-matrix:
 Charge =  1 Multiplicity = 2

 SCF Done:  E(UM062X) =  -77.5080648654     A.U. after    9 cycles
 SCF Done:  E(UM062X) =  -77.5709237384     A.U. after   10 cycles
 SCF Done:  E(UM062X) =  -77.6327221142     A.U. after   10 cycles
 SCF Done:  E(UM062X) =  -77.6542240882     A.U. after    9 cycles
 SCF Done:  E(UM062X) =  -77.6576148267     A.U. after    9 cycles
 SCF Done:  E(UM062X) =  -77.6580299956     A.U. after    8 cycles
 SCF Done:  E(UM062X) =  -77.6580534812     A.U. after    8 cycles
 Optimization completed.
    -- Stationary point found.

                          Input orientation:
 ---------------------------------------------------------------------
 Center     Atomic      Atomic             Coordinates (Angstroms)
 Number     Number       Type             X           Y           Z
 ---------------------------------------------------------------------
      1          6           0       -0.445342    0.000000    0.000000
      2          6           0        0.445342    0.000000    0.000000
      3          1           0       -1.252663   -0.797391   -0.000000
      4          1           0       -1.247629    0.804236    0.000000
      5          1           0        1.252663    0.797391   -0.000000
      6          1           0        1.247629   -0.804236    0.000000
 ---------------------------------------------------------------------

 Alpha  occ. eigenvalues --  -10.81550 -10.78116  -1.25396  -0.96342  -0.89076
 Alpha  occ. eigenvalues --   -0.88507  -0.75585  -0.62679
 Alpha virt. eigenvalues --   -0.18444  -0.15358  -0.13940  -0.13797  -0.11105
 Alpha virt. eigenvalues --   -0.09013  -0.07580  -0.06471  -0.02169  -0.01025
 Alpha virt. eigenvalues --    0.00037   0.02986   0.15232   0.18108   0.18981

  Beta  occ. eigenvalues --  -10.81602 -10.78143  -1.24612  -0.91590  -0.85526
  Beta  occ. eigenvalues --   -0.84855  -0.75402
  Beta virt. eigenvalues --   -0.41989  -0.16827  -0.15188  -0.13841  -0.13462
  Beta virt. eigenvalues --   -0.10852  -0.08884  -0.04840  -0.03897  -0.01896
  Beta virt. eigenvalues --    0.00030   0.00623   0.03837   0.14833   0.17848

 Mulliken charges and spin densities:
               1          2
     1  C   -0.144515   0.092938
     2  C   -0.144515   0.092938
     3  H    0.322148   0.202182
     4  H    0.322368   0.204880
     5  H    0.322148   0.202182
     6  H    0.322368   0.204880
 Sum of Mulliken charges =   1.00000   1.00000

 Dipole moment (field-independent basis, Debye):
    X=              0.0000    Y=             -0.0000    Z=              0.0000  Tot=              0.0000
 Quadrupole moment (field-independent basis, Debye-Ang):
   XX=             -2.6236   YY=             -7.5273   ZZ=            -11.9392
   XY=             -0.0173   XZ=              0.0000   YZ=             -0.0000

 Normal termination of Gaussian 16 at Tue Nov 19 10:39:01 2024.
