 Gaussian 16, Revision A.03,
 Gaussian 16:  ES64L-G16RevA.03 25-Dec-2016

 ---------------------------------------------------
 #p UM062X/6-311+G** force int=superfine pop=saveNBO
 ---------------------------------------------------

 -------------------
 Title Card Required
 -------------------
 Symbolic Z-matrix:
 Charge =  0 Multiplicity = 1

                         Standard orientation:
 ---------------------------------------------------------------------
 Center     Atomic      Atomic             Coordinates (Angstroms)
 Number     Number       Type             X           Y           Z
 ---------------------------------------------------------------------
      1          6           0        0.000000    0.000000   -1.069808
      2          8           0        0.000000    0.000000    0.802356
 ---------------------------------------------------------------------

 SCF Done:  E(UM062X) =  -112.966050891     A.U. after   13 cycles

 The electronic state is 1-SG.
 Alpha  occ. eigenvalues --  -19.71851 -10.83368  -1.03511  -0.70574  -0.42412
 Alpha  occ. eigenvalues --   -0.39285  -0.39285
 Alpha virt. eigenvalues --   -0.15509  -0.15509  -0.04045   0.03444   0.06469
 Alpha virt. eigenvalues --    0.06469   0.07392   0.19999   0.22565   0.22565
 Alpha virt. eigenvalues --    0.31970   0.52283   0.52283   0.52966   0.69302

  Beta  occ. eigenvalues --  -19.71851 -10.83368  -1.03511  -0.70574  -0.42412
  Beta  occ. eigenvalues --   -0.39285  -0.39285
  Beta virt. eigenvalues --   -0.15509  -0.15509  -0.04045   0.03444   0.06469
  Beta virt. eigenvalues --    0.06469   0.07392   0.19999   0.22565   0.22565
  Beta virt. eigenvalues --    0.31970   0.52283   0.52283   0.52966   0.69302

 Mulliken charges and spin densities:
               1          2
     1  C    0.320555  -0.000000
     2  O   -0.320555   0.000000
 Sum of Mulliken charges =   0.00000  -0.00000

 Dipole moment (field-independent basis, Debye):
    X=              0.0000    Y=              0.0000    Z=             -2.9402  Tot=              2.9402
 Quadrupole moment (field-independent basis, Debye-Ang):
   XX=            -11.4812   YY=            -11.4812   ZZ=            -11.2095
   XY=              0.0000   XZ=              0.0000   YZ=              0.0000

 Summary of Natural Population Analysis:

                                       Natural Population
                Natural  -----------------------------------------------
    Atom  No    Charge         Core      Valence    Rydberg      Total
 -----------------------------------------------------------------------
      C    1    0.31011      0.99999     1.68657    0.00333     2.68989
      O    2   -0.31011      0.99999     3.30757    0.00254     4.31011
 =======================================================================
   * Total *   -0.00000      1.99999     4.99415    0.00587     7.00000

 Normal termination of Gaussian 16 at Mon Apr 21 19:31:29 2025.
