 Gaussian 16, Revision A.03,
 Gaussian 16:  ES64L-G16RevA.03 25-Dec-2016

 --------------------------------------------
 #p opt UM062X/6-311+G** nosymm int=superfine
 --------------------------------------------

 -------------------
 Title Card Required
 -------------------
 Symbolic Z-matrix:
 Charge =  0 Multiplicity = 1

 SCF Done:  E(UM062X) =  -94.2555929528     A.U. after   13 cycles
 SCF Done:  E(UM062X) =  -94.2590898444     A.U. after   17 cycles
 SCF Done:  E(UM062X) =  -94.2611407194     A.U. after   16 cycles
 SCF Done:  E(UM062X) =  -94.2616937631     A.U. after   13 cycles
 SCF Done:  E(UM062X) =  -94.2630239419     A.U. after   18 cycles
 SCF Done:  E(UM062X) =  -94.2635904977     A.U. after   16 cycles
 SCF Done:  E(UM062X) =  -94.2635946217     A.U. after   19 cycles
 SCF Done:  E(UM062X) =  -94.2635917188     A.U. after   23 cycles
 SCF Done:  E(UM062X) =  -94.2635970533     A.U. after   17 cycles
 SCF Done:  E(UM062X) =  -94.2635971972     A.U. after   15 cycles
 SCF Done:  E(UM062X) =  -94.2635976497     A.U. after    9 cycles
 SCF Done:  E(UM062X) =  -94.2635982366     A.U. after   20 cycles
 SCF Done:  E(UM062X) =  -94.2635985439     A.U. after   14 cycles
 Optimization completed.
    -- Stationary point found.

                          Input orientation:
 ---------------------------------------------------------------------
 Center     Atomic      Atomic             Coordinates (Angstroms)
 Number     Number       Type             X           Y           Z
 ---------------------------------------------------------------------
      1          6           0       -1.631637    0.000000    0.000000
      2          7           0        1.631637    0.000000    0.000000
      3          1           0       -2.482705   -0.705737    0.000350
      4          1           0        1.238402   -0.958363   -0.000156
      5          1           0       -2.108878    0.996200   -0.000304
 ---------------------------------------------------------------------

 Alpha  occ. eigenvalues --  -14.80743 -10.63303  -0.87079  -0.77622  -0.50011
 Alpha  occ. eigenvalues --   -0.43979  -0.33657  -0.31442
 Alpha virt. eigenvalues --   -0.10079  -0.10078   0.01487   0.05394   0.07048
 Alpha virt. eigenvalues --    0.07759   0.12624   0.14171   0.16142   0.17755
 Alpha virt. eigenvalues --    0.18141   0.19488   0.25197   0.43273   0.46457

  Beta  occ. eigenvalues --  -14.80743 -10.63303  -0.87079  -0.77622  -0.50011
  Beta  occ. eigenvalues --   -0.43979  -0.33657  -0.31442
  Beta virt. eigenvalues --   -0.10079  -0.10078   0.01487   0.05394   0.07048
  Beta virt. eigenvalues --    0.07759   0.12624   0.14171   0.16142   0.17755
  Beta virt. eigenvalues --    0.18141   0.19488   0.25197   0.43273   0.46457

 Mulliken charges and spin densities:
               1          2
     1  C   -0.303004  -0.000000
     2  N   -0.206002   0.000000
     3  H    0.151562   0.000000
     4  H    0.206805   0.000000
     5  H    0.150638  -0.000000
 Sum of Mulliken charges =  -0.00000   0.00000

 Dipole moment (field-independent basis, Debye):
    X=             -3.3032    Y=             -1.1452    Z=             -0.0002  Tot=              3.4961
 Quadrupole moment (field-independent basis, Debye-Ang):
   XX=             -9.5777   YY=            -12.7380   ZZ=            -14.9427
   XY=             -3.1778   XZ=             -0.0004   YZ=              0.0006

 Normal termination of Gaussian 16 at Mon Apr 21 18:23:31 2025.
