 Gaussian 16, Revision A.03,
 Gaussian 16:  ES64L-G16RevA.03 25-Dec-2016

 -------------------------------------------------------------------
 #p opt UM062X/6-311+G** nosymm int=superfine SCF=NoVarAcc SCF=tight
 -------------------------------------------------------------------

 -------------------
 Title Card Required
 -------------------
 Symbolic Z-matrix:
 Charge =  1 Multiplicity = 2

 SCF Done:  E(UM062X) =  -77.8911991511     A.U. after   10 cycles
 SCF Done:  E(UM062X) =  -77.8952234106     A.U. after   10 cycles
 SCF Done:  E(UM062X) =  -77.8979381808     A.U. after   10 cycles
 SCF Done:  E(UM062X) =  -77.8979419091     A.U. after    8 cycles
 Optimization completed.
    -- Stationary point found.

                          Input orientation:
 ---------------------------------------------------------------------
 Center     Atomic      Atomic             Coordinates (Angstroms)
 Number     Number       Type             X           Y           Z
 ---------------------------------------------------------------------
      1          6           0       -2.606027    0.000000    0.000000
      2          6           0        2.606027    0.000000    0.000000
      3          1           0       -3.167593   -0.941808   -0.000000
      4          1           0       -3.167532    0.941844   -0.000000
      5          1           0        3.167593    0.941808   -0.000000
      6          1           0        3.167532   -0.941844   -0.000000
 ---------------------------------------------------------------------

 Alpha  occ. eigenvalues --  -10.87286 -10.87286  -0.98752  -0.98749  -0.73406
 Alpha  occ. eigenvalues --   -0.73404  -0.56432  -0.56227
 Alpha virt. eigenvalues --   -0.30518  -0.30461  -0.12123  -0.10513  -0.07974
 Alpha virt. eigenvalues --   -0.07261  -0.06150  -0.05913  -0.03918  -0.00759
 Alpha virt. eigenvalues --    0.00739   0.01205   0.02582   0.03853   0.27723

  Beta  occ. eigenvalues --  -10.86544 -10.86543  -0.96615  -0.96549  -0.72398
  Beta  occ. eigenvalues --   -0.72393  -0.43893
  Beta virt. eigenvalues --   -0.37241  -0.28842  -0.28764  -0.11641  -0.10722
  Beta virt. eigenvalues --   -0.07946  -0.06184  -0.06104  -0.04765  -0.04277
  Beta virt. eigenvalues --   -0.00658   0.01408   0.01535   0.02850   0.04470

 Mulliken charges and spin densities:
               1          2
     1  C    0.030372   0.486190
     2  C    0.030372   0.486190
     3  H    0.234814   0.006905
     4  H    0.234814   0.006905
     5  H    0.234814   0.006905
     6  H    0.234814   0.006905
 Sum of Mulliken charges =   1.00000   1.00000

 Dipole moment (field-independent basis, Debye):
    X=              0.0000    Y=             -0.0000    Z=             -0.0000  Tot=              0.0000
 Quadrupole moment (field-independent basis, Debye-Ang):
   XX=             37.3817   YY=             -9.4839   ZZ=            -10.7107
   XY=             -0.0001   XZ=             -0.0000   YZ=             -0.0000

 Normal termination of Gaussian 16 at Tue Dec  3 15:40:44 2024.
