 Gaussian 16, Revision A.03,
 Gaussian 16:  ES64L-G16RevA.03 25-Dec-2016

 --------------------------------------------
 #p opt UM062X/6-311+G** nosymm int=superfine
 --------------------------------------------

 -------------------
 Title Card Required
 -------------------
 Symbolic Z-matrix:
 Charge =  1 Multiplicity = 2

 SCF Done:  E(UM062X) =  -579.688231858     A.U. after   15 cycles
 SCF Done:  E(UM062X) =  -579.692146144     A.U. after   13 cycles
 SCF Done:  E(UM062X) =  -579.697208698     A.U. after   15 cycles
 SCF Done:  E(UM062X) =  -579.697364480     A.U. after   12 cycles
 SCF Done:  E(UM062X) =  -579.697429313     A.U. after   12 cycles
 SCF Done:  E(UM062X) =  -579.697466738     A.U. after   12 cycles
 SCF Done:  E(UM062X) =  -579.697512506     A.U. after   12 cycles
 SCF Done:  E(UM062X) =  -579.697532085     A.U. after   12 cycles
 SCF Done:  E(UM062X) =  -579.697535925     A.U. after   10 cycles
 SCF Done:  E(UM062X) =  -579.697536005     A.U. after    9 cycles
 Optimization completed.
    -- Stationary point found.

                          Input orientation:
 ---------------------------------------------------------------------
 Center     Atomic      Atomic             Coordinates (Angstroms)
 Number     Number       Type             X           Y           Z
 ---------------------------------------------------------------------
      1         14           0       -1.777975    0.000000    0.000000
      2         14           0        1.777975    0.000000    0.000000
      3          1           0       -1.940968   -1.497200   -0.000001
      4          1           0        1.940889    1.497203   -0.000001
 ---------------------------------------------------------------------

 Alpha  occ. eigenvalues --  -67.27126 -67.27125  -5.81295  -5.81294  -4.12404
 Alpha  occ. eigenvalues --   -4.12403  -4.12328  -4.12328  -4.11668  -4.11668
 Alpha  occ. eigenvalues --   -0.77006  -0.75361  -0.53354  -0.52931  -0.43546
 Alpha virt. eigenvalues --   -0.29077  -0.26836  -0.26824  -0.11646  -0.10180
 Alpha virt. eigenvalues --   -0.08927  -0.08621  -0.08143  -0.07241  -0.05742
 Alpha virt. eigenvalues --   -0.05715  -0.05577  -0.02944   0.12569   0.14131

  Beta  occ. eigenvalues --  -67.26860 -67.26860  -5.81209  -5.81207  -4.12261
  Beta  occ. eigenvalues --   -4.12261  -4.11729  -4.11729  -4.11519  -4.11519
  Beta  occ. eigenvalues --   -0.75009  -0.73632  -0.52869  -0.51704
  Beta virt. eigenvalues --   -0.29095  -0.28602  -0.26276  -0.22018  -0.13016
  Beta virt. eigenvalues --   -0.10339  -0.08905  -0.08873  -0.08243  -0.06915
  Beta virt. eigenvalues --   -0.05635  -0.05457  -0.05348  -0.02680   0.11376

 Mulliken charges and spin densities:
               1          2
     1  Si   0.573627   0.510749
     2  Si   0.573635   0.510737
     3  H   -0.073630  -0.010743
     4  H   -0.073632  -0.010743
 Sum of Mulliken charges =   1.00000   1.00000

 Dipole moment (field-independent basis, Debye):
    X=              0.0000    Y=              0.0000    Z=             -0.0000  Tot=              0.0000
 Quadrupole moment (field-independent basis, Debye-Ang):
   XX=             -4.3619   YY=            -27.3466   ZZ=            -19.7209
   XY=              1.8221   XZ=             -0.0000   YZ=              0.0000

 Normal termination of Gaussian 16 at Mon Apr 21 20:36:11 2025.
