 Gaussian 16, Revision A.03,
 Gaussian 16:  ES64L-G16RevA.03 25-Dec-2016

 ---------------------------------------
 #p UM062X/6-311+G** force int=superfine
 ---------------------------------------

 -------------------
 Title Card Required
 -------------------
 Symbolic Z-matrix:
 Charge =  1 Multiplicity = 2

                         Standard orientation:
 ---------------------------------------------------------------------
 Center     Atomic      Atomic             Coordinates (Angstroms)
 Number     Number       Type             X           Y           Z
 ---------------------------------------------------------------------
      1          6           0        0.000000    0.706892    0.000000
      2          6           0       -0.000000   -0.706892    0.000000
      3          1           0        0.934615    1.260922   -0.000000
      4          1           0       -0.934914    1.260455    0.000000
      5          1           0       -0.934615   -1.260922    0.000000
      6          1           0        0.934914   -1.260455   -0.000000
 ---------------------------------------------------------------------

 SCF Done:  E(UM062X) =  -78.1841766690     A.U. after    9 cycles

 The electronic state is 2-AU.
 Alpha  occ. eigenvalues --  -10.89605 -10.89527  -1.18479  -0.97739  -0.84743
 Alpha  occ. eigenvalues --   -0.79499  -0.72847  -0.66701
 Alpha virt. eigenvalues --   -0.29462  -0.14690  -0.12632  -0.12451  -0.09709
 Alpha virt. eigenvalues --   -0.07773  -0.06884  -0.04808  -0.04464  -0.02520
 Alpha virt. eigenvalues --   -0.00545   0.01921   0.07480   0.10795   0.20334

  Beta  occ. eigenvalues --  -10.89374 -10.89310  -1.14501  -0.95814  -0.83635
  Beta  occ. eigenvalues --   -0.78554  -0.72527
  Beta virt. eigenvalues --   -0.42115  -0.22382  -0.16443  -0.12579  -0.12578
  Beta virt. eigenvalues --   -0.10211  -0.08644  -0.06945  -0.04768  -0.03668
  Beta virt. eigenvalues --   -0.02027  -0.00862   0.02222   0.08883   0.11254

 Mulliken charges and spin densities:
               1          2
     1  C   -0.052080   0.537724
     2  C   -0.052080   0.537724
     3  H    0.276064  -0.018858
     4  H    0.276016  -0.018865
     5  H    0.276064  -0.018858
     6  H    0.276016  -0.018865
 Sum of Mulliken charges =   1.00000   1.00000

 Dipole moment (field-independent basis, Debye):
    X=             -0.0000    Y=             -0.0000    Z=             -0.0000  Tot=              0.0000
 Quadrupole moment (field-independent basis, Debye-Ang):
   XX=             -8.4646   YY=             -5.5379   ZZ=            -11.4955
   XY=              0.0010   XZ=             -0.0000   YZ=             -0.0000

 Optimization completed.
    -- Stationary point found.
 Normal termination of Gaussian 16 at Tue Nov 19 11:54:06 2024.
