 Gaussian 16, Revision A.03,
 Gaussian 16:  ES64L-G16RevA.03 25-Dec-2016

 --------------------------------------------
 #p opt UM062X/6-311+G** nosymm int=superfine
 --------------------------------------------

 -------------------
 Title Card Required
 -------------------
 Symbolic Z-matrix:
 Charge =  0 Multiplicity = 1

 SCF Done:  E(UM062X) =  -92.8710715981     A.U. after   14 cycles
 SCF Done:  E(UM062X) =  -92.8729886691     A.U. after   11 cycles
 SCF Done:  E(UM062X) =  -92.8729993650     A.U. after    8 cycles
 Optimization completed.
    -- Stationary point found.

                          Input orientation:
 ---------------------------------------------------------------------
 Center     Atomic      Atomic             Coordinates (Angstroms)
 Number     Number       Type             X           Y           Z
 ---------------------------------------------------------------------
      1          6           0       -1.347395    0.000000    0.000000
      2          7           0        1.347395    0.000000    0.000000
      3          1           0       -2.472175    0.000000    0.000000
 ---------------------------------------------------------------------

 Alpha  occ. eigenvalues --  -14.84524 -10.75253  -0.79665  -0.77898  -0.44343
 Alpha  occ. eigenvalues --   -0.28645  -0.28645
 Alpha virt. eigenvalues --   -0.16258  -0.16258  -0.08876   0.00611   0.07040
 Alpha virt. eigenvalues --    0.07040   0.07229   0.13177   0.17083   0.17083
 Alpha virt. eigenvalues --    0.17653   0.25563   0.43684   0.52789   0.52789

  Beta  occ. eigenvalues --  -14.84524 -10.75253  -0.79665  -0.77898  -0.44343
  Beta  occ. eigenvalues --   -0.28645  -0.28645
  Beta virt. eigenvalues --   -0.16258  -0.16258  -0.08876   0.00611   0.07040
  Beta virt. eigenvalues --    0.07040   0.07229   0.13177   0.17083   0.17083
  Beta virt. eigenvalues --    0.17653   0.25563   0.43684   0.52789   0.52789

 Mulliken charges and spin densities:
               1          2
     1  C   -0.015297   0.000000
     2  N   -0.172698  -0.000000
     3  H    0.187995  -0.000000
 Sum of Mulliken charges =  -0.00000   0.00000

 Dipole moment (field-independent basis, Debye):
    X=             -4.4994    Y=              0.0000    Z=              0.0000  Tot=              4.4994
 Quadrupole moment (field-independent basis, Debye-Ang):
   XX=             -5.6963   YY=            -14.2952   ZZ=            -14.2952
   XY=             -0.0000   XZ=             -0.0000   YZ=              0.0000

 Normal termination of Gaussian 16 at Mon Apr 21 18:38:32 2025.
