 Gaussian 16, Revision A.03,
 Gaussian 16:  ES64L-G16RevA.03 25-Dec-2016

 --------------------------------------------
 #p opt UM062X/6-311+G** nosymm int=superfine
 --------------------------------------------

 -------------------
 Title Card Required
 -------------------
 Symbolic Z-matrix:
 Charge =  0 Multiplicity = 1

 SCF Done:  E(UM062X) =  -151.318107051     A.U. after   22 cycles
 SCF Done:  E(UM062X) =  -151.319025934     A.U. after   26 cycles
 SCF Done:  E(UM062X) =  -151.320941312     A.U. after   18 cycles
 SCF Done:  E(UM062X) =  -151.321698265     A.U. after   22 cycles
 SCF Done:  E(UM062X) =  -151.322008879     A.U. after   20 cycles
 SCF Done:  E(UM062X) =  -151.322026872     A.U. after   21 cycles
 SCF Done:  E(UM062X) =  -151.322027547     A.U. after   14 cycles
 SCF Done:  E(UM062X) =  -151.322027637     A.U. after   15 cycles
 SCF Done:  E(UM062X) =  -151.322027652     A.U. after   17 cycles
 Optimization completed.
    -- Stationary point found.

                          Input orientation:
 ---------------------------------------------------------------------
 Center     Atomic      Atomic             Coordinates (Angstroms)
 Number     Number       Type             X           Y           Z
 ---------------------------------------------------------------------
      1          8           0       -1.686938    0.000000    0.000000
      2          8           0        1.686938    0.000000    0.000000
      3          1           0       -1.485228   -0.763916   -0.569800
      4          1           0        1.485383    0.763819    0.569984
 ---------------------------------------------------------------------

 Alpha  occ. eigenvalues --  -19.72607 -19.72606  -1.13127  -1.12787  -0.56908
 Alpha  occ. eigenvalues --   -0.56664  -0.44348  -0.44067  -0.37051
 Alpha virt. eigenvalues --   -0.26412   0.05117   0.07857   0.14860   0.15007
 Alpha virt. eigenvalues --    0.17561   0.18629   0.20239   0.20929   0.21330
 Alpha virt. eigenvalues --    0.31129   0.48688   0.52045   0.99712   1.00924

  Beta  occ. eigenvalues --  -19.72607 -19.72606  -1.13127  -1.12787  -0.56908
  Beta  occ. eigenvalues --   -0.56664  -0.44348  -0.44067  -0.37051
  Beta virt. eigenvalues --   -0.26412   0.05117   0.07857   0.14860   0.15007
  Beta virt. eigenvalues --    0.17561   0.18629   0.20239   0.20929   0.21330
  Beta virt. eigenvalues --    0.31129   0.48688   0.52045   0.99712   1.00924

 Mulliken charges and spin densities:
               1          2
     1  O   -0.268382  -0.000000
     2  O   -0.268397   0.000000
     3  H    0.268391  -0.000000
     4  H    0.268388  -0.000000
 Sum of Mulliken charges =  -0.00000  -0.00000

 Dipole moment (field-independent basis, Debye):
    X=              0.0002    Y=             -0.0002    Z=              0.0004  Tot=              0.0005
 Quadrupole moment (field-independent basis, Debye-Ang):
   XX=            -13.2039   YY=            -10.5244   ZZ=            -11.9628
   XY=              4.6642   XZ=              3.4797   YZ=              2.4202

 Normal termination of Gaussian 16 at Mon Apr 21 21:37:06 2025.
