 Gaussian 16, Revision A.03,
 Gaussian 16:  ES64L-G16RevA.03 25-Dec-2016

 -------------------------------------------------------------------
 #p opt UM062X/6-311+G** nosymm int=superfine SCF=NoVarAcc SCF=tight
 -------------------------------------------------------------------

 -------------------
 Title Card Required
 -------------------
 Symbolic Z-matrix:
 Charge =  1 Multiplicity = 2

 SCF Done:  E(UM062X) =  -77.8897715649     A.U. after   15 cycles
 SCF Done:  E(UM062X) =  -77.8937076028     A.U. after   11 cycles
 SCF Done:  E(UM062X) =  -77.8965038890     A.U. after   10 cycles
 SCF Done:  E(UM062X) =  -77.8965083533     A.U. after    8 cycles
 Optimization completed.
    -- Stationary point found.

                          Input orientation:
 ---------------------------------------------------------------------
 Center     Atomic      Atomic             Coordinates (Angstroms)
 Number     Number       Type             X           Y           Z
 ---------------------------------------------------------------------
      1          6           0       -9.606027    0.000000    0.000000
      2          6           0        9.606027    0.000000    0.000000
      3          1           0      -10.168857   -0.941546   -0.000000
      4          1           0      -10.168791    0.941584   -0.000000
      5          1           0       10.168857    0.941546    0.000000
      6          1           0       10.168791   -0.941584    0.000000
 ---------------------------------------------------------------------

 Alpha  occ. eigenvalues --  -10.84226 -10.84226  -0.95847  -0.95847  -0.70485
 Alpha  occ. eigenvalues --   -0.70485  -0.53203  -0.53203
 Alpha virt. eigenvalues --   -0.27510  -0.27510  -0.08411  -0.08411  -0.04042
 Alpha virt. eigenvalues --   -0.04042  -0.02255  -0.02255  -0.02004  -0.02004
 Alpha virt. eigenvalues --    0.03993   0.03993   0.04719   0.04719   0.31119

  Beta  occ. eigenvalues --  -10.83500 -10.83500  -0.93720  -0.93718  -0.69485
  Beta  occ. eigenvalues --   -0.69485  -0.38333
  Beta virt. eigenvalues --   -0.36801  -0.25923  -0.25923  -0.08713  -0.08712
  Beta virt. eigenvalues --   -0.04546  -0.04546  -0.02742  -0.02742  -0.02308
  Beta virt. eigenvalues --   -0.02308   0.04051   0.04051   0.05193   0.05194

 Mulliken charges and spin densities:
               1          2
     1  C    0.043252   0.486291
     2  C    0.043252   0.486291
     3  H    0.228374   0.006855
     4  H    0.228374   0.006855
     5  H    0.228374   0.006855
     6  H    0.228374   0.006855
 Sum of Mulliken charges =   1.00000   1.00000

 Dipole moment (field-independent basis, Debye):
    X=              0.0000    Y=             -0.0000    Z=             -0.0000  Tot=              0.0000
 Quadrupole moment (field-independent basis, Debye-Ang):
   XX=            494.4536   YY=             -9.5143   ZZ=            -10.6503
   XY=             -0.0010   XZ=              0.0000   YZ=              0.0000

 Normal termination of Gaussian 16 at Tue Dec  3 15:49:21 2024.
