 Gaussian 16, Revision A.03,
 Gaussian 16:  ES64L-G16RevA.03 25-Dec-2016

 ---------------------------------------
 #p UM062X/6-311+G** force int=superfine
 ---------------------------------------

 -------------------
 Title Card Required
 -------------------
 Symbolic Z-matrix:
 Charge =  1 Multiplicity = 2

                         Standard orientation:
 ---------------------------------------------------------------------
 Center     Atomic      Atomic             Coordinates (Angstroms)
 Number     Number       Type             X           Y           Z
 ---------------------------------------------------------------------
      1          6           0        0.000000    0.508962    0.000000
      2          6           0       -0.000000   -0.508962    0.000000
      3          1           0       -0.828576    1.282213    0.000000
      4          1           0        0.839051    1.273517    0.000000
      5          1           0        0.828576   -1.282213    0.000000
      6          1           0       -0.839051   -1.273517    0.000000
 ---------------------------------------------------------------------

 SCF Done:  E(UM062X) =  -77.9598890444     A.U. after    9 cycles

 The electronic state is 2-AG.
 Alpha  occ. eigenvalues --  -10.81593 -10.80452  -1.23941  -0.97041  -0.87268
 Alpha  occ. eigenvalues --   -0.86672  -0.70817  -0.65902
 Alpha virt. eigenvalues --   -0.16821  -0.16782  -0.15169  -0.13773  -0.10550
 Alpha virt. eigenvalues --   -0.08811  -0.07450  -0.06724  -0.02696  -0.02530
 Alpha virt. eigenvalues --   -0.00125   0.02549   0.13287   0.17501   0.19575

  Beta  occ. eigenvalues --  -10.81606 -10.80448  -1.22894  -0.92258  -0.84239
  Beta  occ. eigenvalues --   -0.81567  -0.70515
  Beta virt. eigenvalues --   -0.45121  -0.16581  -0.15627  -0.15054  -0.13524
  Beta virt. eigenvalues --   -0.10364  -0.08701  -0.05147  -0.04826  -0.02446
  Beta virt. eigenvalues --   -0.01740   0.00300   0.03324   0.13403   0.17361

 Mulliken charges and spin densities:
               1          2
     1  C   -0.154189   0.110469
     2  C   -0.154189   0.110469
     3  H    0.326980   0.192662
     4  H    0.327210   0.196868
     5  H    0.326980   0.192662
     6  H    0.327210   0.196868
 Sum of Mulliken charges =   1.00000   1.00000

 Dipole moment (field-independent basis, Debye):
    X=             -0.0000    Y=              0.0000    Z=              0.0000  Tot=              0.0000
 Quadrupole moment (field-independent basis, Debye-Ang):
   XX=             -7.4522   YY=             -2.4463   ZZ=            -12.5317
   XY=              0.0256   XZ=              0.0000   YZ=              0.0000

 Normal termination of Gaussian 16 at Tue Nov 19 11:52:31 2024.
