 Gaussian 16, Revision A.03,
 Gaussian 16:  ES64L-G16RevA.03 25-Dec-2016

 --------------------------------------------
 #p opt UM062X/6-311+G** nosymm int=superfine
 --------------------------------------------

 -------------------
 Title Card Required
 -------------------
 Symbolic Z-matrix:
 Charge =  0 Multiplicity = 1

 SCF Done:  E(UM062X) =  -78.2776991781     A.U. after    8 cycles
 SCF Done:  E(UM062X) =  -78.2779255888     A.U. after    8 cycles
 SCF Done:  E(UM062X) =  -78.2780237052     A.U. after    8 cycles
 Optimization completed.
    -- Stationary point found.

                          Input orientation:
 ---------------------------------------------------------------------
 Center     Atomic      Atomic             Coordinates (Angstroms)
 Number     Number       Type             X           Y           Z
 ---------------------------------------------------------------------
      1          6           0       -1.185595    0.000000    0.000000
      2          6           0        1.185595    0.000000    0.000000
      3          1           0       -1.609935   -0.990453   -0.000000
      4          1           0       -1.609933    0.990451    0.000000
      5          1           0        1.609935    0.990453   -0.000000
      6          1           0        1.609933   -0.990451    0.000000
 ---------------------------------------------------------------------

 Alpha  occ. eigenvalues --  -10.62438 -10.62430  -0.76300  -0.73038  -0.53349
 Alpha  occ. eigenvalues --   -0.51824  -0.33594  -0.24419
 Alpha virt. eigenvalues --   -0.09321  -0.03407   0.03372   0.05333   0.05930
 Alpha virt. eigenvalues --    0.07085   0.09368   0.10108   0.11205   0.14691
 Alpha virt. eigenvalues --    0.16305   0.19346   0.21473   0.27434   0.39223

  Beta  occ. eigenvalues --  -10.62438 -10.62430  -0.76300  -0.73038  -0.53349
  Beta  occ. eigenvalues --   -0.51824  -0.33594  -0.24419
  Beta virt. eigenvalues --   -0.09321  -0.03407   0.03372   0.05333   0.05930
  Beta virt. eigenvalues --    0.07085   0.09368   0.10108   0.11205   0.14691
  Beta virt. eigenvalues --    0.16305   0.19346   0.21473   0.27434   0.39223

 Mulliken charges and spin densities:
               1          2
     1  C   -0.376948   0.000000
     2  C   -0.376948  -0.000000
     3  H    0.188474  -0.000000
     4  H    0.188474  -0.000000
     5  H    0.188474   0.000000
     6  H    0.188474   0.000000
 Sum of Mulliken charges =  -0.00000  -0.00000

 Dipole moment (field-independent basis, Debye):
    X=             -0.0000    Y=              0.0000    Z=             -0.0000  Tot=              0.0000
 Quadrupole moment (field-independent basis, Debye-Ang):
   XX=            -10.5469   YY=            -11.9489   ZZ=            -18.7611
   XY=              0.0000   XZ=              0.0000   YZ=             -0.0000

 Normal termination of Gaussian 16 at Tue Dec  3 11:05:29 2024.
