 Gaussian 16, Revision A.03,
 Gaussian 16:  ES64L-G16RevA.03 25-Dec-2016

 ---------------------------------------
 #p UM062X/6-311+G** force int=superfine
 ---------------------------------------

 -------------------
 Title Card Required
 -------------------
 Symbolic Z-matrix:
 Charge =  0 Multiplicity = 1

                         Standard orientation:
 ---------------------------------------------------------------------
 Center     Atomic      Atomic             Coordinates (Angstroms)
 Number     Number       Type             X           Y           Z
 ---------------------------------------------------------------------
      1          6           0       -0.000000    0.550184    0.000000
      2          6           0       -0.000000   -0.550184    0.000000
      3          1           0       -0.901133    1.164786    0.000000
      4          1           0        0.901179    1.164761    0.000000
      5          1           0        0.901133   -1.164786    0.000000
      6          1           0       -0.901179   -1.164761    0.000000
 ---------------------------------------------------------------------

 SCF Done:  E(UM062X) =  -78.4735540266     A.U. after    8 cycles

 The electronic state is 1-AG.
 Alpha  occ. eigenvalues --  -10.50274 -10.49696  -0.91841  -0.64008  -0.56518
 Alpha  occ. eigenvalues --   -0.51760  -0.38642  -0.37250
 Alpha virt. eigenvalues --    0.03369   0.04233   0.04685   0.05981   0.07057
 Alpha virt. eigenvalues --    0.08614   0.09791   0.16118   0.16649   0.17925
 Alpha virt. eigenvalues --    0.18815   0.24405   0.33324   0.40347   0.43721

  Beta  occ. eigenvalues --  -10.50274 -10.49696  -0.91841  -0.64008  -0.56518
  Beta  occ. eigenvalues --   -0.51760  -0.38642  -0.37250
  Beta virt. eigenvalues --    0.03369   0.04233   0.04685   0.05981   0.07057
  Beta virt. eigenvalues --    0.08614   0.09791   0.16118   0.16649   0.17925
  Beta virt. eigenvalues --    0.18815   0.24405   0.33324   0.40347   0.43721

 Mulliken charges and spin densities:
               1          2
     1  C   -0.268795  -0.000000
     2  C   -0.268795  -0.000000
     3  H    0.134400   0.000000
     4  H    0.134394  -0.000000
     5  H    0.134400   0.000000
     6  H    0.134394  -0.000000
 Sum of Mulliken charges =   0.00000  -0.00000

 Dipole moment (field-independent basis, Debye):
    X=             -0.0000    Y=             -0.0000    Z=              0.0000  Tot=              0.0000
 Quadrupole moment (field-independent basis, Debye-Ang):
   XX=            -12.3521   YY=            -12.4498   ZZ=            -14.8479
   XY=             -0.0001   XZ=              0.0000   YZ=              0.0000

 Normal termination of Gaussian 16 at Tue Nov 19 11:42:22 2024.
