 Gaussian 16, Revision A.03,
 Gaussian 16:  ES64L-G16RevA.03 25-Dec-2016

 --------------------------------------------
 #p opt UM062X/6-311+G** nosymm int=superfine
 --------------------------------------------

 -------------------
 Title Card Required
 -------------------
 Symbolic Z-matrix:
 Charge =  0 Multiplicity = 1

 SCF Done:  E(UM062X) =  -685.008519526     A.U. after   11 cycles
 SCF Done:  E(UM062X) =  -685.010454563     A.U. after   10 cycles
 SCF Done:  E(UM062X) =  -685.011025798     A.U. after   10 cycles
 SCF Done:  E(UM062X) =  -685.011057774     A.U. after    9 cycles
 SCF Done:  E(UM062X) =  -685.011069527     A.U. after    9 cycles
 SCF Done:  E(UM062X) =  -685.011078050     A.U. after    9 cycles
 SCF Done:  E(UM062X) =  -685.011094729     A.U. after   10 cycles
 SCF Done:  E(UM062X) =  -685.011135507     A.U. after   10 cycles
 SCF Done:  E(UM062X) =  -685.011272398     A.U. after   12 cycles
 SCF Done:  E(UM062X) =  -685.011305237     A.U. after   10 cycles
 SCF Done:  E(UM062X) =  -685.011275809     A.U. after   10 cycles
 SCF Done:  E(UM062X) =  -685.011323663     A.U. after    9 cycles
 SCF Done:  E(UM062X) =  -685.011316272     A.U. after   10 cycles
 SCF Done:  E(UM062X) =  -685.011331095     A.U. after    9 cycles
 SCF Done:  E(UM062X) =  -685.011327410     A.U. after    9 cycles
 SCF Done:  E(UM062X) =  -685.011267445     A.U. after   10 cycles
 SCF Done:  E(UM062X) =  -685.011330165     A.U. after    9 cycles
 SCF Done:  E(UM062X) =  -685.011331903     A.U. after    4 cycles
 SCF Done:  E(UM062X) =  -685.011332471     A.U. after    8 cycles
 SCF Done:  E(UM062X) =  -685.011332510     A.U. after    7 cycles
 Optimization completed.
    -- Stationary point found.

                          Input orientation:
 ---------------------------------------------------------------------
 Center     Atomic      Atomic             Coordinates (Angstroms)
 Number     Number       Type             X           Y           Z
 ---------------------------------------------------------------------
      1         15           0       -1.467217    0.000000    0.000000
      2         15           0        1.467217    0.000000    0.000000
      3          1           0        1.462514   -0.952381    1.050227
      4          1           0       -1.462640    1.014909    0.990059
      5          1           0        1.462580   -1.014598   -0.990367
      6          1           0       -1.462528    0.952060   -1.050514
 ---------------------------------------------------------------------

 Alpha  occ. eigenvalues --  -78.04236 -78.04236  -6.86598  -6.86597  -4.98142
 Alpha  occ. eigenvalues --   -4.98140  -4.98060  -4.98060  -4.97867  -4.97867
 Alpha  occ. eigenvalues --   -0.72375  -0.69121  -0.45501  -0.43860  -0.36579
 Alpha  occ. eigenvalues --   -0.35754  -0.29069
 Alpha virt. eigenvalues --   -0.07473   0.01446   0.03273   0.03364   0.04194
 Alpha virt. eigenvalues --    0.04666   0.05270   0.06231   0.06408   0.06838
 Alpha virt. eigenvalues --    0.09200   0.16593   0.18803   0.28430   0.28754

  Beta  occ. eigenvalues --  -78.04236 -78.04236  -6.86598  -6.86597  -4.98142
  Beta  occ. eigenvalues --   -4.98140  -4.98060  -4.98060  -4.97867  -4.97867
  Beta  occ. eigenvalues --   -0.72375  -0.69121  -0.45501  -0.43860  -0.36579
  Beta  occ. eigenvalues --   -0.35754  -0.29069
  Beta virt. eigenvalues --   -0.07473   0.01446   0.03273   0.03364   0.04194
  Beta virt. eigenvalues --    0.04666   0.05270   0.06231   0.06408   0.06838
  Beta virt. eigenvalues --    0.09200   0.16593   0.18803   0.28430   0.28754

 Mulliken charges and spin densities:
               1          2
     1  P   -0.044612   0.000000
     2  P   -0.044604   0.000000
     3  H    0.022306   0.000000
     4  H    0.022306  -0.000000
     5  H    0.022303  -0.000000
     6  H    0.022302   0.000000
 Sum of Mulliken charges =  -0.00000   0.00000

 Dipole moment (field-independent basis, Debye):
    X=              0.0000    Y=             -0.0000    Z=             -0.0002  Tot=              0.0002
 Quadrupole moment (field-independent basis, Debye-Ang):
   XX=            -30.2425   YY=            -30.9584   ZZ=            -28.1477
   XY=             -3.5776   XZ=              0.1097   YZ=              0.0861

 Normal termination of Gaussian 16 at Mon Apr 21 20:49:23 2025.
