 Gaussian 16, Revision A.03,
 Gaussian 16:  ES64L-G16RevA.03 25-Dec-2016

 --------------------------------------------
 #p opt UM062X/6-311+G** nosymm int=superfine
 --------------------------------------------

 -------------------
 Title Card Required
 -------------------
 Symbolic Z-matrix:
 Charge =  0 Multiplicity = 1

 SCF Done:  E(UM062X) =  -92.8285777108     A.U. after   14 cycles
 SCF Done:  E(UM062X) =  -92.8305497906     A.U. after   11 cycles
 SCF Done:  E(UM062X) =  -92.8305605742     A.U. after    8 cycles
 Optimization completed.
    -- Stationary point found.

                          Input orientation:
 ---------------------------------------------------------------------
 Center     Atomic      Atomic             Coordinates (Angstroms)
 Number     Number       Type             X           Y           Z
 ---------------------------------------------------------------------
      1          6           0       -1.747395    0.000000    0.000000
      2          7           0        1.747395    0.000000    0.000000
      3          1           0       -2.872969   -0.000000    0.000000
 ---------------------------------------------------------------------

 Alpha  occ. eigenvalues --  -14.81958 -10.76230  -0.80166  -0.76604  -0.45304
 Alpha  occ. eigenvalues --   -0.26572  -0.26572
 Alpha virt. eigenvalues --   -0.17979  -0.17979  -0.08164   0.00002   0.06429
 Alpha virt. eigenvalues --    0.06429   0.07851   0.12737   0.16208   0.17306
 Alpha virt. eigenvalues --    0.17306   0.23808   0.42100   0.52100   0.52100

  Beta  occ. eigenvalues --  -14.81958 -10.76230  -0.80166  -0.76604  -0.45304
  Beta  occ. eigenvalues --   -0.26572  -0.26572
  Beta virt. eigenvalues --   -0.17979  -0.17979  -0.08164   0.00002   0.06429
  Beta virt. eigenvalues --    0.06429   0.07851   0.12737   0.16208   0.17306
  Beta virt. eigenvalues --    0.17306   0.23808   0.42100   0.52100   0.52100

 Mulliken charges and spin densities:
               1          2
     1  C    0.067132  -0.000001
     2  N   -0.242102   0.000001
     3  H    0.174970   0.000000
 Sum of Mulliken charges =  -0.00000  -0.00000

 Dipole moment (field-independent basis, Debye):
    X=             -5.9761    Y=             -0.0000    Z=              0.0000  Tot=              5.9761
 Quadrupole moment (field-independent basis, Debye-Ang):
   XX=             -4.6870   YY=            -14.2635   ZZ=            -14.2635
   XY=              0.0000   XZ=             -0.0000   YZ=             -0.0000

 Normal termination of Gaussian 16 at Mon Apr 21 18:34:21 2025.
