 Gaussian 16, Revision A.03,
 Gaussian 16:  ES64L-G16RevA.03 25-Dec-2016

 ---------------------------------------
 #p UM062X/6-311+G** force int=superfine
 ---------------------------------------

 -------------------
 Title Card Required
 -------------------
 Symbolic Z-matrix:
 Charge =  0 Multiplicity = 1

                         Standard orientation:
 ---------------------------------------------------------------------
 Center     Atomic      Atomic             Coordinates (Angstroms)
 Number     Number       Type             X           Y           Z
 ---------------------------------------------------------------------
      1          6           0        0.549782    0.000010    0.000007
      2          6           0       -0.549782   -0.000010   -0.000008
      3          1           0       -1.051678   -0.958888   -0.237569
      4          1           0        1.051696   -0.685193    0.711618
      5          1           0       -1.051696    0.685194   -0.711616
      6          1           0       -1.051728    0.273701    0.949178
      7          1           0        1.051678    0.958888    0.237571
      8          1           0        1.051728   -0.273703   -0.949177
 ---------------------------------------------------------------------

 SCF Done:  E(UM062X) =  -79.5905744157     A.U. after    9 cycles

 The electronic state is 1-A.
 Alpha  occ. eigenvalues --  -10.49891 -10.49317  -0.96079  -0.67488  -0.55734
 Alpha  occ. eigenvalues --   -0.55733  -0.52350  -0.34238  -0.34236
 Alpha virt. eigenvalues --    0.02018   0.04172   0.04576   0.04576   0.08600
 Alpha virt. eigenvalues --    0.09000   0.09000   0.14271   0.18422   0.18423
 Alpha virt. eigenvalues --    0.20173   0.20174   0.23957   0.27796   0.39771

  Beta  occ. eigenvalues --  -10.49891 -10.49317  -0.96079  -0.67488  -0.55734
  Beta  occ. eigenvalues --   -0.55733  -0.52350  -0.34238  -0.34236
  Beta virt. eigenvalues --    0.02018   0.04172   0.04576   0.04576   0.08600
  Beta virt. eigenvalues --    0.09000   0.09000   0.14271   0.18422   0.18423
  Beta virt. eigenvalues --    0.20173   0.20174   0.23957   0.27796   0.39771

 Mulliken charges and spin densities:
               1          2
     1  C   -0.420488  -0.000000
     2  C   -0.420488   0.000000
     3  H    0.140163   0.000000
     4  H    0.140162   0.000000
     5  H    0.140162   0.000000
     6  H    0.140163   0.000000
     7  H    0.140163   0.000000
     8  H    0.140163   0.000000
 Sum of Mulliken charges =  -0.00000  -0.00000

 Dipole moment (field-independent basis, Debye):
    X=             -0.0000    Y=             -0.0000    Z=              0.0000  Tot=              0.0000
 Quadrupole moment (field-independent basis, Debye-Ang):
   XX=            -15.6646   YY=            -14.9429   ZZ=            -14.9432
   XY=             -0.0000   XZ=             -0.0001   YZ=              0.0000

 Normal termination of Gaussian 16 at Tue Nov 19 12:36:59 2024.
