 Gaussian 16, Revision A.03,
 Gaussian 16:  ES64L-G16RevA.03 25-Dec-2016

 ---------------------------------------------------
 #p UM062X/6-311+G** force int=superfine pop=saveNBO
 ---------------------------------------------------

 -------------------
 Title Card Required
 -------------------
 Symbolic Z-matrix:
 Charge =  0 Multiplicity = 1

                         Standard orientation:
 ---------------------------------------------------------------------
 Center     Atomic      Atomic             Coordinates (Angstroms)
 Number     Number       Type             X           Y           Z
 ---------------------------------------------------------------------
      1         16           0        0.000000    0.000000    1.225200
      2         16           0        0.000000    0.000000   -1.225200
 ---------------------------------------------------------------------

 SCF Done:  E(UM062X) =  -796.226135189     A.U. after    9 cycles

 Unable to determine electronic state:  partially filled degenerate orbitals.
 Alpha  occ. eigenvalues --  -89.98413 -89.98413  -8.34140  -8.34136  -6.26203
 Alpha  occ. eigenvalues --   -6.26203  -6.26144  -6.26140  -6.25344  -6.25344
 Alpha  occ. eigenvalues --   -0.82989  -0.73935  -0.40935  -0.37447  -0.35779
 Alpha  occ. eigenvalues --   -0.31568
 Alpha virt. eigenvalues --   -0.19384  -0.10257   0.03147   0.04117   0.04867
 Alpha virt. eigenvalues --    0.05525   0.07310   0.07521   0.08048   0.14377
 Alpha virt. eigenvalues --    0.31630   0.32633   0.33725   0.34685   0.35988

  Beta  occ. eigenvalues --  -89.98413 -89.98413  -8.34140  -8.34136  -6.26203
  Beta  occ. eigenvalues --   -6.26203  -6.26144  -6.26140  -6.25344  -6.25344
  Beta  occ. eigenvalues --   -0.82989  -0.73935  -0.40935  -0.37447  -0.35779
  Beta  occ. eigenvalues --   -0.31568
  Beta virt. eigenvalues --   -0.19384  -0.10257   0.03147   0.04117   0.04867
  Beta virt. eigenvalues --    0.05525   0.07310   0.07521   0.08048   0.14377
  Beta virt. eigenvalues --    0.31630   0.32633   0.33725   0.34685   0.35988

 Mulliken charges and spin densities:
               1          2
     1  S   -0.000000  -0.000000
     2  S   -0.000000  -0.000000
 Sum of Mulliken charges =  -0.00000  -0.00000

 Dipole moment (field-independent basis, Debye):
    X=              0.0000    Y=              0.0000    Z=              0.0000  Tot=              0.0000
 Quadrupole moment (field-independent basis, Debye-Ang):
   XX=            -29.7884   YY=            -24.8635   ZZ=            -23.7634
   XY=              0.0000   XZ=              0.0000   YZ=              0.0000

 Summary of Natural Population Analysis:

                                       Natural Population
                Natural  -----------------------------------------------
    Atom  No    Charge         Core      Valence    Rydberg      Total
 -----------------------------------------------------------------------
      S    1    0.00000      4.99997     2.99510    0.00493     8.00000
      S    2    0.00000      4.99997     2.99510    0.00493     8.00000
 =======================================================================
   * Total *    0.00000      9.99994     5.99019    0.00986    16.00000

 Normal termination of Gaussian 16 at Mon Apr 21 20:02:57 2025.
