 Gaussian 16, Revision A.03,
 Gaussian 16:  ES64L-G16RevA.03 25-Dec-2016

 --------------------------------------------
 #p opt UM062X/6-311+G** nosymm int=superfine
 --------------------------------------------

 -------------------
 Title Card Required
 -------------------
 Symbolic Z-matrix:
 Charge =  0 Multiplicity = 1

 SCF Done:  E(UM062X) =  -110.172995959     A.U. after   13 cycles
 SCF Done:  E(UM062X) =  -110.174809790     A.U. after   13 cycles
 SCF Done:  E(UM062X) =  -110.178486893     A.U. after   20 cycles
 SCF Done:  E(UM062X) =  -110.179894947     A.U. after   18 cycles
 SCF Done:  E(UM062X) =  -110.179906865     A.U. after   17 cycles
 SCF Done:  E(UM062X) =  -110.179907425     A.U. after   10 cycles
 Optimization completed.
    -- Stationary point found.

                          Input orientation:
 ---------------------------------------------------------------------
 Center     Atomic      Atomic             Coordinates (Angstroms)
 Number     Number       Type             X           Y           Z
 ---------------------------------------------------------------------
      1          7           0       -1.740428    0.000000    0.000000
      2          7           0        1.740428    0.000000    0.000000
      3          1           0       -1.505264   -1.012431   -0.000000
      4          1           0        1.505264    1.012431   -0.000000
 ---------------------------------------------------------------------

 Alpha  occ. eigenvalues --  -14.88484 -14.88482  -0.92851  -0.92277  -0.49134
 Alpha  occ. eigenvalues --   -0.48811  -0.31212  -0.30093
 Alpha virt. eigenvalues --   -0.21579  -0.20277   0.05044   0.07009   0.10771
 Alpha virt. eigenvalues --    0.11405   0.13140   0.14597   0.15378   0.17594
 Alpha virt. eigenvalues --    0.19108   0.22658   0.52646   0.54787   0.74205

  Beta  occ. eigenvalues --  -14.88484 -14.88482  -0.92851  -0.92277  -0.49134
  Beta  occ. eigenvalues --   -0.48811  -0.31212  -0.30093
  Beta virt. eigenvalues --   -0.21579  -0.20277   0.05044   0.07009   0.10771
  Beta virt. eigenvalues --    0.11405   0.13140   0.14597   0.15378   0.17594
  Beta virt. eigenvalues --    0.19108   0.22658   0.52646   0.54787   0.74205

 Mulliken charges and spin densities:
               1          2
     1  N   -0.235719  -0.000002
     2  N   -0.235719   0.000002
     3  H    0.235719   0.000000
     4  H    0.235719  -0.000000
 Sum of Mulliken charges =  -0.00000  -0.00000

 Dipole moment (field-independent basis, Debye):
    X=             -0.0000    Y=              0.0000    Z=             -0.0000  Tot=              0.0000
 Quadrupole moment (field-independent basis, Debye-Ang):
   XX=            -15.0176   YY=            -11.2953   ZZ=            -14.2020
   XY=              5.7135   XZ=              0.0000   YZ=              0.0000

 Normal termination of Gaussian 16 at Thu May 15 15:42:30 2025.
