 Gaussian 16, Revision A.03,
 Gaussian 16:  ES64L-G16RevA.03 25-Dec-2016

 --------------------------------------------
 #p opt UM062X/6-311+G** nosymm int=superfine
 --------------------------------------------

 -------------------
 Title Card Required
 -------------------
 Symbolic Z-matrix:
 Charge =  0 Multiplicity = 1

 SCF Done:  E(UM062X) =  -579.890139287     A.U. after   10 cycles
 SCF Done:  E(UM062X) =  -579.893142288     A.U. after    9 cycles
 SCF Done:  E(UM062X) =  -579.893149063     A.U. after    8 cycles
 Optimization completed.
    -- Stationary point found.

                          Input orientation:
 ---------------------------------------------------------------------
 Center     Atomic      Atomic             Coordinates (Angstroms)
 Number     Number       Type             X           Y           Z
 ---------------------------------------------------------------------
      1         14           0       -1.903705    0.000000    0.000000
      2         14           0        1.903705    0.000000    0.000000
      3          1           0       -3.431416   -0.000023    0.000000
      4          1           0        3.431416    0.000044   -0.000000
 ---------------------------------------------------------------------

 Alpha  occ. eigenvalues --  -67.04484 -67.04484  -5.58901  -5.58900  -3.90002
 Alpha  occ. eigenvalues --   -3.90001  -3.89554  -3.89554  -3.89418  -3.89418
 Alpha  occ. eigenvalues --   -0.55061  -0.54469  -0.34483  -0.30543  -0.18477
 Alpha virt. eigenvalues --   -0.10051  -0.09551  -0.07888   0.02302   0.02946
 Alpha virt. eigenvalues --    0.04557   0.05622   0.05748   0.05998   0.07088
 Alpha virt. eigenvalues --    0.07625   0.09153   0.18350   0.29227   0.29509

  Beta  occ. eigenvalues --  -67.04484 -67.04484  -5.58901  -5.58900  -3.90002
  Beta  occ. eigenvalues --   -3.90001  -3.89554  -3.89554  -3.89418  -3.89418
  Beta  occ. eigenvalues --   -0.55061  -0.54469  -0.34483  -0.30543  -0.18477
  Beta virt. eigenvalues --   -0.10051  -0.09551  -0.07888   0.02302   0.02946
  Beta virt. eigenvalues --    0.04557   0.05622   0.05748   0.05998   0.07088
  Beta virt. eigenvalues --    0.07625   0.09153   0.18350   0.29227   0.29509

 Mulliken charges and spin densities:
               1          2
     1  Si   0.144824   0.000000
     2  Si   0.144824  -0.000000
     3  H   -0.144824  -0.000000
     4  H   -0.144824   0.000000
 Sum of Mulliken charges =  -0.00000   0.00000

 Dipole moment (field-independent basis, Debye):
    X=             -0.0000    Y=              0.0000    Z=              0.0000  Tot=              0.0000
 Quadrupole moment (field-independent basis, Debye-Ang):
   XX=            -30.9659   YY=            -24.2560   ZZ=            -35.6280
   XY=             -0.0002   XZ=              0.0000   YZ=             -0.0004

 Normal termination of Gaussian 16 at Mon Apr 21 21:25:50 2025.
