 Gaussian 16, Revision A.03,
 Gaussian 16:  ES64L-G16RevA.03 25-Dec-2016

 --------------------------------------------
 #p opt UM062X/6-311+G** nosymm int=superfine
 --------------------------------------------

 -------------------
 Title Card Required
 -------------------
 Symbolic Z-matrix:
 Charge =  0 Multiplicity = 1

 SCF Done:  E(UM062X) =  -437.261475202     A.U. after   13 cycles
 SCF Done:  E(UM062X) =  -437.262238823     A.U. after   12 cycles
 SCF Done:  E(UM062X) =  -437.262632482     A.U. after   12 cycles
 SCF Done:  E(UM062X) =  -437.262572685     A.U. after   11 cycles
 SCF Done:  E(UM062X) =  -437.262634050     A.U. after   13 cycles
 Optimization completed.
    -- Stationary point found.

                          Input orientation:
 ---------------------------------------------------------------------
 Center     Atomic      Atomic             Coordinates (Angstroms)
 Number     Number       Type             X           Y           Z
 ---------------------------------------------------------------------
      1          6           0       -1.227140    0.000000    0.000000
      2         16           0        1.227140    0.000000    0.000000
      3          1           0       -1.727643   -0.962527    0.000208
      4          1           0       -1.727875    0.962407   -0.000008
 ---------------------------------------------------------------------

 Alpha  occ. eigenvalues --  -89.92457 -10.69126  -8.28183  -6.20422  -6.19953
 Alpha  occ. eigenvalues --   -6.19492  -0.81160  -0.72257  -0.56731  -0.38185
 Alpha  occ. eigenvalues --   -0.29909  -0.29620
 Alpha virt. eigenvalues --   -0.14173  -0.07966   0.01662   0.04947   0.05955
 Alpha virt. eigenvalues --    0.06568   0.08483   0.08497   0.09260   0.13897
 Alpha virt. eigenvalues --    0.16130   0.19465   0.35744   0.35914   0.37114

  Beta  occ. eigenvalues --  -89.92457 -10.69126  -8.28183  -6.20422  -6.19953
  Beta  occ. eigenvalues --   -6.19492  -0.81160  -0.72257  -0.56731  -0.38185
  Beta  occ. eigenvalues --   -0.29909  -0.29620
  Beta virt. eigenvalues --   -0.14173  -0.07966   0.01662   0.04947   0.05955
  Beta virt. eigenvalues --    0.06568   0.08483   0.08497   0.09260   0.13897
  Beta virt. eigenvalues --    0.16130   0.19465   0.35744   0.35914   0.37114

 Mulliken charges and spin densities:
               1          2
     1  C   -0.300505  -0.000000
     2  S   -0.118333   0.000000
     3  H    0.209420   0.000000
     4  H    0.209418   0.000000
 Sum of Mulliken charges =  -0.00000  -0.00000

 Dipole moment (field-independent basis, Debye):
    X=             -3.4467    Y=             -0.0001    Z=              0.0002  Tot=              3.4467
 Quadrupole moment (field-independent basis, Debye-Ang):
   XX=            -15.6206   YY=            -21.3532   ZZ=            -22.0274
   XY=             -0.0002   XZ=              0.0000   YZ=             -0.0001

 Normal termination of Gaussian 16 at Mon Apr 21 19:37:44 2025.
