 Gaussian 16, Revision A.03,
 Gaussian 16:  ES64L-G16RevA.03 25-Dec-2016

 --------------------------------------------
 #p opt UM062X/6-311+G** nosymm int=superfine
 --------------------------------------------

 -------------------
 Title Card Required
 -------------------
 Symbolic Z-matrix:
 Charge =  1 Multiplicity = 2

 SCF Done:  E(UM062X) =  -80.1612341850     A.U. after   17 cycles
 SCF Done:  E(UM062X) =  -80.1620412461     A.U. after   10 cycles
 SCF Done:  E(UM062X) =  -80.1620437655     A.U. after    8 cycles
 Optimization completed.
    -- Stationary point found.

                          Input orientation:
 ---------------------------------------------------------------------
 Center     Atomic      Atomic             Coordinates (Angstroms)
 Number     Number       Type             X           Y           Z
 ---------------------------------------------------------------------
      1          5           0       -1.602734    0.000000    0.000000
      2          7           0        1.602734    0.000000    0.000000
      3          1           0       -2.807096   -0.000295    0.000000
      4          1           0        2.638414   -0.000049   -0.000000
 ---------------------------------------------------------------------

 Alpha  occ. eigenvalues --  -14.97634  -7.52887  -1.10515  -0.85553  -0.64658
 Alpha  occ. eigenvalues --   -0.57054  -0.57054
 Alpha virt. eigenvalues --   -0.42130  -0.33772  -0.33772  -0.14840  -0.11112
 Alpha virt. eigenvalues --   -0.09816  -0.09816  -0.06639  -0.02090   0.00426
 Alpha virt. eigenvalues --    0.00426   0.04667   0.07992   0.13465   0.13465

  Beta  occ. eigenvalues --  -14.95202  -7.54135  -0.97751  -0.89122  -0.67750
  Beta  occ. eigenvalues --   -0.58736
  Beta virt. eigenvalues --   -0.35435  -0.35435  -0.21663  -0.21663  -0.14363
  Beta virt. eigenvalues --   -0.10717  -0.09456  -0.09456  -0.07172  -0.01898
  Beta virt. eigenvalues --    0.02248   0.02248   0.05515   0.08899   0.16352

 Mulliken charges and spin densities:
               1          2
     1  B    0.734390  -0.832436
     2  N   -0.244407   2.046445
     3  H    0.221383  -0.142738
     4  H    0.288634  -0.071271
 Sum of Mulliken charges =   1.00000   1.00000

 Dipole moment (field-independent basis, Debye):
    X=             -5.8597    Y=             -0.0003    Z=              0.0000  Tot=              5.8597
 Quadrupole moment (field-independent basis, Debye-Ang):
   XX=             12.7834   YY=            -10.2786   ZZ=            -10.2786
   XY=              0.0002   XZ=             -0.0000   YZ=              0.0000

 Normal termination of Gaussian 16 at Mon Apr 21 17:54:12 2025.
