 Gaussian 16, Revision A.03,
 Gaussian 16:  ES64L-G16RevA.03 25-Dec-2016

 --------------------------------------------
 #p opt UM062X/6-311+G** nosymm int=superfine
 --------------------------------------------

 -------------------
 Title Card Required
 -------------------
 Symbolic Z-matrix:
 Charge =  1 Multiplicity = 2

 SCF Done:  E(UM062X) =  -75.3280399425     A.U. after    9 cycles
 SCF Done:  E(UM062X) =  -75.6449669184     A.U. after   49 cycles
 SCF Done:  E(UM062X) =  -75.8399092998     A.U. after   11 cycles
 SCF Done:  E(UM062X) =  -75.8446277377     A.U. after    9 cycles
 SCF Done:  E(UM062X) =  -75.8450141535     A.U. after    8 cycles
 Optimization completed.
    -- Stationary point found.

                          Input orientation:
 ---------------------------------------------------------------------
 Center     Atomic      Atomic             Coordinates (Angstroms)
 Number     Number       Type             X           Y           Z
 ---------------------------------------------------------------------
      1          6           0       -0.385232    0.000000    0.000000
      2          6           0        0.385232    0.000000    0.000000
      3          1           0       -1.449289   -0.000000    0.000000
      4          1           0        1.449287   -0.000000    0.000000
 ---------------------------------------------------------------------

 Alpha  occ. eigenvalues --  -10.98210 -10.88089  -1.32871  -0.94740  -0.93248
 Alpha  occ. eigenvalues --   -0.91951  -0.90322
 Alpha virt. eigenvalues --   -0.15128  -0.13466  -0.13183  -0.12532  -0.12360
 Alpha virt. eigenvalues --   -0.12120  -0.11607  -0.00597  -0.00122   0.00543
 Alpha virt. eigenvalues --    0.02829   0.03455   0.17341   0.21830   0.22848

  Beta  occ. eigenvalues --  -10.97537 -10.87630  -1.25526  -0.91725  -0.90812
  Beta  occ. eigenvalues --   -0.87442
  Beta virt. eigenvalues --   -0.59966  -0.15451  -0.12907  -0.12514  -0.12162
  Beta virt. eigenvalues --   -0.11876  -0.11656  -0.11495   0.00065   0.01190
  Beta virt. eigenvalues --    0.02233   0.03438   0.04032   0.17585   0.20905

 Mulliken charges and spin densities:
               1          2
     1  C    0.270402   0.525529
     2  C    0.270398   0.525528
     3  H    0.229600  -0.025528
     4  H    0.229599  -0.025528
 Sum of Mulliken charges =   1.00000   1.00000

 Dipole moment (field-independent basis, Debye):
    X=             -0.0000    Y=              0.0000    Z=              0.0000  Tot=              0.0000
 Quadrupole moment (field-independent basis, Debye-Ang):
   XX=             -3.1544   YY=             -8.5022   ZZ=             -8.9937
   XY=              0.0000   XZ=              0.0000   YZ=             -0.5871

 Normal termination of Gaussian 16 at Tue Nov 19 12:34:21 2024.
