 Gaussian 16, Revision A.03,
 Gaussian 16:  ES64L-G16RevA.03 25-Dec-2016

 --------------------------------------------
 #p opt UM062X/6-311+G** nosymm int=superfine
 --------------------------------------------

 -------------------
 Title Card Required
 -------------------
 Symbolic Z-matrix:
 Charge =  0 Multiplicity = 1

 SCF Done:  E(UM062X) =  -382.278930737     A.U. after   12 cycles
 SCF Done:  E(UM062X) =  -382.288205486     A.U. after   11 cycles
 SCF Done:  E(UM062X) =  -382.292659784     A.U. after   11 cycles
 SCF Done:  E(UM062X) =  -382.292702072     A.U. after    9 cycles
 SCF Done:  E(UM062X) =  -382.292726074     A.U. after    9 cycles
 SCF Done:  E(UM062X) =  -382.292736499     A.U. after    9 cycles
 SCF Done:  E(UM062X) =  -382.292737681     A.U. after    8 cycles
 SCF Done:  E(UM062X) =  -382.292738129     A.U. after   11 cycles
 Optimization completed.
    -- Stationary point found.

                          Input orientation:
 ---------------------------------------------------------------------
 Center     Atomic      Atomic             Coordinates (Angstroms)
 Number     Number       Type             X           Y           Z
 ---------------------------------------------------------------------
      1          6           0       -1.656264    0.000000    0.000000
      2         15           0        1.656264    0.000000    0.000000
      3          1           0        1.603713   -1.417932    0.031907
      4          1           0       -1.760282    1.049126    0.236760
      5          1           0        1.603814    0.083787    1.415799
      6          1           0       -1.760233   -0.315457   -1.028210
      7          1           0       -1.779554   -0.729957    0.787444
 ---------------------------------------------------------------------

 Alpha  occ. eigenvalues --  -78.03318 -10.58786  -6.85669  -4.97196  -4.97125
 Alpha  occ. eigenvalues --   -4.96939  -0.78144  -0.69426  -0.50123  -0.50063
 Alpha  occ. eigenvalues --   -0.43619  -0.34731  -0.25677
 Alpha virt. eigenvalues --   -0.09930   0.02029   0.03997   0.04093   0.04611
 Alpha virt. eigenvalues --    0.06375   0.06950   0.07145   0.07346   0.11965
 Alpha virt. eigenvalues --    0.17499   0.18638   0.18792   0.23979   0.30077

  Beta  occ. eigenvalues --  -78.03318 -10.58786  -6.85669  -4.97196  -4.97125
  Beta  occ. eigenvalues --   -4.96939  -0.78144  -0.69426  -0.50123  -0.50063
  Beta  occ. eigenvalues --   -0.43619  -0.34731  -0.25677
  Beta virt. eigenvalues --   -0.09930   0.02029   0.03997   0.04093   0.04611
  Beta virt. eigenvalues --    0.06375   0.06950   0.07145   0.07346   0.11965
  Beta virt. eigenvalues --    0.17499   0.18638   0.18792   0.23979   0.30077

 Mulliken charges and spin densities:
               1          2
     1  C   -0.534436  -0.000000
     2  P   -0.037120   0.000000
     3  H    0.005704  -0.000000
     4  H    0.187375   0.000000
     5  H    0.005715  -0.000000
     6  H    0.187397   0.000000
     7  H    0.185366   0.000000
 Sum of Mulliken charges =  -0.00000   0.00000

 Dipole moment (field-independent basis, Debye):
    X=             -1.1387    Y=             -0.5490    Z=              0.5957  Tot=              1.3974
 Quadrupole moment (field-independent basis, Debye-Ang):
   XX=            -22.3670   YY=            -22.2910   ZZ=            -22.4060
   XY=             -1.1482   XZ=              1.2462   YZ=              0.7031

 Normal termination of Gaussian 16 at Mon Apr 21 19:05:01 2025.
