 Gaussian 16, Revision A.03,
 Gaussian 16:  ES64L-G16RevA.03 25-Dec-2016

 --------------------------------------------
 #p opt UM062X/6-311+G** nosymm int=superfine
 --------------------------------------------

 -------------------
 Title Card Required
 -------------------
 Symbolic Z-matrix:
 Charge =  0 Multiplicity = 1

 SCF Done:  E(UM062X) =  -56.5458132738     A.U. after   11 cycles
 SCF Done:  E(UM062X) =  -56.5458480774     A.U. after    8 cycles
 Optimization completed.
    -- Stationary point found.

                          Input orientation:
 ---------------------------------------------------------------------
 Center     Atomic      Atomic             Coordinates (Angstroms)
 Number     Number       Type             X           Y           Z
 ---------------------------------------------------------------------
      1          7           0        0.825879   -0.000026   -0.000038
      2          1           0        1.191514   -0.944450    0.000066
      3          1           0        1.191522    0.472283   -0.817879
      4          1           0        1.191524    0.472189    0.817856
 ---------------------------------------------------------------------

 Alpha  occ. eigenvalues --  -14.72298  -0.95664  -0.53477  -0.53473  -0.33612
 Alpha virt. eigenvalues --    0.04128   0.10083   0.10084   0.13974   0.18887
 Alpha virt. eigenvalues --    0.18888   0.22928   0.52876   0.52880   0.65574
 Alpha virt. eigenvalues --    0.77319   0.77320   0.81730   0.98162   1.16789

  Beta  occ. eigenvalues --  -14.72298  -0.95664  -0.53477  -0.53473  -0.33612
  Beta virt. eigenvalues --    0.04128   0.10083   0.10084   0.13974   0.18887
  Beta virt. eigenvalues --    0.18888   0.22928   0.52876   0.52880   0.65574
  Beta virt. eigenvalues --    0.77319   0.77320   0.81730   0.98162   1.16789

 Mulliken charges and spin densities:
               1          2
     1  N   -0.728194  -0.000000
     2  H    0.242739   0.000000
     3  H    0.242739   0.000000
     4  H    0.242716  -0.000000
 Sum of Mulliken charges =  -0.00000   0.00000

 Dipole moment (field-independent basis, Debye):
    X=              1.7398    Y=              0.0001    Z=              0.0001  Tot=              1.7398
 Quadrupole moment (field-independent basis, Debye-Ang):
   XX=             -6.3555   YY=             -6.2580   ZZ=             -6.2585
   XY=              0.0001   XZ=              0.0001   YZ=             -0.0004

 Normal termination of Gaussian 16 at Wed Apr 16 07:42:31 2025.
