 Gaussian 16, Revision A.03,
 Gaussian 16:  ES64L-G16RevA.03 25-Dec-2016

 ---------------------------------------
 #p UM062X/6-311+G** force int=superfine
 ---------------------------------------

 -------------------
 Title Card Required
 -------------------
 Symbolic Z-matrix:
 Charge =  1 Multiplicity = 2

                         Standard orientation:
 ---------------------------------------------------------------------
 Center     Atomic      Atomic             Coordinates (Angstroms)
 Number     Number       Type             X           Y           Z
 ---------------------------------------------------------------------
      1          6           0        0.882667    0.892039   -1.608522
      2          6           0       -0.882669   -0.892034    1.608523
      3          1           0       -1.799285   -1.046863    1.051897
      4          1           0        0.756724   -0.004036   -2.204486
      5          1           0       -0.756976    0.003494    2.205363
      6          1           0       -0.123544   -1.664949    1.626366
      7          1           0        1.799234    1.047082   -1.051875
      8          1           0        0.123859    1.665244   -1.627274
 ---------------------------------------------------------------------

 SCF Done:  E(UM062X) =  -79.3166887991     A.U. after   10 cycles

 The electronic state is 2-A.
 Alpha  occ. eigenvalues --  -10.83330 -10.83329  -1.01911  -1.01626  -0.72985
 Alpha  occ. eigenvalues --   -0.72984  -0.72895  -0.72895  -0.47024
 Alpha virt. eigenvalues --   -0.37709  -0.12617  -0.10125  -0.09304  -0.09304
 Alpha virt. eigenvalues --   -0.06209  -0.06209  -0.04393  -0.02818   0.00142
 Alpha virt. eigenvalues --    0.00145   0.01415   0.01417   0.02538   0.08868

  Beta  occ. eigenvalues --  -10.83107 -10.83107  -0.99254  -0.99086  -0.72456
  Beta  occ. eigenvalues --   -0.72455  -0.72352  -0.72351
  Beta virt. eigenvalues --   -0.32341  -0.26668  -0.16853  -0.10724  -0.10723
  Beta virt. eigenvalues --   -0.10233  -0.06186  -0.06185  -0.05424  -0.01859
  Beta virt. eigenvalues --   -0.00048  -0.00045   0.01670   0.01672   0.02331

 Mulliken charges and spin densities:
               1          2
     1  C   -0.246003   0.557303
     2  C   -0.246005   0.557302
     3  H    0.248685  -0.019101
     4  H    0.248649  -0.019100
     5  H    0.248670  -0.019102
     6  H    0.248649  -0.019099
     7  H    0.248686  -0.019101
     8  H    0.248669  -0.019101
 Sum of Mulliken charges =   1.00000   1.00000

 Dipole moment (field-independent basis, Debye):
    X=              0.0000    Y=             -0.0000    Z=             -0.0000  Tot=              0.0001
 Quadrupole moment (field-independent basis, Debye-Ang):
   XX=             -7.4400   YY=             -7.3628   ZZ=              1.0892
   XY=              3.7164   XZ=             -6.7006   YZ=             -6.7704

 Normal termination of Gaussian 16 at Tue Nov 19 08:44:57 2024.
