 Gaussian 16, Revision A.03,
 Gaussian 16:  ES64L-G16RevA.03 25-Dec-2016

 --------------------------------------------
 #p opt UM062X/6-311+G** nosymm int=superfine
 --------------------------------------------

 -------------------
 Title Card Required
 -------------------
 Symbolic Z-matrix:
 Charge =  0 Multiplicity = 1

 SCF Done:  E(UM062X) =  -83.1797799674     A.U. after   10 cycles
 SCF Done:  E(UM062X) =  -83.1814487625     A.U. after    9 cycles
 SCF Done:  E(UM062X) =  -83.1814925978     A.U. after    8 cycles
 SCF Done:  E(UM062X) =  -83.1814944690     A.U. after    7 cycles
 SCF Done:  E(UM062X) =  -83.1814949028     A.U. after    6 cycles
 Optimization completed.
    -- Stationary point found.

                          Input orientation:
 ---------------------------------------------------------------------
 Center     Atomic      Atomic             Coordinates (Angstroms)
 Number     Number       Type             X           Y           Z
 ---------------------------------------------------------------------
      1          5           0       -0.952429    0.000000    0.000000
      2          7           0        0.952429    0.000000    0.000000
      3          1           0        1.297161   -0.953654   -0.000005
      4          1           0       -1.180305   -0.589334    1.020767
      5          1           0        1.297010    0.476898   -0.825912
      6          1           0        1.297007    0.476889    0.825919
      7          1           0       -1.180241    1.178692    0.000008
      8          1           0       -1.180306   -0.589320   -1.020774
 ---------------------------------------------------------------------

 Alpha  occ. eigenvalues --  -14.80421  -6.98491  -1.03030  -0.60573  -0.60572
 Alpha  occ. eigenvalues --   -0.56595  -0.40678  -0.34878  -0.34878
 Alpha virt. eigenvalues --   -0.00923   0.04463   0.04463   0.04641   0.08383
 Alpha virt. eigenvalues --    0.10988   0.10989   0.14774   0.15478   0.15479
 Alpha virt. eigenvalues --    0.16572   0.21079   0.21080   0.24644   0.31230

  Beta  occ. eigenvalues --  -14.80421  -6.98491  -1.03030  -0.60573  -0.60572
  Beta  occ. eigenvalues --   -0.56595  -0.40678  -0.34878  -0.34878
  Beta virt. eigenvalues --   -0.00923   0.04463   0.04463   0.04641   0.08383
  Beta virt. eigenvalues --    0.10988   0.10989   0.14774   0.15478   0.15479
  Beta virt. eigenvalues --    0.16572   0.21079   0.21080   0.24644   0.31230

 Mulliken charges and spin densities:
               1          2
     1  B   -0.129495  -0.000000
     2  N   -0.627863   0.000000
     3  H    0.296836  -0.000000
     4  H   -0.044385  -0.000000
     5  H    0.296842   0.000000
     6  H    0.296842   0.000000
     7  H   -0.044392  -0.000000
     8  H   -0.044384  -0.000000
 Sum of Mulliken charges =  -0.00000  -0.00000

 Dipole moment (field-independent basis, Debye):
    X=              4.7540    Y=              0.0001    Z=              0.0000  Tot=              4.7540
 Quadrupole moment (field-independent basis, Debye-Ang):
   XX=            -15.1062   YY=            -16.0727   ZZ=            -16.0728
   XY=             -0.0001   XZ=             -0.0000   YZ=              0.0000

 Normal termination of Gaussian 16 at Mon Apr 21 17:35:43 2025.
