 Gaussian 16, Revision A.03,
 Gaussian 16:  ES64L-G16RevA.03 25-Dec-2016

 --------------------------------------------
 #p opt UM062X/6-311+G** nosymm int=superfine
 --------------------------------------------

 -------------------
 Title Card Required
 -------------------
 Symbolic Z-matrix:
 Charge =  0 Multiplicity = 1

 SCF Done:  E(UM062X) =  -581.134281551     A.U. after    9 cycles
 SCF Done:  E(UM062X) =  -581.154906598     A.U. after    8 cycles
 SCF Done:  E(UM062X) =  -581.168383904     A.U. after    9 cycles
 SCF Done:  E(UM062X) =  -581.168403788     A.U. after    8 cycles
 SCF Done:  E(UM062X) =  -581.168404197     A.U. after    7 cycles
 Optimization completed.
    -- Stationary point found.

                          Input orientation:
 ---------------------------------------------------------------------
 Center     Atomic      Atomic             Coordinates (Angstroms)
 Number     Number       Type             X           Y           Z
 ---------------------------------------------------------------------
      1         14           0       -1.862518    0.000000    0.000000
      2         14           0        1.862518    0.000000    0.000000
      3          1           0       -2.936518   -1.079482    0.002196
      4          1           0        2.936518    1.079483    0.001614
      5          1           0       -2.936525    1.079474    0.002516
      6          1           0        2.936525   -1.079473    0.003095
 ---------------------------------------------------------------------

 Alpha  occ. eigenvalues --  -67.00898 -67.00898  -5.55650  -5.55649  -3.86874
 Alpha  occ. eigenvalues --   -3.86874  -3.86340  -3.86339  -3.86217  -3.86216
 Alpha  occ. eigenvalues --   -0.57116  -0.56707  -0.37432  -0.37280  -0.31008
 Alpha  occ. eigenvalues --   -0.25182
 Alpha virt. eigenvalues --   -0.08731  -0.06915   0.01997   0.02089   0.03277
 Alpha virt. eigenvalues --    0.04525   0.05996   0.06048   0.06236   0.06238
 Alpha virt. eigenvalues --    0.09634   0.10081   0.12060   0.14316   0.27822

  Beta  occ. eigenvalues --  -67.00898 -67.00898  -5.55650  -5.55649  -3.86874
  Beta  occ. eigenvalues --   -3.86874  -3.86340  -3.86339  -3.86217  -3.86216
  Beta  occ. eigenvalues --   -0.57116  -0.56707  -0.37432  -0.37280  -0.31008
  Beta  occ. eigenvalues --   -0.25182
  Beta virt. eigenvalues --   -0.08731  -0.06915   0.01997   0.02089   0.03277
  Beta virt. eigenvalues --    0.04525   0.05996   0.06048   0.06236   0.06238
  Beta virt. eigenvalues --    0.09634   0.10081   0.12060   0.14316   0.27822

 Mulliken charges and spin densities:
               1          2
     1  Si   0.317396  -0.000000
     2  Si   0.317396  -0.000000
     3  H   -0.158698  -0.000000
     4  H   -0.158698  -0.000000
     5  H   -0.158698   0.000000
     6  H   -0.158698  -0.000000
 Sum of Mulliken charges =  -0.00000  -0.00000

 Dipole moment (field-independent basis, Debye):
    X=              0.0000    Y=              0.0000    Z=              0.0004  Tot=              0.0004
 Quadrupole moment (field-independent basis, Debye-Ang):
   XX=            -37.8933   YY=            -32.8829   ZZ=            -24.3988
   XY=             -0.0000   XZ=              0.0000   YZ=              0.0023

 Normal termination of Gaussian 16 at Mon Apr 21 20:33:36 2025.
