 Gaussian 16, Revision A.03,
 Gaussian 16:  ES64L-G16RevA.03 25-Dec-2016

 ----------------------------------------------------------------------
 #p opt UM062X/6-311+G** nosymm int=superfine SCF=(MaxCycle=200,NoVarAc
 c,noincfock) guess=read
 ----------------------------------------------------------------------

 -------------------
 Title Card Required
 -------------------
 Symbolic Z-matrix:
 Charge =  0 Multiplicity = 1

 SCF Done:  E(UM062X) =  -474.378685793     A.U. after   20 cycles
 SCF Done:  E(UM062X) =  -474.387000822     A.U. after   19 cycles
 SCF Done:  E(UM062X) =  -474.387124417     A.U. after   22 cycles
 SCF Done:  E(UM062X) =  -474.387235119     A.U. after   18 cycles
 SCF Done:  E(UM062X) =  -474.387243783     A.U. after   22 cycles
 SCF Done:  E(UM062X) =  -474.387263945     A.U. after   26 cycles
 SCF Done:  E(UM062X) =  -474.387264052     A.U. after   15 cycles
 SCF Done:  E(UM062X) =  -474.387265239     A.U. after   17 cycles
 SCF Done:  E(UM062X) =  -474.387265963     A.U. after   16 cycles
 Optimization completed.
    -- Stationary point found.

                          Input orientation:
 ---------------------------------------------------------------------
 Center     Atomic      Atomic             Coordinates (Angstroms)
 Number     Number       Type             X           Y           Z
 ---------------------------------------------------------------------
      1          8           0       -1.636006   -0.000008    0.000006
      2         16           0        1.636007    0.000006   -0.000003
      3          1           0       -1.612452    0.237888    0.940301
      4          1           0        1.423330   -0.989034   -0.889159
 ---------------------------------------------------------------------

 Alpha  occ. eigenvalues --  -89.97859 -19.67358  -8.33993  -6.26208  -6.25837
 Alpha  occ. eigenvalues --   -6.25271  -1.08498  -0.83767  -0.52575  -0.49624
 Alpha  occ. eigenvalues --   -0.39806  -0.35666  -0.34799
 Alpha virt. eigenvalues --   -0.21699   0.01612   0.03913   0.04672   0.05476
 Alpha virt. eigenvalues --    0.06993   0.13722   0.19314   0.19903   0.21210
 Alpha virt. eigenvalues --    0.25609   0.30875   0.33963   0.34605   0.39240

  Beta  occ. eigenvalues --  -89.97859 -19.67358  -8.33993  -6.26208  -6.25837
  Beta  occ. eigenvalues --   -6.25271  -1.08498  -0.83767  -0.52575  -0.49624
  Beta  occ. eigenvalues --   -0.39806  -0.35666  -0.34799
  Beta virt. eigenvalues --   -0.21699   0.01612   0.03913   0.04672   0.05476
  Beta virt. eigenvalues --    0.06993   0.13722   0.19314   0.19903   0.21210
  Beta virt. eigenvalues --    0.25609   0.30875   0.33963   0.34605   0.39240

 Mulliken charges and spin densities:
               1          2
     1  O   -0.401405  -0.000000
     2  S    0.043569   0.000000
     3  H    0.246739  -0.000000
     4  H    0.111097  -0.000000
 Sum of Mulliken charges =   0.00000   0.00000

 Dipole moment (field-independent basis, Debye):
    X=              2.2238    Y=             -0.4592    Z=              0.8966  Tot=              2.4414
 Quadrupole moment (field-independent basis, Debye-Ang):
   XX=            -18.3169   YY=            -20.2802   ZZ=            -18.5185
   XY=             -2.1492   XZ=             -4.1754   YZ=              2.6459

 Normal termination of Gaussian 16 at Tue Apr 22 05:22:49 2025.
