 Gaussian 16, Revision A.03,
 Gaussian 16:  ES64L-G16RevA.03 25-Dec-2016

 --------------------------------------------
 #p opt UM062X/6-311+G** nosymm int=superfine
 --------------------------------------------

 -------------------
 Title Card Required
 -------------------
 Symbolic Z-matrix:
 Charge = -1 Multiplicity = 2

 SCF Done:  E(UM062X) =  -52.0315275967     A.U. after   11 cycles
 SCF Done:  E(UM062X) =  -52.0317404602     A.U. after    9 cycles
 SCF Done:  E(UM062X) =  -52.0317977036     A.U. after    9 cycles
 SCF Done:  E(UM062X) =  -52.0317898265     A.U. after   10 cycles
 SCF Done:  E(UM062X) =  -52.0317607787     A.U. after   10 cycles
 SCF Done:  E(UM062X) =  -52.0317956903     A.U. after    9 cycles
 SCF Done:  E(UM062X) =  -52.0317976213     A.U. after    9 cycles
 SCF Done:  E(UM062X) =  -52.0317981064     A.U. after    9 cycles
 Optimization completed.
    -- Stationary point found.

                          Input orientation:
 ---------------------------------------------------------------------
 Center     Atomic      Atomic             Coordinates (Angstroms)
 Number     Number       Type             X           Y           Z
 ---------------------------------------------------------------------
      1          5           0       -0.922274    0.000000    0.000000
      2          5           0        0.922274    0.000000    0.000000
      3          1           0       -1.567641   -1.025515    0.000061
      4          1           0        1.567641    1.025515   -0.000423
      5          1           0       -1.567633    1.025520    0.000017
      6          1           0        1.567633   -1.025520    0.000501
 ---------------------------------------------------------------------

 Alpha  occ. eigenvalues --   -6.80734  -6.80703  -0.37398  -0.30917  -0.19938
 Alpha  occ. eigenvalues --   -0.15544  -0.10577  -0.00538
 Alpha virt. eigenvalues --    0.15722   0.17025   0.18646   0.19197   0.19390
 Alpha virt. eigenvalues --    0.22497   0.22593   0.26624   0.26877   0.34226
 Alpha virt. eigenvalues --    0.36047   0.38127   0.41330   0.44665   0.52685

  Beta  occ. eigenvalues --   -6.80708  -6.80683  -0.35253  -0.29776  -0.19523
  Beta  occ. eigenvalues --   -0.15481  -0.09782
  Beta virt. eigenvalues --    0.11742   0.14802   0.15428   0.17495   0.17525
  Beta virt. eigenvalues --    0.18742   0.18995   0.22737   0.23736   0.30038
  Beta virt. eigenvalues --    0.33427   0.36020   0.37511   0.41491   0.44738

 Mulliken charges and spin densities:
               1          2
     1  B   -0.352911   0.545107
     2  B   -0.352911   0.545107
     3  H   -0.073545  -0.022553
     4  H   -0.073545  -0.022553
     5  H   -0.073544  -0.022553
     6  H   -0.073544  -0.022553
 Sum of Mulliken charges =  -1.00000   1.00000

 Dipole moment (field-independent basis, Debye):
    X=             -0.0000    Y=              0.0000    Z=             -0.0000  Tot=              0.0000
 Quadrupole moment (field-independent basis, Debye-Ang):
   XX=            -28.9181   YY=            -23.1829   ZZ=            -22.1771
   XY=              0.0000   XZ=              0.0000   YZ=              0.0002

 Normal termination of Gaussian 16 at Mon Apr 21 17:20:34 2025.
