 Gaussian 16, Revision A.03,
 Gaussian 16:  ES64L-G16RevA.03 25-Dec-2016

 ---------------------------------------
 #p UM062X/6-311+G** force int=superfine
 ---------------------------------------

 -------------------
 Title Card Required
 -------------------
 Symbolic Z-matrix:
 Charge =  1 Multiplicity = 2

                         Standard orientation:
 ---------------------------------------------------------------------
 Center     Atomic      Atomic             Coordinates (Angstroms)
 Number     Number       Type             X           Y           Z
 ---------------------------------------------------------------------
      1          6           0        1.180610    0.956090   -1.665295
      2          6           0       -1.180611   -0.956087    1.665296
      3          1           0       -2.071192   -0.979181    1.049184
      4          1           0        0.992049    0.107712   -2.311788
      5          1           0       -0.992475   -0.108315    2.312711
      6          1           0       -0.509679   -1.806339    1.678505
      7          1           0        2.071165    0.979412   -1.049155
      8          1           0        0.510138    1.806692   -1.679462
 ---------------------------------------------------------------------

 SCF Done:  E(UM062X) =  -79.3134032642     A.U. after   10 cycles

 The electronic state is 2-A.
 Alpha  occ. eigenvalues --  -10.82668 -10.82667  -1.01310  -1.01139  -0.72435
 Alpha  occ. eigenvalues --   -0.72435  -0.72398  -0.72397  -0.45659
 Alpha virt. eigenvalues --   -0.37927  -0.12184  -0.09982  -0.08900  -0.08900
 Alpha virt. eigenvalues --   -0.06185  -0.06185  -0.04479  -0.02410   0.00805
 Alpha virt. eigenvalues --    0.00808   0.01603   0.01605   0.02194   0.09247

  Beta  occ. eigenvalues --  -10.82439 -10.82439  -0.98640  -0.98573  -0.71891
  Beta  occ. eigenvalues --   -0.71890  -0.71849  -0.71849
  Beta virt. eigenvalues --   -0.30759  -0.26678  -0.17013  -0.10251  -0.09932
  Beta virt. eigenvalues --   -0.09927  -0.06100  -0.06099  -0.05855  -0.01434
  Beta virt. eigenvalues --    0.00790   0.00794   0.01849   0.01851   0.02281

 Mulliken charges and spin densities:
               1          2
     1  C   -0.230838   0.560451
     2  C   -0.230839   0.560451
     3  H    0.243638  -0.020141
     4  H    0.243583  -0.020163
     5  H    0.243604  -0.020164
     6  H    0.243597  -0.020146
     7  H    0.243639  -0.020142
     8  H    0.243616  -0.020147
 Sum of Mulliken charges =   1.00000   1.00000

 Dipole moment (field-independent basis, Debye):
    X=              0.0000    Y=             -0.0000    Z=             -0.0000  Tot=              0.0000
 Quadrupole moment (field-independent basis, Debye-Ang):
   XX=             -4.6087   YY=             -6.8524   ZZ=              1.8315
   XY=              5.2748   XZ=             -9.1867   YZ=             -7.4383

 Normal termination of Gaussian 16 at Tue Nov 19 08:47:12 2024.
