 Gaussian 16, Revision A.03,
 Gaussian 16:  ES64L-G16RevA.03 25-Dec-2016

 --------------------------------------------
 #p opt UM062X/6-311+G** nosymm int=superfine
 --------------------------------------------

 -------------------
 Title Card Required
 -------------------
 Symbolic Z-matrix:
 Charge =  0 Multiplicity = 1

 SCF Done:  E(UM062X) =  -797.374642779     A.U. after   15 cycles
 SCF Done:  E(UM062X) =  -797.374682168     A.U. after   14 cycles
 SCF Done:  E(UM062X) =  -797.374784632     A.U. after   15 cycles
 SCF Done:  E(UM062X) =  -797.374815544     A.U. after   17 cycles
 SCF Done:  E(UM062X) =  -797.374929164     A.U. after   22 cycles
 SCF Done:  E(UM062X) =  -797.375061455     A.U. after   21 cycles
 SCF Done:  E(UM062X) =  -797.375082021     A.U. after   14 cycles
 SCF Done:  E(UM062X) =  -797.375101845     A.U. after   15 cycles
 SCF Done:  E(UM062X) =  -797.375124407     A.U. after   18 cycles
 SCF Done:  E(UM062X) =  -797.375131018     A.U. after   18 cycles
 SCF Done:  E(UM062X) =  -797.375134839     A.U. after   14 cycles
 SCF Done:  E(UM062X) =  -797.375125286     A.U. after   14 cycles
 SCF Done:  E(UM062X) =  -797.375135473     A.U. after   14 cycles
 SCF Done:  E(UM062X) =  -797.375135289     A.U. after   14 cycles
 SCF Done:  E(UM062X) =  -797.375135775     A.U. after   13 cycles
 Optimization completed.
    -- Stationary point found.

                          Input orientation:
 ---------------------------------------------------------------------
 Center     Atomic      Atomic             Coordinates (Angstroms)
 Number     Number       Type             X           Y           Z
 ---------------------------------------------------------------------
      1         16           0       -2.543191    0.000000    0.000000
      2         16           0        2.543191    0.000000    0.000000
      3          1           0       -2.409796   -1.273847   -0.414333
      4          1           0        2.399670    0.442905    1.263093
 ---------------------------------------------------------------------

 Alpha  occ. eigenvalues --  -89.94211 -89.94208  -8.30486  -8.30484  -6.22624
 Alpha  occ. eigenvalues --   -6.22622  -6.22387  -6.22384  -6.21817  -6.21814
 Alpha  occ. eigenvalues --   -0.81281  -0.81138  -0.47300  -0.47296  -0.33321
 Alpha  occ. eigenvalues --   -0.33271  -0.29514
 Alpha virt. eigenvalues --   -0.22970   0.01802   0.02921   0.04400   0.04818
 Alpha virt. eigenvalues --    0.06338   0.06490   0.07104   0.07368   0.08080
 Alpha virt. eigenvalues --    0.12684   0.31883   0.32386   0.32591   0.35157

  Beta  occ. eigenvalues --  -89.94211 -89.94208  -8.30486  -8.30484  -6.22624
  Beta  occ. eigenvalues --   -6.22622  -6.22387  -6.22384  -6.21817  -6.21814
  Beta  occ. eigenvalues --   -0.81281  -0.81138  -0.47300  -0.47296  -0.33321
  Beta  occ. eigenvalues --   -0.33271  -0.29514
  Beta virt. eigenvalues --   -0.22970   0.01802   0.02921   0.04400   0.04818
  Beta virt. eigenvalues --    0.06338   0.06490   0.07104   0.07368   0.08080
  Beta virt. eigenvalues --    0.12684   0.31883   0.32386   0.32591   0.35157

 Mulliken charges and spin densities:
               1          2
     1  S   -0.080077   0.000000
     2  S   -0.079746   0.000000
     3  H    0.079895   0.000000
     4  H    0.079928   0.000000
 Sum of Mulliken charges =  -0.00000   0.00000

 Dipole moment (field-independent basis, Debye):
    X=             -0.0055    Y=             -0.6871    Z=              0.7028  Tot=              0.9829
 Quadrupole moment (field-independent basis, Debye-Ang):
   XX=            -26.2660   YY=            -28.0411   ZZ=            -28.1531
   XY=              3.4861   XZ=              3.3978   YZ=              2.4388

 Normal termination of Gaussian 16 at Mon Apr 21 21:19:25 2025.
