 Gaussian 16, Revision A.03,
 Gaussian 16:  ES64L-G16RevA.03 25-Dec-2016

 ---------------------------------------
 #p UM062X/6-311+G** force int=superfine
 ---------------------------------------

 -------------------
 Title Card Required
 -------------------
 Symbolic Z-matrix:
 Charge =  0 Multiplicity = 1

                         Standard orientation:
 ---------------------------------------------------------------------
 Center     Atomic      Atomic             Coordinates (Angstroms)
 Number     Number       Type             X           Y           Z
 ---------------------------------------------------------------------
      1          7           0        0.000000    0.000000    1.195048
      2          7           0        0.000000    0.000000   -1.195048
 ---------------------------------------------------------------------

 SCF Done:  E(UM062X) =  -108.892371593     A.U. after   10 cycles

 The electronic state is 1-SGG.
 Alpha  occ. eigenvalues --  -14.97811 -14.97802  -0.89942  -0.84932  -0.39480
 Alpha  occ. eigenvalues --   -0.35564  -0.35564
 Alpha virt. eigenvalues --   -0.21425  -0.21425  -0.16237   0.07392   0.09403
 Alpha virt. eigenvalues --    0.11598   0.11598   0.15364   0.15364   0.16115
 Alpha virt. eigenvalues --    0.23852   0.74238   0.74238   0.77294   0.80325

  Beta  occ. eigenvalues --  -14.97811 -14.97802  -0.89942  -0.84932  -0.39480
  Beta  occ. eigenvalues --   -0.35564  -0.35564
  Beta virt. eigenvalues --   -0.21425  -0.21425  -0.16237   0.07392   0.09403
  Beta virt. eigenvalues --    0.11598   0.11598   0.15364   0.15364   0.16115
  Beta virt. eigenvalues --    0.23852   0.74238   0.74238   0.77294   0.80325

 Mulliken charges and spin densities:
               1          2
     1  N   -0.000000   0.000000
     2  N   -0.000000   0.000000
 Sum of Mulliken charges =  -0.00000   0.00000

 Dipole moment (field-independent basis, Debye):
    X=             -0.0000    Y=              0.0000    Z=             -0.0000  Tot=              0.0000
 Quadrupole moment (field-independent basis, Debye-Ang):
   XX=            -12.3594   YY=            -12.3594   ZZ=            -10.7514
   XY=              0.0000   XZ=             -0.0000   YZ=              0.0000

 Optimization completed.
    -- Stationary point found.
 Normal termination of Gaussian 16 at Wed Feb 26 13:55:48 2025.
