 Gaussian 16, Revision A.03,
 Gaussian 16:  ES64L-G16RevA.03 25-Dec-2016

 --------------------------------------------
 #p opt UM062X/6-311+G** nosymm int=superfine
 --------------------------------------------

 -------------------
 Title Card Required
 -------------------
 Symbolic Z-matrix:
 Charge =  0 Multiplicity = 1

 SCF Done:  E(UM062X) =  -438.496798399     A.U. after   13 cycles
 SCF Done:  E(UM062X) =  -438.510142629     A.U. after   11 cycles
 SCF Done:  E(UM062X) =  -438.516467336     A.U. after   11 cycles
 SCF Done:  E(UM062X) =  -438.516535229     A.U. after   11 cycles
 SCF Done:  E(UM062X) =  -438.516557015     A.U. after   11 cycles
 SCF Done:  E(UM062X) =  -438.516578109     A.U. after   12 cycles
 SCF Done:  E(UM062X) =  -438.516581135     A.U. after   11 cycles
 SCF Done:  E(UM062X) =  -438.516581800     A.U. after   11 cycles
 SCF Done:  E(UM062X) =  -438.516582241     A.U. after    8 cycles
 SCF Done:  E(UM062X) =  -438.516582590     A.U. after   12 cycles
 SCF Done:  E(UM062X) =  -438.516582705     A.U. after    8 cycles
 Optimization completed.
    -- Stationary point found.

                          Input orientation:
 ---------------------------------------------------------------------
 Center     Atomic      Atomic             Coordinates (Angstroms)
 Number     Number       Type             X           Y           Z
 ---------------------------------------------------------------------
      1          6           0       -1.810220    0.000000    0.000000
      2         16           0        1.810220    0.000000    0.000000
      3          1           0        1.767898   -1.343875   -0.002353
      4          1           0       -1.818399    1.080939    0.002331
      5          1           0       -1.859878   -0.535628   -0.937734
      6          1           0       -1.860043   -0.539671    0.935404
 ---------------------------------------------------------------------

 Alpha  occ. eigenvalues --  -89.87935 -10.64816  -8.24213  -6.16261  -6.16191
 Alpha  occ. eigenvalues --   -6.15644  -0.83055  -0.75675  -0.55077  -0.54994
 Alpha  occ. eigenvalues --   -0.42210  -0.28147  -0.27611
 Alpha virt. eigenvalues --   -0.15197   0.01168   0.03845   0.04336   0.05609
 Alpha virt. eigenvalues --    0.07544   0.08391   0.08468   0.10846   0.13561
 Alpha virt. eigenvalues --    0.15832   0.16159   0.21211   0.33896   0.35639

  Beta  occ. eigenvalues --  -89.87935 -10.64816  -8.24213  -6.16261  -6.16191
  Beta  occ. eigenvalues --   -6.15644  -0.83055  -0.75675  -0.55077  -0.54994
  Beta  occ. eigenvalues --   -0.42210  -0.28147  -0.27611
  Beta virt. eigenvalues --   -0.15197   0.01168   0.03845   0.04336   0.05609
  Beta virt. eigenvalues --    0.07544   0.08391   0.08468   0.10846   0.13561
  Beta virt. eigenvalues --    0.15832   0.16159   0.21211   0.33896   0.35639

 Mulliken charges and spin densities:
               1          2
     1  C   -0.398566   0.000000
     2  S   -0.280897  -0.000000
     3  H    0.051865   0.000000
     4  H    0.210949  -0.000000
     5  H    0.208329  -0.000000
     6  H    0.208320  -0.000000
 Sum of Mulliken charges =  -0.00000  -0.00000

 Dipole moment (field-independent basis, Debye):
    X=             -4.6392    Y=             -0.9506    Z=             -0.0017  Tot=              4.7356
 Quadrupole moment (field-independent basis, Debye-Ang):
   XX=            -20.7230   YY=            -19.5900   ZZ=            -23.6438
   XY=             -1.8109   XZ=             -0.0033   YZ=              0.0071

 Normal termination of Gaussian 16 at Mon Apr 21 19:37:14 2025.
