 Gaussian 16, Revision A.03,
 Gaussian 16:  ES64L-G16RevA.03 25-Dec-2016

 --------------------------------------------
 #p opt UM062X/6-311+G** nosymm int=superfine
 --------------------------------------------

 -------------------
 Title Card Required
 -------------------
 Symbolic Z-matrix:
 Charge =  0 Multiplicity = 1

 SCF Done:  E(UM062X) =  -78.4411056775     A.U. after    8 cycles
 SCF Done:  E(UM062X) =  -78.4668569729     A.U. after    8 cycles
 SCF Done:  E(UM062X) =  -78.4771750058     A.U. after    8 cycles
 SCF Done:  E(UM062X) =  -78.4780090385     A.U. after    7 cycles
 SCF Done:  E(UM062X) =  -78.4780222688     A.U. after    7 cycles
 Optimization completed.
    -- Stationary point found.

                          Input orientation:
 ---------------------------------------------------------------------
 Center     Atomic      Atomic             Coordinates (Angstroms)
 Number     Number       Type             X           Y           Z
 ---------------------------------------------------------------------
      1          6           0       -0.848476    0.000000    0.000000
      2          6           0        0.848476    0.000000    0.000000
      3          1           0       -1.356350   -0.952520    0.000000
      4          1           0       -1.356371    0.952450    0.000000
      5          1           0        1.356351    0.952520    0.000000
      6          1           0        1.356371   -0.952450    0.000000
 ---------------------------------------------------------------------

 Alpha  occ. eigenvalues --  -10.58687 -10.58660  -0.79937  -0.69453  -0.53046
 Alpha  occ. eigenvalues --   -0.47012  -0.42698  -0.28600
 Alpha virt. eigenvalues --   -0.02974   0.03372   0.03509   0.05370   0.07658
 Alpha virt. eigenvalues --    0.08590   0.09748   0.11812   0.15722   0.16752
 Alpha virt. eigenvalues --    0.18857   0.20902   0.23566   0.29230   0.41118

  Beta  occ. eigenvalues --  -10.58687 -10.58660  -0.79937  -0.69453  -0.53046
  Beta  occ. eigenvalues --   -0.47012  -0.42698  -0.28600
  Beta virt. eigenvalues --   -0.02974   0.03372   0.03509   0.05370   0.07658
  Beta virt. eigenvalues --    0.08590   0.09748   0.11812   0.15722   0.16752
  Beta virt. eigenvalues --    0.18857   0.20902   0.23566   0.29230   0.41118

 Mulliken charges and spin densities:
               1          2
     1  C   -0.336018   0.000000
     2  C   -0.336018  -0.000000
     3  H    0.168008  -0.000000
     4  H    0.168010   0.000000
     5  H    0.168008  -0.000000
     6  H    0.168010   0.000000
 Sum of Mulliken charges =  -0.00000   0.00000

 Dipole moment (field-independent basis, Debye):
    X=              0.0000    Y=             -0.0000    Z=              0.0000  Tot=              0.0000
 Quadrupole moment (field-independent basis, Debye-Ang):
   XX=            -11.7839   YY=            -12.2119   ZZ=            -17.3131
   XY=             -0.0001   XZ=              0.0000   YZ=              0.0000

 Normal termination of Gaussian 16 at Tue Nov 19 10:49:01 2024.
