 Gaussian 16, Revision A.03,
 Gaussian 16:  ES64L-G16RevA.03 25-Dec-2016

 --------------------------------------------
 #p opt UM062X/6-311+G** nosymm int=superfine
 --------------------------------------------

 -------------------
 Title Card Required
 -------------------
 Symbolic Z-matrix:
 Charge =  0 Multiplicity = 1

 SCF Done:  E(UM062X) =  -438.646550689     A.U. after   11 cycles
 SCF Done:  E(UM062X) =  -438.649424565     A.U. after   10 cycles
 SCF Done:  E(UM062X) =  -438.649724517     A.U. after    9 cycles
 SCF Done:  E(UM062X) =  -438.649725293     A.U. after    8 cycles
 SCF Done:  E(UM062X) =  -438.649725394     A.U. after    7 cycles
 Optimization completed.
    -- Stationary point found.

                          Input orientation:
 ---------------------------------------------------------------------
 Center     Atomic      Atomic             Coordinates (Angstroms)
 Number     Number       Type             X           Y           Z
 ---------------------------------------------------------------------
      1          6           0       -1.085220    0.000000    0.000000
      2         16           0        1.085220    0.000000    0.000000
      3          1           0        1.150421   -1.340478   -0.002021
      4          1           0       -1.321135    1.057469    0.002304
      5          1           0       -1.368607   -0.507716   -0.913610
      6          1           0       -1.368586   -0.511647    0.911423
 ---------------------------------------------------------------------

 Alpha  occ. eigenvalues --  -89.89459 -10.59082  -8.25780  -6.17886  -6.17725
 Alpha  occ. eigenvalues --   -6.17242  -0.83144  -0.75091  -0.50930  -0.50565
 Alpha  occ. eigenvalues --   -0.44111  -0.36896  -0.29767
 Alpha virt. eigenvalues --   -0.01331   0.02367   0.04593   0.05402   0.06247
 Alpha virt. eigenvalues --    0.07245   0.07947   0.08680   0.11709   0.13689
 Alpha virt. eigenvalues --    0.17807   0.18382   0.24829   0.32759   0.34756

  Beta  occ. eigenvalues --  -89.89459 -10.59082  -8.25780  -6.17886  -6.17725
  Beta  occ. eigenvalues --   -6.17242  -0.83144  -0.75091  -0.50930  -0.50565
  Beta  occ. eigenvalues --   -0.44111  -0.36896  -0.29767
  Beta virt. eigenvalues --   -0.01331   0.02367   0.04593   0.05402   0.06247
  Beta virt. eigenvalues --    0.07245   0.07947   0.08680   0.11709   0.13689
  Beta virt. eigenvalues --    0.17807   0.18382   0.24829   0.32759   0.34756

 Mulliken charges and spin densities:
               1          2
     1  C   -0.564766  -0.000000
     2  S   -0.091558  -0.000000
     3  H    0.065466  -0.000000
     4  H    0.195431   0.000000
     5  H    0.197725   0.000000
     6  H    0.197702   0.000000
 Sum of Mulliken charges =  -0.00000  -0.00000

 Dipole moment (field-independent basis, Debye):
    X=             -1.8950    Y=             -0.9255    Z=             -0.0014  Tot=              2.1089
 Quadrupole moment (field-independent basis, Debye-Ang):
   XX=            -21.1691   YY=            -19.2752   ZZ=            -23.1456
   XY=             -1.5170   XZ=             -0.0023   YZ=              0.0059

 Normal termination of Gaussian 16 at Mon Apr 21 19:34:51 2025.
