 Gaussian 16, Revision A.03,
 Gaussian 16:  ES64L-G16RevA.03 25-Dec-2016

 --------------------------------------------
 #p opt UM062X/6-311+G** nosymm int=superfine
 --------------------------------------------

 -------------------
 Title Card Required
 -------------------
 Symbolic Z-matrix:
 Charge =  0 Multiplicity = 1

 SCF Done:  E(UM062X) =  -381.150610185     A.U. after   12 cycles
 SCF Done:  E(UM062X) =  -381.151576818     A.U. after   10 cycles
 SCF Done:  E(UM062X) =  -381.151157781     A.U. after   10 cycles
 SCF Done:  E(UM062X) =  -381.151370654     A.U. after   11 cycles
 SCF Done:  E(UM062X) =  -381.151681097     A.U. after    8 cycles
 SCF Done:  E(UM062X) =  -381.150780327     A.U. after   11 cycles
 SCF Done:  E(UM062X) =  -381.151716626     A.U. after    9 cycles
 SCF Done:  E(UM062X) =  -381.151716857     A.U. after    8 cycles
 Optimization completed.
    -- Stationary point found.

                          Input orientation:
 ---------------------------------------------------------------------
 Center     Atomic      Atomic             Coordinates (Angstroms)
 Number     Number       Type             X           Y           Z
 ---------------------------------------------------------------------
      1          6           0       -0.980452    0.000000    0.000000
      2         15           0        0.980452    0.000000    0.000000
      3          1           0       -1.539228   -0.927543   -0.001615
      4          1           0        1.043328   -1.418260   -0.002546
      5          1           0       -1.499492    0.950313    0.001796
 ---------------------------------------------------------------------

 Alpha  occ. eigenvalues --  -78.04553 -10.59560  -6.86678  -4.98185  -4.98155
 Alpha  occ. eigenvalues --   -4.97961  -0.78463  -0.65281  -0.51395  -0.41744
 Alpha  occ. eigenvalues --   -0.34988  -0.29309
 Alpha virt. eigenvalues --   -0.06779   0.00948   0.02603   0.04220   0.05152
 Alpha virt. eigenvalues --    0.06060   0.07675   0.08751   0.10756   0.12363
 Alpha virt. eigenvalues --    0.15320   0.19312   0.21283   0.30603   0.33093

  Beta  occ. eigenvalues --  -78.04553 -10.59560  -6.86678  -4.98185  -4.98155
  Beta  occ. eigenvalues --   -4.97961  -0.78463  -0.65281  -0.51395  -0.41744
  Beta  occ. eigenvalues --   -0.34988  -0.29309
  Beta virt. eigenvalues --   -0.06779   0.00948   0.02603   0.04220   0.05152
  Beta virt. eigenvalues --    0.06060   0.07675   0.08751   0.10756   0.12363
  Beta virt. eigenvalues --    0.15320   0.19312   0.21283   0.30603   0.33093

 Mulliken charges and spin densities:
               1          2
     1  C   -0.451286   0.000000
     2  P    0.105774  -0.000000
     3  H    0.186544  -0.000000
     4  H   -0.027839   0.000000
     5  H    0.186806   0.000000
 Sum of Mulliken charges =  -0.00000  -0.00000

 Dipole moment (field-independent basis, Debye):
    X=             -0.6539    Y=             -0.5710    Z=             -0.0009  Tot=              0.8681
 Quadrupole moment (field-independent basis, Debye-Ang):
   XX=            -19.5928   YY=            -19.9710   ZZ=            -23.1765
   XY=             -1.1715   XZ=             -0.0022   YZ=              0.0058

 Normal termination of Gaussian 16 at Mon Apr 21 19:12:23 2025.
