 Gaussian 16, Revision A.03,
 Gaussian 16:  ES64L-G16RevA.03 25-Dec-2016

 ---------------------------------------
 #p UM062X/6-311+G** force int=superfine
 ---------------------------------------

 -------------------
 Title Card Required
 -------------------
 Symbolic Z-matrix:
 Charge =  0 Multiplicity = 1

                         Standard orientation:
 ---------------------------------------------------------------------
 Center     Atomic      Atomic             Coordinates (Angstroms)
 Number     Number       Type             X           Y           Z
 ---------------------------------------------------------------------
      1          6           0       -1.000298   -0.000002    0.000000
      2          6           0        1.000298    0.000001   -0.000000
      3          1           0        1.293554   -0.470555   -0.933052
      4          1           0       -1.293557    0.572805   -0.874018
      5          1           0        1.293559   -0.572803    0.874017
      6          1           0        1.293614    1.043307    0.059032
      7          1           0       -1.293554    0.470555    0.933053
      8          1           0       -1.293616   -1.043306   -0.059032
 ---------------------------------------------------------------------

 SCF Done:  E(UM062X) =  -79.7442148365     A.U. after    9 cycles

 The electronic state is 1-A.
 Alpha  occ. eigenvalues --  -10.54483 -10.54473  -0.79208  -0.72457  -0.48441
 Alpha  occ. eigenvalues --   -0.48441  -0.44189  -0.44189  -0.33609
 Alpha virt. eigenvalues --    0.02324   0.02768   0.05636   0.05636   0.08503
 Alpha virt. eigenvalues --    0.08503   0.09471   0.11616   0.13896   0.18215
 Alpha virt. eigenvalues --    0.18216   0.22010   0.22010   0.24291   0.27044

  Beta  occ. eigenvalues --  -10.54483 -10.54473  -0.79208  -0.72457  -0.48441
  Beta  occ. eigenvalues --   -0.48441  -0.44189  -0.44189  -0.33609
  Beta virt. eigenvalues --    0.02324   0.02768   0.05636   0.05636   0.08503
  Beta virt. eigenvalues --    0.08503   0.09471   0.11616   0.13896   0.18215
  Beta virt. eigenvalues --    0.18216   0.22010   0.22010   0.24291   0.27044

 Mulliken charges and spin densities:
               1          2
     1  C   -0.496993  -0.000000
     2  C   -0.496993   0.000000
     3  H    0.165664  -0.000000
     4  H    0.165665  -0.000000
     5  H    0.165665  -0.000000
     6  H    0.165664  -0.000000
     7  H    0.165664  -0.000000
     8  H    0.165664  -0.000000
 Sum of Mulliken charges =  -0.00000   0.00000

 Dipole moment (field-independent basis, Debye):
    X=              0.0000    Y=             -0.0000    Z=              0.0000  Tot=              0.0000
 Quadrupole moment (field-independent basis, Debye-Ang):
   XX=            -15.5947   YY=            -14.8841   ZZ=            -14.8843
   XY=              0.0001   XZ=              0.0000   YZ=              0.0000

 Normal termination of Gaussian 16 at Tue Nov 19 12:50:34 2024.
