 Gaussian 16, Revision A.03,
 Gaussian 16:  ES64L-G16RevA.03 25-Dec-2016

 ---------------------------------------------------
 #p UM062X/6-311+G** force int=superfine pop=saveNBO
 ---------------------------------------------------

 -------------------
 Title Card Required
 -------------------
 Symbolic Z-matrix:
 Charge =  0 Multiplicity = 1

                         Standard orientation:
 ---------------------------------------------------------------------
 Center     Atomic      Atomic             Coordinates (Angstroms)
 Number     Number       Type             X           Y           Z
 ---------------------------------------------------------------------
      1          8           0        0.000000    0.000000    1.643562
      2          8           0        0.000000    0.000000   -1.643562
 ---------------------------------------------------------------------

 SCF Done:  E(UM062X) =  -149.793230528     A.U. after   10 cycles

 Unable to determine electronic state:  partially filled degenerate orbitals.
 Alpha  occ. eigenvalues --  -19.82667 -19.82665  -1.10400  -1.09902  -0.48683
 Alpha  occ. eigenvalues --   -0.48423  -0.40756  -0.39860
 Alpha virt. eigenvalues --   -0.31030  -0.29948   0.09401   0.12565   0.14388
 Alpha virt. eigenvalues --    0.14436   0.18754   0.19396   0.19639   0.28851
 Alpha virt. eigenvalues --    0.99930   1.01191   1.01311   1.02090   1.02624

  Beta  occ. eigenvalues --  -19.82667 -19.82665  -1.10400  -1.09902  -0.48683
  Beta  occ. eigenvalues --   -0.48423  -0.40756  -0.39860
  Beta virt. eigenvalues --   -0.31030  -0.29948   0.09401   0.12565   0.14388
  Beta virt. eigenvalues --    0.14436   0.18754   0.19396   0.19639   0.28851
  Beta virt. eigenvalues --    0.99930   1.01191   1.01311   1.02090   1.02624

 Mulliken charges and spin densities:
               1          2
     1  O   -0.000000   0.000000
     2  O   -0.000000   0.000000
 Sum of Mulliken charges =  -0.00000   0.00000

 Dipole moment (field-independent basis, Debye):
    X=             -0.0000    Y=              0.0000    Z=              0.0000  Tot=              0.0000
 Quadrupole moment (field-independent basis, Debye-Ang):
   XX=            -12.0384   YY=            -10.1820   ZZ=             -9.2332
   XY=             -0.0000   XZ=             -0.0000   YZ=              0.0000

 Summary of Natural Population Analysis:

                                       Natural Population
                Natural  -----------------------------------------------
    Atom  No    Charge         Core      Valence    Rydberg      Total
 -----------------------------------------------------------------------
      O    1    0.00000      1.00000     2.99903    0.00097     4.00000
      O    2    0.00000      1.00000     2.99903    0.00097     4.00000
 =======================================================================
   * Total *    0.00000      2.00000     5.99805    0.00195     8.00000

 Normal termination of Gaussian 16 at Mon Apr 21 19:54:35 2025.
