 Gaussian 16, Revision A.03,
 Gaussian 16:  ES64L-G16RevA.03 25-Dec-2016

 --------------------------------------------
 #p opt UM062X/6-311+G** nosymm int=superfine
 --------------------------------------------

 -------------------
 Title Card Required
 -------------------
 Symbolic Z-matrix:
 Charge =  0 Multiplicity = 1

 SCF Done:  E(UM062X) =  -79.6869846075     A.U. after    8 cycles
 SCF Done:  E(UM062X) =  -79.7135921978     A.U. after    8 cycles
 SCF Done:  E(UM062X) =  -79.7323897560     A.U. after   10 cycles
 SCF Done:  E(UM062X) =  -79.7327171154     A.U. after    8 cycles
 Optimization completed.
    -- Stationary point found.

                          Input orientation:
 ---------------------------------------------------------------------
 Center     Atomic      Atomic             Coordinates (Angstroms)
 Number     Number       Type             X           Y           Z
 ---------------------------------------------------------------------
      1          6           0       -1.038424    0.000000    0.000000
      2          6           0        1.038530    0.000000    0.000000
      3          1           0        1.316092   -0.907733    0.525291
      4          1           0       -1.315988   -0.908761   -0.523521
      5          1           0        1.316096    0.908759    0.523520
      6          1           0        1.316164   -0.001024   -1.048748
      7          1           0       -1.315985    0.907734   -0.525291
      8          1           0       -1.316060    0.001024    1.048745
 ---------------------------------------------------------------------

 Alpha  occ. eigenvalues --  -10.54756 -10.54747  -0.78738  -0.72784  -0.48349
 Alpha  occ. eigenvalues --   -0.48349  -0.44639  -0.44638  -0.32470
 Alpha virt. eigenvalues --    0.02225   0.02357   0.05625   0.05625   0.08458
 Alpha virt. eigenvalues --    0.08458   0.09575   0.10280   0.13577   0.18178
 Alpha virt. eigenvalues --    0.18179   0.22060   0.22060   0.24308   0.26868

  Beta  occ. eigenvalues --  -10.54756 -10.54747  -0.78738  -0.72784  -0.48349
  Beta  occ. eigenvalues --   -0.48349  -0.44639  -0.44638  -0.32470
  Beta virt. eigenvalues --    0.02225   0.02357   0.05625   0.05625   0.08458
  Beta virt. eigenvalues --    0.08458   0.09575   0.10280   0.13577   0.18178
  Beta virt. eigenvalues --    0.18179   0.22060   0.22060   0.24308   0.26868

 Mulliken charges and spin densities:
               1          2
     1  C   -0.499842   0.000000
     2  C   -0.499842  -0.000000
     3  H    0.166615   0.000000
     4  H    0.166614  -0.000000
     5  H    0.166614   0.000000
     6  H    0.166613   0.000000
     7  H    0.166615  -0.000000
     8  H    0.166613  -0.000000
 Sum of Mulliken charges =  -0.00000   0.00000

 Dipole moment (field-independent basis, Debye):
    X=              0.0000    Y=              0.0000    Z=              0.0000  Tot=              0.0000
 Quadrupole moment (field-independent basis, Debye-Ang):
   XX=            -15.5908   YY=            -14.8663   ZZ=            -14.8661
   XY=             -0.0000   XZ=             -0.0001   YZ=              0.0000

 Normal termination of Gaussian 16 at Tue Nov 19 12:08:09 2024.
