 Gaussian 16, Revision A.03,
 Gaussian 16:  ES64L-G16RevA.03 25-Dec-2016

 --------------------------------------------
 #p opt UM062X/6-311+G** nosymm int=superfine
 --------------------------------------------

 -------------------
 Title Card Required
 -------------------
 Symbolic Z-matrix:
 Charge = -1 Multiplicity = 2

 SCF Done:  E(UM062X) =  -53.2152445065     A.U. after   11 cycles
 SCF Done:  E(UM062X) =  -53.2176401660     A.U. after   10 cycles
 SCF Done:  E(UM062X) =  -53.2181528390     A.U. after   10 cycles
 SCF Done:  E(UM062X) =  -53.2181535782     A.U. after    8 cycles
 Optimization completed.
    -- Stationary point found.

                          Input orientation:
 ---------------------------------------------------------------------
 Center     Atomic      Atomic             Coordinates (Angstroms)
 Number     Number       Type             X           Y           Z
 ---------------------------------------------------------------------
      1          5           0       -1.640672    0.000000    0.000000
      2          5           0        1.640672    0.000000    0.000000
      3          1           0        1.739634   -1.195631   -0.000012
      4          1           0       -1.739480   -0.597817    1.035460
      5          1           0        1.739623    0.597835   -1.035438
      6          1           0        1.739435    0.597803    1.035472
      7          1           0       -1.739641    1.195631    0.000001
      8          1           0       -1.739570   -0.597822   -1.035450
 ---------------------------------------------------------------------

 Alpha  occ. eigenvalues --   -6.83148  -6.83146  -0.39263  -0.37759  -0.20831
 Alpha  occ. eigenvalues --   -0.20830  -0.20004  -0.20004   0.00176
 Alpha virt. eigenvalues --    0.14203   0.17184   0.17667   0.17667   0.18798
 Alpha virt. eigenvalues --    0.18798   0.21272   0.22754   0.22831   0.32951
 Alpha virt. eigenvalues --    0.32951   0.35914   0.35914   0.38664   0.39784

  Beta  occ. eigenvalues --   -6.83105  -6.83104  -0.37202  -0.36237  -0.20553
  Beta  occ. eigenvalues --   -0.20553  -0.19842  -0.19842
  Beta virt. eigenvalues --    0.13327   0.14397   0.16123   0.16401   0.16401
  Beta virt. eigenvalues --    0.18361   0.18361   0.23189   0.23774   0.27179
  Beta virt. eigenvalues --    0.32274   0.32274   0.35676   0.35677   0.38708

 Mulliken charges and spin densities:
               1          2
     1  B   -0.306442   0.592261
     2  B   -0.306442   0.592261
     3  H   -0.064521  -0.030751
     4  H   -0.064516  -0.030755
     5  H   -0.064523  -0.030755
     6  H   -0.064514  -0.030755
     7  H   -0.064522  -0.030751
     8  H   -0.064520  -0.030755
 Sum of Mulliken charges =  -1.00000   1.00000

 Dipole moment (field-independent basis, Debye):
    X=              0.0000    Y=             -0.0000    Z=              0.0000  Tot=              0.0000
 Quadrupole moment (field-independent basis, Debye-Ang):
   XX=            -37.8243   YY=            -24.1652   ZZ=            -24.1652
   XY=              0.0000   XZ=              0.0000   YZ=              0.0000

 Normal termination of Gaussian 16 at Mon Apr 21 16:53:42 2025.
