 Gaussian 16, Revision A.03,
 Gaussian 16:  ES64L-G16RevA.03 25-Dec-2016

 --------------------------------------------
 #p opt UM062X/6-311+G** nosymm int=superfine
 --------------------------------------------

 -------------------
 Title Card Required
 -------------------
 Symbolic Z-matrix:
 Charge =  0 Multiplicity = 1

 SCF Done:  E(UM062X) =  -379.609368292     A.U. after   15 cycles
 SCF Done:  E(UM062X) =  -379.610567628     A.U. after   11 cycles
 SCF Done:  E(UM062X) =  -379.610571663     A.U. after    9 cycles
 Optimization completed.
    -- Stationary point found.

                          Input orientation:
 ---------------------------------------------------------------------
 Center     Atomic      Atomic             Coordinates (Angstroms)
 Number     Number       Type             X           Y           Z
 ---------------------------------------------------------------------
      1          6           0       -1.515377    0.000000    0.000000
      2         15           0        1.515377    0.000000    0.000000
      3          1           0       -2.633781   -0.000000    0.000000
 ---------------------------------------------------------------------

 Alpha  occ. eigenvalues --  -78.08803 -10.70827  -6.90569  -5.02397  -5.01564
 Alpha  occ. eigenvalues --   -5.01564  -0.75712  -0.61537  -0.41810  -0.25118
 Alpha  occ. eigenvalues --   -0.25118
 Alpha virt. eigenvalues --   -0.14053  -0.14053  -0.11089   0.01317   0.04001
 Alpha virt. eigenvalues --    0.05903   0.05903   0.07507   0.09036   0.09036
 Alpha virt. eigenvalues --    0.14230   0.18309   0.32798   0.32798   0.32928

  Beta  occ. eigenvalues --  -78.08803 -10.70827  -6.90569  -5.02397  -5.01564
  Beta  occ. eigenvalues --   -5.01564  -0.75712  -0.61537  -0.41810  -0.25118
  Beta  occ. eigenvalues --   -0.25118
  Beta virt. eigenvalues --   -0.14053  -0.14053  -0.11089   0.01317   0.04001
  Beta virt. eigenvalues --    0.05903   0.05903   0.07507   0.09036   0.09036
  Beta virt. eigenvalues --    0.14230   0.18309   0.32798   0.32798   0.32928

 Mulliken charges and spin densities:
               1          2
     1  C   -0.201894  -0.000003
     2  P    0.018379   0.000003
     3  H    0.183515   0.000000
 Sum of Mulliken charges =  -0.00000  -0.00000

 Dipole moment (field-independent basis, Debye):
    X=             -1.9097    Y=             -0.0000    Z=             -0.0000  Tot=              1.9097
 Quadrupole moment (field-independent basis, Debye-Ang):
   XX=            -10.9222   YY=            -23.9210   ZZ=            -23.9210
   XY=             -0.0000   XZ=             -0.0000   YZ=             -0.0000

 Normal termination of Gaussian 16 at Mon Apr 21 19:27:13 2025.
