 Gaussian 16, Revision A.03,
 Gaussian 16:  ES64L-G16RevA.03 25-Dec-2016

 --------------------------------------------
 #p opt UM062X/6-311+G** nosymm int=superfine
 --------------------------------------------

 -------------------
 Title Card Required
 -------------------
 Symbolic Z-matrix:
 Charge =  0 Multiplicity = 1

 SCF Done:  E(UM062X) =  -438.673415876     A.U. after   10 cycles
 SCF Done:  E(UM062X) =  -438.675058130     A.U. after    9 cycles
 SCF Done:  E(UM062X) =  -438.675097579     A.U. after    8 cycles
 SCF Done:  E(UM062X) =  -438.675099950     A.U. after    8 cycles
 Optimization completed.
    -- Stationary point found.

                          Input orientation:
 ---------------------------------------------------------------------
 Center     Atomic      Atomic             Coordinates (Angstroms)
 Number     Number       Type             X           Y           Z
 ---------------------------------------------------------------------
      1          6           0       -0.827808   -0.025251   -0.021827
      2         16           0        0.871628   -0.616254   -0.298650
      3          1           0        1.493054    0.434276    0.257171
      4          1           0       -1.486211   -0.791533   -0.427561
      5          1           0       -1.011954    0.908798   -0.548796
      6          1           0       -1.037922    0.089862    1.039611
 ---------------------------------------------------------------------

 Alpha  occ. eigenvalues --  -89.88937 -10.56688  -8.25551  -6.17696  -6.17475
 Alpha  occ. eigenvalues --   -6.17041  -0.87560  -0.73170  -0.51853  -0.50051
 Alpha  occ. eigenvalues --   -0.45189  -0.39130  -0.29467
 Alpha virt. eigenvalues --    0.01266   0.03285   0.04761   0.05265   0.06911
 Alpha virt. eigenvalues --    0.08164   0.08879   0.09948   0.13083   0.14422
 Alpha virt. eigenvalues --    0.17823   0.17900   0.26324   0.33255   0.34956

  Beta  occ. eigenvalues --  -89.88937 -10.56688  -8.25551  -6.17696  -6.17475
  Beta  occ. eigenvalues --   -6.17041  -0.87560  -0.73170  -0.51853  -0.50051
  Beta  occ. eigenvalues --   -0.45189  -0.39130  -0.29467
  Beta virt. eigenvalues --    0.01266   0.03285   0.04761   0.05265   0.06911
  Beta virt. eigenvalues --    0.08164   0.08879   0.09948   0.13083   0.14422
  Beta virt. eigenvalues --    0.17823   0.17900   0.26324   0.33255   0.34956

 Mulliken charges and spin densities:
               1          2
     1  C   -0.620797  -0.000000
     2  S   -0.016627   0.000000
     3  H    0.063062   0.000000
     4  H    0.191213   0.000000
     5  H    0.191612   0.000000
     6  H    0.191537   0.000000
 Sum of Mulliken charges =  -0.00000  -0.00000

 Dipole moment (field-independent basis, Debye):
    X=             -1.0378    Y=              1.2361    Z=              0.6234  Tot=              1.7302
 Quadrupole moment (field-independent basis, Debye-Ang):
   XX=            -20.0337   YY=            -21.8583   ZZ=            -22.5557
   XY=              2.0137   XZ=              1.0877   YZ=              0.5690

 Normal termination of Gaussian 16 at Wed Apr 16 03:47:26 2025.
