 Gaussian 16, Revision A.03,
 Gaussian 16:  ES64L-G16RevA.03 25-Dec-2016

 --------------------------------------------
 #p opt UM062X/6-311+G** nosymm int=superfine
 --------------------------------------------

 -------------------
 Title Card Required
 -------------------
 Symbolic Z-matrix:
 Charge =  0 Multiplicity = 1

 SCF Done:  E(UM062X) =  -582.497003178     A.U. after    9 cycles
 SCF Done:  E(UM062X) =  -582.497389501     A.U. after    8 cycles
 SCF Done:  E(UM062X) =  -582.497432989     A.U. after    7 cycles
 Optimization completed.
    -- Stationary point found.

                          Input orientation:
 ---------------------------------------------------------------------
 Center     Atomic      Atomic             Coordinates (Angstroms)
 Number     Number       Type             X           Y           Z
 ---------------------------------------------------------------------
      1         14           0       -1.419819    0.000000    0.000000
      2         14           0        1.419819    0.000000    0.000000
      3          1           0        1.895711   -1.399665   -0.000046
      4          1           0       -1.895769   -0.699675    1.212224
      5          1           0        1.895850    0.699830   -1.212102
      6          1           0        1.895773    0.699726    1.212193
      7          1           0       -1.895713    1.399664   -0.000107
      8          1           0       -1.895852   -0.699882   -1.212071
 ---------------------------------------------------------------------

 Alpha  occ. eigenvalues --  -67.00294 -67.00294  -5.55193  -5.55192  -3.86362
 Alpha  occ. eigenvalues --   -3.86354  -3.86277  -3.86277  -3.86277  -3.86276
 Alpha  occ. eigenvalues --   -0.62004  -0.58928  -0.41609  -0.41609  -0.40443
 Alpha  occ. eigenvalues --   -0.40442  -0.30077
 Alpha virt. eigenvalues --   -0.01079   0.02014   0.03042   0.03042   0.04554
 Alpha virt. eigenvalues --    0.05080   0.05619   0.05619   0.06233   0.06233
 Alpha virt. eigenvalues --    0.08600   0.09120   0.09121   0.15447   0.17675

  Beta  occ. eigenvalues --  -67.00294 -67.00294  -5.55193  -5.55192  -3.86362
  Beta  occ. eigenvalues --   -3.86354  -3.86277  -3.86277  -3.86277  -3.86276
  Beta  occ. eigenvalues --   -0.62004  -0.58928  -0.41609  -0.41609  -0.40443
  Beta  occ. eigenvalues --   -0.40442  -0.30077
  Beta virt. eigenvalues --   -0.01079   0.02014   0.03042   0.03042   0.04554
  Beta virt. eigenvalues --    0.05080   0.05619   0.05619   0.06233   0.06233
  Beta virt. eigenvalues --    0.08600   0.09120   0.09121   0.15447   0.17675

 Mulliken charges and spin densities:
               1          2
     1  Si   0.297392  -0.000000
     2  Si   0.297392   0.000000
     3  H   -0.099133  -0.000000
     4  H   -0.099130   0.000000
     5  H   -0.099129  -0.000000
     6  H   -0.099130  -0.000000
     7  H   -0.099133   0.000000
     8  H   -0.099129  -0.000000
 Sum of Mulliken charges =  -0.00000  -0.00000

 Dipole moment (field-independent basis, Debye):
    X=              0.0000    Y=              0.0000    Z=             -0.0000  Tot=              0.0000
 Quadrupole moment (field-independent basis, Debye-Ang):
   XX=            -31.4609   YY=            -31.5787   ZZ=            -31.5785
   XY=              0.0004   XZ=              0.0000   YZ=              0.0000

 Normal termination of Gaussian 16 at Mon Apr 21 20:19:12 2025.
