 Gaussian 16, Revision A.03,
 Gaussian 16:  ES64L-G16RevA.03 25-Dec-2016

 ---------------------------------------------------
 #p UM062X/6-311+G** force int=superfine pop=saveNBO
 ---------------------------------------------------

 -------------------
 Title Card Required
 -------------------
 Symbolic Z-matrix:
 Charge =  0 Multiplicity = 1

                         Standard orientation:
 ---------------------------------------------------------------------
 Center     Atomic      Atomic             Coordinates (Angstroms)
 Number     Number       Type             X           Y           Z
 ---------------------------------------------------------------------
      1         15           0        0.000000    0.000000    1.263495
      2         15           0        0.000000    0.000000   -1.263495
 ---------------------------------------------------------------------

 SCF Done:  E(UM062X) =  -682.528620223     A.U. after    9 cycles

 The electronic state is 1-SGG.
 Alpha  occ. eigenvalues --  -78.10385 -78.10385  -6.91995  -6.91990  -5.03363
 Alpha  occ. eigenvalues --   -5.03363  -5.03362  -5.03362  -5.03230  -5.03223
 Alpha  occ. eigenvalues --   -0.68711  -0.58843  -0.33108  -0.28876  -0.28876
 Alpha virt. eigenvalues --   -0.12632  -0.12632  -0.03647   0.02499   0.04147
 Alpha virt. eigenvalues --    0.04499   0.04499   0.05954   0.06776   0.06776
 Alpha virt. eigenvalues --    0.12250   0.30008   0.30202   0.30998   0.30998

  Beta  occ. eigenvalues --  -78.10385 -78.10385  -6.91995  -6.91990  -5.03363
  Beta  occ. eigenvalues --   -5.03363  -5.03362  -5.03362  -5.03230  -5.03223
  Beta  occ. eigenvalues --   -0.68711  -0.58843  -0.33108  -0.28876  -0.28876
  Beta virt. eigenvalues --   -0.12632  -0.12632  -0.03647   0.02499   0.04147
  Beta virt. eigenvalues --    0.04499   0.04499   0.05954   0.06776   0.06776
  Beta virt. eigenvalues --    0.12250   0.30008   0.30202   0.30998   0.30998

 Mulliken charges and spin densities:
               1          2
     1  P   -0.000000  -0.000000
     2  P   -0.000000  -0.000000
 Sum of Mulliken charges =  -0.00000  -0.00000

 Dipole moment (field-independent basis, Debye):
    X=              0.0000    Y=              0.0000    Z=             -0.0000  Tot=              0.0000
 Quadrupole moment (field-independent basis, Debye-Ang):
   XX=            -28.4061   YY=            -28.4061   ZZ=            -25.5147
   XY=              0.0000   XZ=             -0.0000   YZ=              0.0000

 Summary of Natural Population Analysis:

                                       Natural Population
                Natural  -----------------------------------------------
    Atom  No    Charge         Core      Valence    Rydberg      Total
 -----------------------------------------------------------------------
      P    1   -0.00000      4.99994     2.49464    0.00542     7.50000
      P    2   -0.00000      4.99994     2.49464    0.00542     7.50000
 =======================================================================
   * Total *   -0.00000      9.99988     4.98928    0.01085    15.00000

 Normal termination of Gaussian 16 at Mon Apr 21 21:20:36 2025.
