 Gaussian 16, Revision A.03,
 Gaussian 16:  ES64L-G16RevA.03 25-Dec-2016

 --------------------------------------------
 #p opt UM062X/6-311+G** nosymm int=superfine
 --------------------------------------------

 -------------------
 Title Card Required
 -------------------
 Symbolic Z-matrix:
 Charge = -1 Multiplicity = 2

 SCF Done:  E(UM062X) =  -26.5862053555     A.U. after   14 cycles
 SCF Done:  E(UM062X) =  -26.5881201332     A.U. after   13 cycles
 SCF Done:  E(UM062X) =  -26.5883569582     A.U. after   12 cycles
 SCF Done:  E(UM062X) =  -26.5883653896     A.U. after   10 cycles
 Optimization completed.
    -- Stationary point found.

                          Input orientation:
 ---------------------------------------------------------------------
 Center     Atomic      Atomic             Coordinates (Angstroms)
 Number     Number       Type             X           Y           Z
 ---------------------------------------------------------------------
      1          5           0       -1.246004   -0.000148   -0.000018
      2          1           0       -1.246054   -1.044761   -0.601609
      3          1           0       -1.246537    1.043290   -0.603642
      4          1           0       -1.245905    0.001026    1.205448
 ---------------------------------------------------------------------

 Alpha  occ. eigenvalues --   -6.78199  -0.34277  -0.16553  -0.16550   0.04565
 Alpha virt. eigenvalues --    0.18464   0.20277   0.20277   0.23450   0.37055
 Alpha virt. eigenvalues --    0.37057   0.37192   0.54962   0.54962   0.60742
 Alpha virt. eigenvalues --    0.63806   0.78508   0.78513   0.81661   1.05312

  Beta  occ. eigenvalues --   -6.78083  -0.32026  -0.16129  -0.16126
  Beta virt. eigenvalues --    0.15152   0.16245   0.18680   0.18680   0.29683
  Beta virt. eigenvalues --    0.35895   0.35897   0.35980   0.54114   0.54114
  Beta virt. eigenvalues --    0.60966   0.63580   0.79497   0.79503   0.82467

 Mulliken charges and spin densities:
               1          2
     1  B   -0.768216   1.135390
     2  H   -0.077261  -0.045130
     3  H   -0.077261  -0.045130
     4  H   -0.077262  -0.045130
 Sum of Mulliken charges =  -1.00000   1.00000

 Dipole moment (field-independent basis, Debye):
    X=              5.9842    Y=              0.0007    Z=             -0.0001  Tot=              5.9842
 Quadrupole moment (field-independent basis, Debye-Ang):
   XX=            -29.1889   YY=            -16.0578   ZZ=            -16.0583
   XY=             -0.0022   XZ=              0.0014   YZ=              0.0000

 Normal termination of Gaussian 16 at Wed Apr 16 06:49:18 2025.
