 Gaussian 16, Revision A.03,
 Gaussian 16:  ES64L-G16RevA.03 25-Dec-2016

 --------------------------------------------
 #p opt UM062X/6-311+G** nosymm int=superfine
 --------------------------------------------

 -------------------
 Title Card Required
 -------------------
 Symbolic Z-matrix:
 Charge = -1 Multiplicity = 2

 SCF Done:  E(UM062X) =  -51.8453746315     A.U. after   12 cycles
 SCF Done:  E(UM062X) =  -51.8453996198     A.U. after    9 cycles
 SCF Done:  E(UM062X) =  -51.8454009902     A.U. after   12 cycles
 SCF Done:  E(UM062X) =  -51.8454014687     A.U. after   13 cycles
 Optimization completed.
    -- Stationary point found.

                          Input orientation:
 ---------------------------------------------------------------------
 Center     Atomic      Atomic             Coordinates (Angstroms)
 Number     Number       Type             X           Y           Z
 ---------------------------------------------------------------------
      1          5           0       -2.222274    0.000000    0.000000
      2          5           0        2.222274    0.000000    0.000000
      3          1           0       -2.888113   -1.013880    0.000190
      4          1           0        2.888113    1.013880   -0.000285
      5          1           0       -2.888116    1.013879    0.000209
      6          1           0        2.888116   -1.013878    0.000685
 ---------------------------------------------------------------------

 Alpha  occ. eigenvalues --   -6.88268  -6.88268  -0.38394  -0.38342  -0.22561
 Alpha  occ. eigenvalues --   -0.22529  -0.05578  -0.03286
 Alpha virt. eigenvalues --    0.11584   0.12643   0.14800   0.15272   0.15514
 Alpha virt. eigenvalues --    0.17341   0.19551   0.20536   0.20671   0.22936
 Alpha virt. eigenvalues --    0.31952   0.33099   0.33640   0.36140   0.50664

  Beta  occ. eigenvalues --   -6.87680  -6.87679  -0.37045  -0.36923  -0.21856
  Beta  occ. eigenvalues --   -0.21811   0.01979
  Beta virt. eigenvalues --    0.12103   0.12948   0.13794   0.14421   0.15697
  Beta virt. eigenvalues --    0.17731   0.18099   0.21939   0.22149   0.24212
  Beta virt. eigenvalues --    0.25262   0.32024   0.33297   0.33805   0.36959

 Mulliken charges and spin densities:
               1          2
     1  B   -0.346090   0.492172
     2  B   -0.346090   0.492172
     3  H   -0.076955   0.003914
     4  H   -0.076955   0.003914
     5  H   -0.076955   0.003914
     6  H   -0.076955   0.003914
 Sum of Mulliken charges =  -1.00000   1.00000

 Dipole moment (field-independent basis, Debye):
    X=              0.0000    Y=              0.0000    Z=              0.0015  Tot=              0.0015
 Quadrupole moment (field-independent basis, Debye-Ang):
   XX=            -43.4335   YY=            -24.3710   ZZ=            -18.9060
   XY=              0.0000   XZ=              0.0000   YZ=              0.0013

 Normal termination of Gaussian 16 at Mon Apr 21 17:27:13 2025.
