 Gaussian 16, Revision A.03,
 Gaussian 16:  ES64L-G16RevA.03 25-Dec-2016

 --------------------------------------------
 #p opt UM062X/6-311+G** nosymm int=superfine
 --------------------------------------------

 -------------------
 Title Card Required
 -------------------
 Symbolic Z-matrix:
 Charge =  0 Multiplicity = 1

 SCF Done:  E(UM062X) =  -94.5988936554     A.U. after   10 cycles
 SCF Done:  E(UM062X) =  -94.5994381808     A.U. after    9 cycles
 SCF Done:  E(UM062X) =  -94.5994727258     A.U. after    8 cycles
 SCF Done:  E(UM062X) =  -94.5994725895     A.U. after    7 cycles
 SCF Done:  E(UM062X) =  -94.5994723915     A.U. after    7 cycles
 SCF Done:  E(UM062X) =  -94.5994741543     A.U. after    7 cycles
 Optimization completed.
    -- Stationary point found.

                          Input orientation:
 ---------------------------------------------------------------------
 Center     Atomic      Atomic             Coordinates (Angstroms)
 Number     Number       Type             X           Y           Z
 ---------------------------------------------------------------------
      1          6           0       -0.681637    0.000000    0.000000
      2          7           0        0.681637    0.000000    0.000000
      3          1           0       -1.279442   -0.910008    0.000020
      4          1           0        0.986246   -0.977009   -0.000099
      5          1           0       -1.181234    0.963276   -0.000029
 ---------------------------------------------------------------------

 Alpha  occ. eigenvalues --  -14.76421 -10.60410  -0.98747  -0.72027  -0.56827
 Alpha  occ. eigenvalues --   -0.49565  -0.38079  -0.35642
 Alpha virt. eigenvalues --   -0.00887   0.01806   0.03682   0.04981   0.07490
 Alpha virt. eigenvalues --    0.13013   0.16183   0.16455   0.18257   0.21269
 Alpha virt. eigenvalues --    0.24813   0.25860   0.33057   0.47536   0.48862

  Beta  occ. eigenvalues --  -14.76421 -10.60410  -0.98747  -0.72027  -0.56827
  Beta  occ. eigenvalues --   -0.49565  -0.38079  -0.35642
  Beta virt. eigenvalues --   -0.00887   0.01806   0.03682   0.04981   0.07490
  Beta virt. eigenvalues --    0.13013   0.16183   0.16455   0.18257   0.21269
  Beta virt. eigenvalues --    0.24813   0.25860   0.33057   0.47536   0.48862

 Mulliken charges and spin densities:
               1          2
     1  C   -0.228567  -0.000000
     2  N   -0.278483   0.000000
     3  H    0.144674   0.000000
     4  H    0.197893  -0.000000
     5  H    0.164482   0.000000
 Sum of Mulliken charges =   0.00000  -0.00000

 Dipole moment (field-independent basis, Debye):
    X=             -1.8342    Y=             -1.5145    Z=             -0.0001  Tot=              2.3786
 Quadrupole moment (field-independent basis, Debye-Ang):
   XX=            -12.7623   YY=            -11.4792   ZZ=            -14.1573
   XY=             -1.9688   XZ=             -0.0001   YZ=              0.0001

 Normal termination of Gaussian 16 at Mon Apr 21 18:13:56 2025.
