 Gaussian 16, Revision A.03,
 Gaussian 16:  ES64L-G16RevA.03 25-Dec-2016

 --------------------------------------------
 #p opt UM062X/6-311+G** nosymm int=superfine
 --------------------------------------------

 -------------------
 Title Card Required
 -------------------
 Symbolic Z-matrix:
 Charge =  0 Multiplicity = 1

 SCF Done:  E(UM062X) =  -95.5921855415     A.U. after   14 cycles
 SCF Done:  E(UM062X) =  -95.6081051656     A.U. after   11 cycles
 SCF Done:  E(UM062X) =  -95.6195190709     A.U. after   16 cycles
 SCF Done:  E(UM062X) =  -95.6199828216     A.U. after   11 cycles
 SCF Done:  E(UM062X) =  -95.6203366833     A.U. after   12 cycles
 SCF Done:  E(UM062X) =  -95.6204532189     A.U. after   10 cycles
 SCF Done:  E(UM062X) =  -95.6204758607     A.U. after   11 cycles
 SCF Done:  E(UM062X) =  -95.6204799912     A.U. after   10 cycles
 SCF Done:  E(UM062X) =  -95.6204814983     A.U. after   11 cycles
 SCF Done:  E(UM062X) =  -95.6204835933     A.U. after   10 cycles
 SCF Done:  E(UM062X) =  -95.6204847862     A.U. after   11 cycles
 SCF Done:  E(UM062X) =  -95.6204850976     A.U. after    9 cycles
 Optimization completed.
    -- Stationary point found.

                          Input orientation:
 ---------------------------------------------------------------------
 Center     Atomic      Atomic             Coordinates (Angstroms)
 Number     Number       Type             X           Y           Z
 ---------------------------------------------------------------------
      1          6           0       -1.755542    0.000000    0.000000
      2          7           0        1.755542    0.000000    0.000000
      3          1           0        1.708186   -1.015268    0.139448
      4          1           0       -1.755263    1.080367    0.009684
      5          1           0        1.708463    0.368379    0.956317
      6          1           0       -1.755107   -0.524663   -0.944463
      7          1           0       -1.884739   -0.548290    0.922313
 ---------------------------------------------------------------------

 Alpha  occ. eigenvalues --  -14.74909 -10.62008  -0.90186  -0.80798  -0.52984
 Alpha  occ. eigenvalues --   -0.52787  -0.50672  -0.35943  -0.25445
 Alpha virt. eigenvalues --   -0.13596   0.01747   0.04673   0.05054   0.07058
 Alpha virt. eigenvalues --    0.09944   0.13114   0.15903   0.16752   0.16977
 Alpha virt. eigenvalues --    0.18545   0.20671   0.22201   0.27748   0.41141

  Beta  occ. eigenvalues --  -14.74909 -10.62008  -0.90186  -0.80798  -0.52984
  Beta  occ. eigenvalues --   -0.52787  -0.50672  -0.35943  -0.25445
  Beta virt. eigenvalues --   -0.13596   0.01747   0.04673   0.05054   0.07058
  Beta virt. eigenvalues --    0.09944   0.13114   0.15903   0.16752   0.16977
  Beta virt. eigenvalues --    0.18545   0.20671   0.22201   0.27748   0.41141

 Mulliken charges and spin densities:
               1          2
     1  C   -0.431492  -0.000001
     2  N   -0.582281   0.000001
     3  H    0.211731  -0.000000
     4  H    0.200873   0.000000
     5  H    0.211732  -0.000000
     6  H    0.200924   0.000000
     7  H    0.188513   0.000000
 Sum of Mulliken charges =  -0.00000   0.00000

 Dipole moment (field-independent basis, Debye):
    X=             -3.2165    Y=             -0.9936    Z=              1.6831  Tot=              3.7638
 Quadrupole moment (field-independent basis, Debye-Ang):
   XX=            -15.5562   YY=            -13.4310   ZZ=            -14.2325
   XY=             -1.8093   XZ=              3.0661   YZ=              0.7266

 Normal termination of Gaussian 16 at Mon Apr 21 18:16:01 2025.
