 Gaussian 16, Revision A.03,
 Gaussian 16:  ES64L-G16RevA.03 25-Dec-2016

 --------------------------------------------
 #p opt UM062X/6-311+G** nosymm int=superfine
 --------------------------------------------

 -------------------
 Title Card Required
 -------------------
 Symbolic Z-matrix:
 Charge =  0 Multiplicity = 1

 SCF Done:  E(UM062X) =  -151.320076223     A.U. after   22 cycles
 SCF Done:  E(UM062X) =  -151.321071499     A.U. after   26 cycles
 SCF Done:  E(UM062X) =  -151.323174317     A.U. after   17 cycles
 SCF Done:  E(UM062X) =  -151.323936259     A.U. after   25 cycles
 SCF Done:  E(UM062X) =  -151.324190448     A.U. after   18 cycles
 SCF Done:  E(UM062X) =  -151.324204058     A.U. after   18 cycles
 SCF Done:  E(UM062X) =  -151.324204220     A.U. after   14 cycles
 Optimization completed.
    -- Stationary point found.

                          Input orientation:
 ---------------------------------------------------------------------
 Center     Atomic      Atomic             Coordinates (Angstroms)
 Number     Number       Type             X           Y           Z
 ---------------------------------------------------------------------
      1          8           0       -1.661938    0.000000    0.000000
      2          8           0        1.661938    0.000000    0.000000
      3          1           0       -1.459728   -0.767195   -0.565269
      4          1           0        1.459831    0.765454    0.567661
 ---------------------------------------------------------------------

 Alpha  occ. eigenvalues --  -19.72628 -19.72627  -1.13145  -1.12774  -0.56928
 Alpha  occ. eigenvalues --   -0.56656  -0.44369  -0.44058  -0.37186
 Alpha virt. eigenvalues --   -0.26276   0.05134   0.07915   0.14840   0.15004
 Alpha virt. eigenvalues --    0.17593   0.18683   0.20305   0.20991   0.21548
 Alpha virt. eigenvalues --    0.31158   0.48651   0.52138   0.99689   1.00895

  Beta  occ. eigenvalues --  -19.72628 -19.72627  -1.13145  -1.12774  -0.56928
  Beta  occ. eigenvalues --   -0.56656  -0.44369  -0.44058  -0.37186
  Beta virt. eigenvalues --   -0.26276   0.05134   0.07915   0.14840   0.15004
  Beta virt. eigenvalues --    0.17593   0.18683   0.20305   0.20991   0.21548
  Beta virt. eigenvalues --    0.31158   0.48651   0.52138   0.99689   1.00895

 Mulliken charges and spin densities:
               1          2
     1  O   -0.268493   0.000000
     2  O   -0.268503  -0.000000
     3  H    0.268499   0.000000
     4  H    0.268497  -0.000000
 Sum of Mulliken charges =  -0.00000   0.00000

 Dipole moment (field-independent basis, Debye):
    X=              0.0001    Y=             -0.0035    Z=              0.0047  Tot=              0.0059
 Quadrupole moment (field-independent basis, Debye-Ang):
   XX=            -13.1641   YY=            -10.5006   ZZ=            -11.9820
   XY=              4.6040   XZ=              3.4033   YZ=              2.4141

 Normal termination of Gaussian 16 at Mon Apr 21 21:36:42 2025.
