 Gaussian 16, Revision A.03,
 Gaussian 16:  ES64L-G16RevA.03 25-Dec-2016

 --------------------------------------------
 #p opt UM062X/6-311+G** nosymm int=superfine
 --------------------------------------------

 -------------------
 Title Card Required
 -------------------
 Symbolic Z-matrix:
 Charge =  0 Multiplicity = 1

 SCF Done:  E(UM062X) =  -79.7300014902     A.U. after    8 cycles
 SCF Done:  E(UM062X) =  -79.7487528536     A.U. after    8 cycles
 SCF Done:  E(UM062X) =  -79.7556950258     A.U. after    8 cycles
 SCF Done:  E(UM062X) =  -79.7557207153     A.U. after    7 cycles
 Optimization completed.
    -- Stationary point found.

                          Input orientation:
 ---------------------------------------------------------------------
 Center     Atomic      Atomic             Coordinates (Angstroms)
 Number     Number       Type             X           Y           Z
 ---------------------------------------------------------------------
      1          6           0       -0.962069    0.000000    0.000000
      2          6           0        0.962168    0.000000    0.000000
      3          1           0        1.271398   -0.901020    0.521392
      4          1           0       -1.271301   -0.902037   -0.519634
      5          1           0        1.271401    0.902037    0.519632
      6          1           0        1.271433   -0.001016   -1.040991
      7          1           0       -1.271300    0.901020   -0.521392
      8          1           0       -1.271336    0.001016    1.040990
 ---------------------------------------------------------------------

 Alpha  occ. eigenvalues --  -10.54185 -10.54174  -0.79768  -0.72111  -0.48573
 Alpha  occ. eigenvalues --   -0.48572  -0.43699  -0.43698  -0.34842
 Alpha virt. eigenvalues --    0.02295   0.03181   0.05640   0.05640   0.08548
 Alpha virt. eigenvalues --    0.08548   0.09371   0.12767   0.14766   0.18263
 Alpha virt. eigenvalues --    0.18263   0.21936   0.21936   0.24270   0.27219

  Beta  occ. eigenvalues --  -10.54185 -10.54174  -0.79768  -0.72111  -0.48573
  Beta  occ. eigenvalues --   -0.48572  -0.43699  -0.43698  -0.34842
  Beta virt. eigenvalues --    0.02295   0.03181   0.05640   0.05640   0.08548
  Beta virt. eigenvalues --    0.08548   0.09371   0.12767   0.14766   0.18263
  Beta virt. eigenvalues --    0.18263   0.21936   0.21936   0.24270   0.27219

 Mulliken charges and spin densities:
               1          2
     1  C   -0.493963  -0.000000
     2  C   -0.493963   0.000000
     3  H    0.164655  -0.000000
     4  H    0.164655   0.000000
     5  H    0.164655  -0.000000
     6  H    0.164653  -0.000000
     7  H    0.164655   0.000000
     8  H    0.164653   0.000000
 Sum of Mulliken charges =  -0.00000  -0.00000

 Dipole moment (field-independent basis, Debye):
    X=              0.0000    Y=              0.0000    Z=              0.0000  Tot=              0.0000
 Quadrupole moment (field-independent basis, Debye-Ang):
   XX=            -15.5996   YY=            -14.9025   ZZ=            -14.9024
   XY=              0.0000   XZ=             -0.0001   YZ=             -0.0000

 Normal termination of Gaussian 16 at Tue Nov 19 12:03:26 2024.
