 Gaussian 16, Revision A.03,
 Gaussian 16:  ES64L-G16RevA.03 25-Dec-2016

 --------------------------------------------
 #p opt UM062X/6-311+G** nosymm int=superfine
 --------------------------------------------

 -------------------
 Title Card Required
 -------------------
 Symbolic Z-matrix:
 Charge =  0 Multiplicity = 1

 SCF Done:  E(UM062X) =  -579.881194619     A.U. after   10 cycles
 SCF Done:  E(UM062X) =  -579.883976032     A.U. after   10 cycles
 SCF Done:  E(UM062X) =  -579.883980794     A.U. after   10 cycles
 Optimization completed.
    -- Stationary point found.

                          Input orientation:
 ---------------------------------------------------------------------
 Center     Atomic      Atomic             Coordinates (Angstroms)
 Number     Number       Type             X           Y           Z
 ---------------------------------------------------------------------
      1         14           0       -2.153705    0.000000    0.000000
      2         14           0        2.153705    0.000000    0.000000
      3          1           0       -3.678566   -0.000027   -0.000000
      4          1           0        3.678566    0.000040    0.000000
 ---------------------------------------------------------------------

 Alpha  occ. eigenvalues --  -67.04549 -67.04549  -5.58974  -5.58972  -3.90084
 Alpha  occ. eigenvalues --   -3.90084  -3.89632  -3.89632  -3.89490  -3.89490
 Alpha  occ. eigenvalues --   -0.55002  -0.54707  -0.33688  -0.31518  -0.17875
 Alpha virt. eigenvalues --   -0.10761  -0.09212  -0.08257   0.02265   0.02924
 Alpha virt. eigenvalues --    0.04520   0.05687   0.05935   0.06146   0.06371
 Alpha virt. eigenvalues --    0.07062   0.08568   0.16379   0.29449   0.29476

  Beta  occ. eigenvalues --  -67.04549 -67.04549  -5.58974  -5.58972  -3.90084
  Beta  occ. eigenvalues --   -3.90084  -3.89632  -3.89632  -3.89490  -3.89490
  Beta  occ. eigenvalues --   -0.55002  -0.54707  -0.33688  -0.31518  -0.17875
  Beta virt. eigenvalues --   -0.10761  -0.09212  -0.08257   0.02265   0.02924
  Beta virt. eigenvalues --    0.04520   0.05687   0.05935   0.06146   0.06371
  Beta virt. eigenvalues --    0.07062   0.08568   0.16379   0.29449   0.29476

 Mulliken charges and spin densities:
               1          2
     1  Si   0.149334  -0.000000
     2  Si   0.149334   0.000000
     3  H   -0.149334   0.000000
     4  H   -0.149334  -0.000000
 Sum of Mulliken charges =  -0.00000   0.00000

 Dipole moment (field-independent basis, Debye):
    X=             -0.0000    Y=              0.0000    Z=              0.0000  Tot=              0.0000
 Quadrupole moment (field-independent basis, Debye-Ang):
   XX=            -30.4500   YY=            -24.2738   ZZ=            -35.6754
   XY=             -0.0002   XZ=             -0.0000   YZ=              0.0002

 Normal termination of Gaussian 16 at Mon Apr 21 21:26:37 2025.
