 Gaussian 16, Revision A.03,
 Gaussian 16:  ES64L-G16RevA.03 25-Dec-2016

 ---------------------------------------
 #p UM062X/6-311+G** force int=superfine
 ---------------------------------------

 -------------------
 Title Card Required
 -------------------
 Symbolic Z-matrix:
 Charge =  0 Multiplicity = 1

                         Standard orientation:
 ---------------------------------------------------------------------
 Center     Atomic      Atomic             Coordinates (Angstroms)
 Number     Number       Type             X           Y           Z
 ---------------------------------------------------------------------
      1          6           0        0.012557   -0.120147   -1.162024
      2          6           0       -0.012557    0.120147    1.162024
      3          1           0        0.417367    1.104766    1.294974
      4          1           0       -0.605080    0.708431   -1.484468
      5          1           0        0.605078   -0.708431    1.484471
      6          1           0       -1.067509    0.034709    1.389547
      7          1           0       -0.417366   -1.104766   -1.294973
      8          1           0        1.067507   -0.034709   -1.389551
 ---------------------------------------------------------------------

 SCF Done:  E(UM062X) =  -79.6959168675     A.U. after    9 cycles

 The electronic state is 1-A.
 Alpha  occ. eigenvalues --  -10.55493 -10.55488  -0.77699  -0.73824  -0.48261
 Alpha  occ. eigenvalues --   -0.48261  -0.45930  -0.45930  -0.29300
 Alpha virt. eigenvalues --   -0.00499   0.02488   0.05557   0.05557   0.07476
 Alpha virt. eigenvalues --    0.08299   0.08299   0.09967   0.13109   0.18160
 Alpha virt. eigenvalues --    0.18160   0.22077   0.22077   0.24365   0.26339

  Beta  occ. eigenvalues --  -10.55493 -10.55488  -0.77699  -0.73824  -0.48261
  Beta  occ. eigenvalues --   -0.48261  -0.45930  -0.45930  -0.29300
  Beta virt. eigenvalues --   -0.00499   0.02488   0.05557   0.05557   0.07476
  Beta virt. eigenvalues --    0.08299   0.08299   0.09967   0.13109   0.18160
  Beta virt. eigenvalues --    0.18160   0.22077   0.22077   0.24365   0.26339

 Mulliken charges and spin densities:
               1          2
     1  C   -0.507854  -0.000000
     2  C   -0.507854  -0.000000
     3  H    0.169285   0.000000
     4  H    0.169284   0.000000
     5  H    0.169284   0.000000
     6  H    0.169285   0.000000
     7  H    0.169285   0.000000
     8  H    0.169285   0.000000
 Sum of Mulliken charges =  -0.00000   0.00000

 Dipole moment (field-independent basis, Debye):
    X=             -0.0000    Y=              0.0000    Z=             -0.0000  Tot=              0.0000
 Quadrupole moment (field-independent basis, Debye-Ang):
   XX=            -14.8179   YY=            -14.8254   ZZ=            -15.5333
   XY=              0.0008   XZ=              0.0078   YZ=             -0.0740

 Normal termination of Gaussian 16 at Tue Nov 19 12:55:46 2024.
