 Gaussian 16, Revision A.03,
 Gaussian 16:  ES64L-G16RevA.03 25-Dec-2016

 --------------------------------------------
 #p opt UM062X/6-311+G** nosymm int=superfine
 --------------------------------------------

 -------------------
 Title Card Required
 -------------------
 Symbolic Z-matrix:
 Charge =  0 Multiplicity = 1

 SCF Done:  E(UM062X) =  -579.889200065     A.U. after   10 cycles
 SCF Done:  E(UM062X) =  -579.892170971     A.U. after    9 cycles
 SCF Done:  E(UM062X) =  -579.892177416     A.U. after    8 cycles
 Optimization completed.
    -- Stationary point found.

                          Input orientation:
 ---------------------------------------------------------------------
 Center     Atomic      Atomic             Coordinates (Angstroms)
 Number     Number       Type             X           Y           Z
 ---------------------------------------------------------------------
      1         14           0       -1.928705    0.000000    0.000000
      2         14           0        1.928705    0.000000    0.000000
      3          1           0       -3.456006   -0.000024    0.000000
      4          1           0        3.456006    0.000043   -0.000000
 ---------------------------------------------------------------------

 Alpha  occ. eigenvalues --  -67.04496 -67.04496  -5.58913  -5.58911  -3.90015
 Alpha  occ. eigenvalues --   -3.90015  -3.89567  -3.89566  -3.89430  -3.89430
 Alpha  occ. eigenvalues --   -0.55052  -0.54503  -0.34380  -0.30670  -0.18405
 Alpha virt. eigenvalues --   -0.10135  -0.09509  -0.07934   0.02301   0.02941
 Alpha virt. eigenvalues --    0.04557   0.05675   0.05746   0.05990   0.07085
 Alpha virt. eigenvalues --    0.07484   0.09084   0.18135   0.29240   0.29504

  Beta  occ. eigenvalues --  -67.04496 -67.04496  -5.58913  -5.58911  -3.90015
  Beta  occ. eigenvalues --   -3.90015  -3.89567  -3.89566  -3.89430  -3.89430
  Beta  occ. eigenvalues --   -0.55052  -0.54503  -0.34380  -0.30670  -0.18405
  Beta virt. eigenvalues --   -0.10135  -0.09509  -0.07934   0.02301   0.02941
  Beta virt. eigenvalues --    0.04557   0.05675   0.05746   0.05990   0.07085
  Beta virt. eigenvalues --    0.07484   0.09084   0.18135   0.29240   0.29504

 Mulliken charges and spin densities:
               1          2
     1  Si   0.145207   0.000000
     2  Si   0.145207  -0.000000
     3  H   -0.145207  -0.000000
     4  H   -0.145207   0.000000
 Sum of Mulliken charges =  -0.00000   0.00000

 Dipole moment (field-independent basis, Debye):
    X=             -0.0000    Y=              0.0000    Z=              0.0000  Tot=              0.0000
 Quadrupole moment (field-independent basis, Debye-Ang):
   XX=            -30.8919   YY=            -24.2611   ZZ=            -35.6406
   XY=             -0.0002   XZ=              0.0000   YZ=             -0.0004

 Normal termination of Gaussian 16 at Mon Apr 21 21:20:17 2025.
