 Gaussian 16, Revision A.03,
 Gaussian 16:  ES64L-G16RevA.03 25-Dec-2016

 ---------------------------------------------------
 #p UM062X/6-311+G** force int=superfine pop=saveNBO
 ---------------------------------------------------

 -------------------
 Title Card Required
 -------------------
 Symbolic Z-matrix:
 Charge =  1 Multiplicity = 2

                         Standard orientation:
 ---------------------------------------------------------------------
 Center     Atomic      Atomic             Coordinates (Angstroms)
 Number     Number       Type             X           Y           Z
 ---------------------------------------------------------------------
      1          6           0        0.000000    0.000000   -0.523381
      2          7           0        0.000000    0.000000    0.679698
      3          1           0        0.000000    0.000000   -1.617601
 ---------------------------------------------------------------------

 SCF Done:  E(UM062X) =  -92.9149678279     A.U. after   12 cycles

 Unable to determine electronic state:  partially filled degenerate orbitals.
 Alpha  occ. eigenvalues --  -15.21676 -11.03952  -1.45285  -1.03961  -0.85045
 Alpha  occ. eigenvalues --   -0.84411  -0.81205
 Alpha virt. eigenvalues --   -0.33888  -0.31427  -0.19518  -0.16346  -0.11728
 Alpha virt. eigenvalues --   -0.11355  -0.07240  -0.01252  -0.01117  -0.00831
 Alpha virt. eigenvalues --    0.05386   0.15670   0.27307   0.27809   0.34295

  Beta  occ. eigenvalues --  -15.21234 -11.03752  -1.39976  -1.02528  -0.82833
  Beta  occ. eigenvalues --   -0.78783
  Beta virt. eigenvalues --   -0.55191  -0.29848  -0.26190  -0.18670  -0.17030
  Beta virt. eigenvalues --   -0.11563  -0.11383  -0.07029  -0.01318  -0.01018
  Beta virt. eigenvalues --   -0.00916   0.04468   0.15814   0.25555   0.27619

 Mulliken charges and spin densities:
               1          2
     1  C    0.383473   0.439250
     2  N    0.259435   0.577736
     3  H    0.357093  -0.016986
 Sum of Mulliken charges =   1.00000   1.00000

 Dipole moment (field-independent basis, Debye):
    X=              0.0000    Y=              0.0000    Z=             -3.3544  Tot=              3.3544
 Quadrupole moment (field-independent basis, Debye-Ang):
   XX=             -8.4016   YY=             -9.8612   ZZ=             -4.6164
   XY=              0.0000   XZ=              0.0000   YZ=              0.0000

 Summary of Natural Population Analysis:

                                       Natural Population
                Natural  -----------------------------------------------
    Atom  No    Charge         Core      Valence    Rydberg      Total
 -----------------------------------------------------------------------
      C    1    0.48007      0.99982     1.50799    0.01213     2.51993
      N    2    0.37186      0.99989     2.12016    0.00810     3.12814
      H    3    0.14808      0.00000     0.35135    0.00057     0.35192
 =======================================================================
   * Total *    1.00000      1.99970     3.97949    0.02080     6.00000

 Optimization completed.
    -- Stationary point found.
 Normal termination of Gaussian 16 at Wed Apr 16 08:38:59 2025.
