 Gaussian 16, Revision A.03,
 Gaussian 16:  ES64L-G16RevA.03 25-Dec-2016

 ---------------------------------------------------
 #p UM062X/6-311+G** force int=superfine pop=saveNBO
 ---------------------------------------------------

 -------------------
 Title Card Required
 -------------------
 Symbolic Z-matrix:
 Charge =  1 Multiplicity = 2

                         Standard orientation:
 ---------------------------------------------------------------------
 Center     Atomic      Atomic             Coordinates (Angstroms)
 Number     Number       Type             X           Y           Z
 ---------------------------------------------------------------------
      1         14           0        0.009005   -1.116805    0.000000
      2         14           0        0.009005    1.089144    0.000000
      3          1           0       -1.365624   -1.688230   -0.000000
      4          1           0        1.113493    2.075476    0.000000
 ---------------------------------------------------------------------

 SCF Done:  E(UM062X) =  -579.732895091     A.U. after   22 cycles

 The electronic state is 2-A".
 Alpha  occ. eigenvalues --  -67.28349 -67.27426  -5.82895  -5.82020  -4.14293
 Alpha  occ. eigenvalues --   -4.14085  -4.13474  -4.13367  -4.12903  -4.12557
 Alpha  occ. eigenvalues --   -0.86389  -0.75511  -0.62212  -0.52652  -0.49245
 Alpha virt. eigenvalues --   -0.32386  -0.27135  -0.19277  -0.12745  -0.11817
 Alpha virt. eigenvalues --   -0.09300  -0.08983  -0.08625  -0.07719  -0.06070
 Alpha virt. eigenvalues --   -0.05798  -0.05016  -0.00869   0.06641   0.11941

  Beta  occ. eigenvalues --  -67.27856 -67.27354  -5.82708  -5.82063  -4.13721
  Beta  occ. eigenvalues --   -4.13308  -4.13270  -4.13149  -4.12795  -4.12612
  Beta  occ. eigenvalues --   -0.83541  -0.74425  -0.61947  -0.51815
  Beta virt. eigenvalues --   -0.33194  -0.30848  -0.23094  -0.17460  -0.14823
  Beta virt. eigenvalues --   -0.12092  -0.09635  -0.08676  -0.08478  -0.07835
  Beta virt. eigenvalues --   -0.05815  -0.05113  -0.04355  -0.01599   0.06785

 Mulliken charges and spin densities:
               1          2
     1  Si   0.476181   0.219704
     2  Si   0.449908   0.845862
     3  H    0.027879  -0.050923
     4  H    0.046032  -0.014642
 Sum of Mulliken charges =   1.00000   1.00000

 Dipole moment (field-independent basis, Debye):
    X=             -0.0910    Y=              0.3854    Z=              0.0000  Tot=              0.3960
 Quadrupole moment (field-independent basis, Debye-Ang):
   XX=            -23.5967   YY=            -11.6464   ZZ=            -22.3767
   XY=              1.1483   XZ=             -0.0000   YZ=              0.0000

 Summary of Natural Population Analysis:

                                       Natural Population
                Natural  -----------------------------------------------
    Atom  No    Charge         Core      Valence    Rydberg      Total
 -----------------------------------------------------------------------
     Si    1    0.39515      4.99896     1.59670    0.00918     6.60485
     Si    2    0.74316      4.99871     1.24970    0.00844     6.25684
      H    3   -0.07684      0.00000     0.57494    0.00191     0.57684
      H    4   -0.06147      0.00000     0.55966    0.00181     0.56147
 =======================================================================
   * Total *    1.00000      9.99767     3.98099    0.02133    14.00000

 Optimization completed.
    -- Stationary point found.
 Normal termination of Gaussian 16 at Wed Apr 16 05:50:19 2025.
