 Gaussian 16, Revision A.03,
 Gaussian 16:  ES64L-G16RevA.03 25-Dec-2016

 --------------------------------------------
 #p opt UM062X/6-311+G** nosymm int=superfine
 --------------------------------------------

 -------------------
 Title Card Required
 -------------------
 Symbolic Z-matrix:
 Charge =  0 Multiplicity = 3

 SCF Done:  E(UM062X) =  -398.095837258     A.U. after    9 cycles
 SCF Done:  E(UM062X) =  -398.095837258     A.U. after    1 cycles
 Optimization completed.
    -- Stationary point found.

                          Input orientation:
 ---------------------------------------------------------------------
 Center     Atomic      Atomic             Coordinates (Angstroms)
 Number     Number       Type             X           Y           Z
 ---------------------------------------------------------------------
      1         16           0       -0.950200    0.000000    0.000000
 ---------------------------------------------------------------------

 Alpha  occ. eigenvalues --  -89.95371  -8.30940  -6.24067  -6.24067  -6.22233
 Alpha  occ. eigenvalues --   -0.81006  -0.39014  -0.39014  -0.34767
 Alpha virt. eigenvalues --    0.05138   0.05559   0.05559   0.06071   0.35232
 Alpha virt. eigenvalues --    0.35232   0.35915   0.57154   0.73928   0.73928
 Alpha virt. eigenvalues --    0.77611   0.77611   0.78842   1.61780   1.61780

  Beta  occ. eigenvalues --  -89.93530  -8.30432  -6.21611  -6.21304  -6.21304
  Beta  occ. eigenvalues --   -0.69014  -0.31027
  Beta virt. eigenvalues --   -0.13025  -0.13025   0.02318   0.06158   0.07076
  Beta virt. eigenvalues --    0.07077   0.31831   0.31832   0.34936   0.59999
  Beta virt. eigenvalues --    0.84200   0.84200   0.86432   0.86527   0.86527

 Mulliken charges and spin densities:
               1          2
     1  S    0.000000   2.000000
 Sum of Mulliken charges =   0.00000   2.00000

 Dipole moment (field-independent basis, Debye):
    X=             -0.0000    Y=              0.0000    Z=              0.0000  Tot=              0.0000
 Quadrupole moment (field-independent basis, Debye-Ang):
   XX=            -12.1458   YY=            -14.9754   ZZ=            -12.2661
   XY=              0.3782   XZ=              0.0919   YZ=             -0.6997

 Normal termination of Gaussian 16 at Wed Apr 16 09:02:01 2025.
