 Gaussian 16, Revision A.03,
 Gaussian 16:  ES64L-G16RevA.03 25-Dec-2016

 --------------------------------------------
 #p opt UM062X/6-311+G** nosymm int=superfine
 --------------------------------------------

 -------------------
 Title Card Required
 -------------------
 Symbolic Z-matrix:
 Charge =  0 Multiplicity = 1

 SCF Done:  E(UM062X) =  -92.8169838886     A.U. after   15 cycles
 SCF Done:  E(UM062X) =  -92.8189336594     A.U. after   12 cycles
 SCF Done:  E(UM062X) =  -92.8189439601     A.U. after   11 cycles
 Optimization completed.
    -- Stationary point found.

                          Input orientation:
 ---------------------------------------------------------------------
 Center     Atomic      Atomic             Coordinates (Angstroms)
 Number     Number       Type             X           Y           Z
 ---------------------------------------------------------------------
      1          6           0       -1.997395    0.000000    0.000000
      2          7           0        1.997395    0.000000    0.000000
      3          1           0       -3.122585    0.000000    0.000000
 ---------------------------------------------------------------------

 Alpha  occ. eigenvalues --  -14.81113 -10.76458  -0.80462  -0.76010  -0.45647
 Alpha  occ. eigenvalues --   -0.25797  -0.25797
 Alpha virt. eigenvalues --   -0.18547  -0.18547  -0.07630  -0.00170   0.06023
 Alpha virt. eigenvalues --    0.06023   0.07853   0.12510   0.15526   0.17370
 Alpha virt. eigenvalues --    0.17370   0.23031   0.41561   0.51825   0.51825

  Beta  occ. eigenvalues --  -14.81113 -10.76458  -0.80462  -0.76010  -0.45647
  Beta  occ. eigenvalues --   -0.25797  -0.25797
  Beta virt. eigenvalues --   -0.18547  -0.18547  -0.07630  -0.00170   0.06023
  Beta virt. eigenvalues --    0.06023   0.07853   0.12510   0.15526   0.17370
  Beta virt. eigenvalues --    0.17370   0.23031   0.41561   0.51825   0.51825

 Mulliken charges and spin densities:
               1          2
     1  C    0.089352  -0.000000
     2  N   -0.257945   0.000000
     3  H    0.168593  -0.000000
 Sum of Mulliken charges =  -0.00000   0.00000

 Dipole moment (field-independent basis, Debye):
    X=             -6.7664    Y=              0.0000    Z=              0.0000  Tot=              6.7664
 Quadrupole moment (field-independent basis, Debye-Ang):
   XX=             -4.0303   YY=            -14.1973   ZZ=            -14.1973
   XY=             -0.0000   XZ=             -0.0000   YZ=              0.0000

 Normal termination of Gaussian 16 at Mon Apr 21 18:40:17 2025.
