 Gaussian 16, Revision A.03,
 Gaussian 16:  ES64L-G16RevA.03 25-Dec-2016

 --------------------------------------------
 #p opt UM062X/6-311+G** nosymm int=superfine
 --------------------------------------------

 -------------------
 Title Card Required
 -------------------
 Symbolic Z-matrix:
 Charge =  0 Multiplicity = 1

 SCF Done:  E(UM062X) =  -79.5980802398     A.U. after    9 cycles
 SCF Done:  E(UM062X) =  -79.6376453671     A.U. after    8 cycles
 SCF Done:  E(UM062X) =  -79.6783877339     A.U. after   10 cycles
 SCF Done:  E(UM062X) =  -79.6913396379     A.U. after   10 cycles
 SCF Done:  E(UM062X) =  -79.6919190890     A.U. after    8 cycles
 SCF Done:  E(UM062X) =  -79.6919227162     A.U. after    6 cycles
 Optimization completed.
    -- Stationary point found.

                          Input orientation:
 ---------------------------------------------------------------------
 Center     Atomic      Atomic             Coordinates (Angstroms)
 Number     Number       Type             X           Y           Z
 ---------------------------------------------------------------------
      1          6           0       -1.183498    0.000000    0.000000
      2          6           0        1.183619    0.000000    0.000000
      3          1           0        1.407024   -0.916728    0.530462
      4          1           0       -1.406893   -0.917765   -0.528673
      5          1           0        1.407017    0.917765    0.528671
      6          1           0        1.407001   -0.001032   -1.059149
      7          1           0       -1.406903    0.916728   -0.530463
      8          1           0       -1.406884    0.001031    1.059147
 ---------------------------------------------------------------------

 Alpha  occ. eigenvalues --  -10.55569 -10.55564  -0.77615  -0.73931  -0.48266
 Alpha  occ. eigenvalues --   -0.48266  -0.46058  -0.46058  -0.28987
 Alpha virt. eigenvalues --   -0.00863   0.02505   0.05547   0.05547   0.07300
 Alpha virt. eigenvalues --    0.08279   0.08279   0.10014   0.13068   0.18161
 Alpha virt. eigenvalues --    0.18161   0.22063   0.22063   0.24365   0.26276

  Beta  occ. eigenvalues --  -10.55569 -10.55564  -0.77615  -0.73931  -0.48266
  Beta  occ. eigenvalues --   -0.48266  -0.46058  -0.46058  -0.28987
  Beta virt. eigenvalues --   -0.00863   0.02505   0.05547   0.05547   0.07300
  Beta virt. eigenvalues --    0.08279   0.08279   0.10014   0.13068   0.18161
  Beta virt. eigenvalues --    0.18161   0.22063   0.22063   0.24365   0.26276

 Mulliken charges and spin densities:
               1          2
     1  C   -0.508709  -0.000000
     2  C   -0.508710   0.000000
     3  H    0.169570  -0.000000
     4  H    0.169570  -0.000000
     5  H    0.169570  -0.000000
     6  H    0.169570  -0.000000
     7  H    0.169570  -0.000000
     8  H    0.169570  -0.000000
 Sum of Mulliken charges =  -0.00000  -0.00000

 Dipole moment (field-independent basis, Debye):
    X=             -0.0000    Y=             -0.0000    Z=             -0.0000  Tot=              0.0000
 Quadrupole moment (field-independent basis, Debye-Ang):
   XX=            -15.5378   YY=            -14.8135   ZZ=            -14.8135
   XY=             -0.0000   XZ=              0.0000   YZ=             -0.0000

 Normal termination of Gaussian 16 at Tue Nov 19 12:20:38 2024.
