 Gaussian 16, Revision A.03,
 Gaussian 16:  ES64L-G16RevA.03 25-Dec-2016

 --------------------------------------------
 #p opt UM062X/6-311+G** nosymm int=superfine
 --------------------------------------------

 -------------------
 Title Card Required
 -------------------
 Symbolic Z-matrix:
 Charge =  0 Multiplicity = 1

 SCF Done:  E(UM062X) =  -51.9489518248     A.U. after    8 cycles
 SCF Done:  E(UM062X) =  -51.9499195316     A.U. after    8 cycles
 SCF Done:  E(UM062X) =  -51.9502197092     A.U. after    9 cycles
 SCF Done:  E(UM062X) =  -51.9502120369     A.U. after    8 cycles
 SCF Done:  E(UM062X) =  -51.9502486670     A.U. after    9 cycles
 SCF Done:  E(UM062X) =  -51.9507237197     A.U. after    9 cycles
 SCF Done:  E(UM062X) =  -51.9498882496     A.U. after   10 cycles
 SCF Done:  E(UM062X) =  -51.9515556343     A.U. after   10 cycles
 SCF Done:  E(UM062X) =  -51.9530692032     A.U. after   10 cycles
 SCF Done:  E(UM062X) =  -51.9539838036     A.U. after   10 cycles
 SCF Done:  E(UM062X) =  -51.9538366411     A.U. after   10 cycles
 SCF Done:  E(UM062X) =  -51.9540263710     A.U. after    9 cycles
 SCF Done:  E(UM062X) =  -51.9540314631     A.U. after    8 cycles
 Optimization completed.
    -- Stationary point found.

                          Input orientation:
 ---------------------------------------------------------------------
 Center     Atomic      Atomic             Coordinates (Angstroms)
 Number     Number       Type             X           Y           Z
 ---------------------------------------------------------------------
      1          5           0       -1.120607    0.000000    0.000000
      2          5           0        1.120607    0.000000    0.000000
      3          1           0       -1.693088   -0.735221   -0.734931
      4          1           0        1.692280    0.734739   -0.736035
      5          1           0       -1.694863    0.734979    0.733729
      6          1           0        1.695323   -0.733939    0.734366
 ---------------------------------------------------------------------

 Alpha  occ. eigenvalues --   -7.07931  -7.07920  -0.58409  -0.54666  -0.41988
 Alpha  occ. eigenvalues --   -0.41984  -0.29984
 Alpha virt. eigenvalues --   -0.03529  -0.03528   0.02318   0.02746   0.04934
 Alpha virt. eigenvalues --    0.04935   0.06937   0.07632   0.07632   0.10547
 Alpha virt. eigenvalues --    0.12751   0.16060   0.19499   0.21496   0.21497

  Beta  occ. eigenvalues --   -7.07931  -7.07920  -0.58409  -0.54666  -0.41988
  Beta  occ. eigenvalues --   -0.41984  -0.29984
  Beta virt. eigenvalues --   -0.03529  -0.03528   0.02318   0.02746   0.04934
  Beta virt. eigenvalues --    0.04935   0.06937   0.07632   0.07632   0.10547
  Beta virt. eigenvalues --    0.12751   0.16060   0.19499   0.21496   0.21497

 Mulliken charges and spin densities:
               1          2
     1  B   -0.030510   0.000000
     2  B   -0.030459  -0.000000
     3  H    0.015221   0.000000
     4  H    0.015221  -0.000000
     5  H    0.015252  -0.000000
     6  H    0.015275   0.000000
 Sum of Mulliken charges =  -0.00000  -0.00000

 Dipole moment (field-independent basis, Debye):
    X=              0.0004    Y=              0.0001    Z=              0.0000  Tot=              0.0004
 Quadrupole moment (field-independent basis, Debye-Ang):
   XX=            -16.4833   YY=            -15.0509   ZZ=            -15.0511
   XY=             -0.0008   XZ=              0.0005   YZ=             -0.0003

 Normal termination of Gaussian 16 at Mon Apr 21 17:06:20 2025.
