 Gaussian 16, Revision A.03,
 Gaussian 16:  ES64L-G16RevA.03 25-Dec-2016

 ---------------------------------------
 #p UM062X/6-311+G** force int=superfine
 ---------------------------------------

 -------------------
 Title Card Required
 -------------------
 Symbolic Z-matrix:
 Charge =  1 Multiplicity = 2

                         Standard orientation:
 ---------------------------------------------------------------------
 Center     Atomic      Atomic             Coordinates (Angstroms)
 Number     Number       Type             X           Y           Z
 ---------------------------------------------------------------------
      1          6           0        0.347376    0.679054   -1.643502
      2          6           0       -0.347381   -0.679048    1.643504
      3          1           0       -1.224344   -1.201541    1.279153
      4          1           0        0.447106   -0.313390   -2.067677
      5          1           0       -0.447055    0.313043    2.068519
      6          1           0        0.610526   -1.185431    1.671859
      7          1           0        1.224235    1.201725   -1.279152
      8          1           0       -0.610442    1.185559   -1.672712
 ---------------------------------------------------------------------

 SCF Done:  E(UM062X) =  -79.3235719617     A.U. after   10 cycles

 The electronic state is 2-A.
 Alpha  occ. eigenvalues --  -10.84133 -10.84131  -1.02703  -1.02140  -0.73665
 Alpha  occ. eigenvalues --   -0.73665  -0.73440  -0.73439  -0.49083
 Alpha virt. eigenvalues --   -0.37136  -0.13144  -0.10212  -0.09783  -0.09783
 Alpha virt. eigenvalues --   -0.06241  -0.06241  -0.04504  -0.03159  -0.00732
 Alpha virt. eigenvalues --   -0.00729   0.01285   0.01287   0.03362   0.08259

  Beta  occ. eigenvalues --  -10.83922 -10.83922  -1.00025  -0.99653  -0.73158
  Beta  occ. eigenvalues --   -0.73157  -0.72913  -0.72913
  Beta virt. eigenvalues --   -0.32757  -0.26486  -0.15934  -0.11098  -0.11098
  Beta virt. eigenvalues --   -0.10164  -0.06283  -0.06282  -0.04993  -0.02228
  Beta virt. eigenvalues --   -0.01069  -0.01066   0.01562   0.01564   0.03435

 Mulliken charges and spin densities:
               1          2
     1  C   -0.260796   0.559074
     2  C   -0.260796   0.559074
     3  H    0.253611  -0.019698
     4  H    0.253596  -0.019673
     5  H    0.253618  -0.019672
     6  H    0.253567  -0.019704
     7  H    0.253612  -0.019698
     8  H    0.253589  -0.019703
 Sum of Mulliken charges =   1.00000   1.00000

 Dipole moment (field-independent basis, Debye):
    X=              0.0000    Y=             -0.0001    Z=             -0.0000  Tot=              0.0001
 Quadrupole moment (field-independent basis, Debye-Ang):
   XX=            -10.5177   YY=             -8.8895   ZZ=              1.8205
   XY=              1.1288   XZ=             -2.7315   YZ=             -5.3373

 Normal termination of Gaussian 16 at Wed Nov 13 13:04:45 2024.
