 Gaussian 16, Revision A.03,
 Gaussian 16:  ES64L-G16RevA.03 25-Dec-2016

 --------------------------------------------
 #p opt UM062X/6-311+G** nosymm int=superfine
 --------------------------------------------

 -------------------
 Title Card Required
 -------------------
 Symbolic Z-matrix:
 Charge = -1 Multiplicity = 2

 SCF Done:  E(UM062X) =  -53.1991941727     A.U. after   11 cycles
 SCF Done:  E(UM062X) =  -53.2034744304     A.U. after   11 cycles
 SCF Done:  E(UM062X) =  -53.2044223649     A.U. after   10 cycles
 SCF Done:  E(UM062X) =  -53.2044266734     A.U. after    8 cycles
 Optimization completed.
    -- Stationary point found.

                          Input orientation:
 ---------------------------------------------------------------------
 Center     Atomic      Atomic             Coordinates (Angstroms)
 Number     Number       Type             X           Y           Z
 ---------------------------------------------------------------------
      1          5           0       -2.115672    0.000000    0.000000
      2          5           0        2.115672    0.000000    0.000000
      3          1           0        2.176756   -1.196982   -0.000015
      4          1           0       -2.176499   -0.598493    1.036632
      5          1           0        2.176661    0.598511   -1.036613
      6          1           0        2.176434    0.598479    1.036643
      7          1           0       -2.176764    1.196982   -0.000001
      8          1           0       -2.176588   -0.598498   -1.036624
 ---------------------------------------------------------------------

 Alpha  occ. eigenvalues --   -6.84830  -6.84829  -0.40156  -0.39737  -0.22005
 Alpha  occ. eigenvalues --   -0.22005  -0.21814  -0.21814   0.01223
 Alpha virt. eigenvalues --    0.11104   0.16705   0.17677   0.17677   0.18236
 Alpha virt. eigenvalues --    0.18236   0.18901   0.23014   0.24008   0.32828
 Alpha virt. eigenvalues --    0.32828   0.34150   0.34151   0.35962   0.38687

  Beta  occ. eigenvalues --   -6.84793  -6.84792  -0.38446  -0.38169  -0.21849
  Beta  occ. eigenvalues --   -0.21849  -0.21642  -0.21642
  Beta virt. eigenvalues --    0.09489   0.13241   0.13394   0.14715   0.14716
  Beta virt. eigenvalues --    0.17730   0.17730   0.20703   0.22145   0.24951
  Beta virt. eigenvalues --    0.31746   0.31747   0.33284   0.33285   0.34262

 Mulliken charges and spin densities:
               1          2
     1  B   -0.351928   0.554586
     2  B   -0.351928   0.554585
     3  H   -0.049366  -0.018197
     4  H   -0.049352  -0.018194
     5  H   -0.049357  -0.018194
     6  H   -0.049349  -0.018195
     7  H   -0.049366  -0.018197
     8  H   -0.049354  -0.018194
 Sum of Mulliken charges =  -1.00000   1.00000

 Dipole moment (field-independent basis, Debye):
    X=              0.0000    Y=             -0.0000    Z=              0.0001  Tot=              0.0001
 Quadrupole moment (field-independent basis, Debye-Ang):
   XX=            -45.3903   YY=            -24.3312   ZZ=            -24.3310
   XY=              0.0001   XZ=              0.0000   YZ=              0.0000

 Normal termination of Gaussian 16 at Mon Apr 21 16:56:02 2025.
