 Gaussian 16, Revision A.03,
 Gaussian 16:  ES64L-G16RevA.03 25-Dec-2016

 ---------------------------------------
 #p UM062X/6-311+G** force int=superfine
 ---------------------------------------

 -------------------
 Title Card Required
 -------------------
 Symbolic Z-matrix:
 Charge =  1 Multiplicity = 2

                         Standard orientation:
 ---------------------------------------------------------------------
 Center     Atomic      Atomic             Coordinates (Angstroms)
 Number     Number       Type             X           Y           Z
 ---------------------------------------------------------------------
      1          7           0        0.000000    0.000000    1.005391
      2          7           0        0.000000    0.000000   -1.005391
 ---------------------------------------------------------------------

 SCF Done:  E(UM062X) =  -108.573910588     A.U. after   10 cycles

 Unable to determine electronic state:  partially filled degenerate orbitals.
 Alpha  occ. eigenvalues --  -15.37408 -15.37389  -1.30792  -1.19815  -0.78561
 Alpha  occ. eigenvalues --   -0.75642  -0.73026
 Alpha virt. eigenvalues --   -0.56939  -0.54257  -0.45761  -0.13626  -0.09157
 Alpha virt. eigenvalues --   -0.08897  -0.08848  -0.03834  -0.03119  -0.02838
 Alpha virt. eigenvalues --    0.05808   0.43388   0.45043   0.51094   0.53786

  Beta  occ. eigenvalues --  -15.36963 -15.36950  -1.26909  -1.16448  -0.76703
  Beta  occ. eigenvalues --   -0.71277
  Beta virt. eigenvalues --   -0.52472  -0.51523  -0.45698  -0.44019  -0.15145
  Beta virt. eigenvalues --   -0.09586  -0.09263  -0.09234  -0.04556  -0.03237
  Beta virt. eigenvalues --   -0.03136   0.04424   0.45183   0.45292   0.50926

 Mulliken charges and spin densities:
               1          2
     1  N    0.500000   0.500000
     2  N    0.500000   0.500000
 Sum of Mulliken charges =   1.00000   1.00000

 Dipole moment (field-independent basis, Debye):
    X=              0.0000    Y=             -0.0000    Z=             -0.0000  Tot=              0.0000
 Quadrupole moment (field-independent basis, Debye-Ang):
   XX=             -9.8847   YY=             -8.4341   ZZ=             -3.9638
   XY=              0.0000   XZ=             -0.0000   YZ=             -0.0000

 Optimization completed.
    -- Stationary point found.
 Normal termination of Gaussian 16 at Wed Feb 26 13:55:18 2025.
