 Gaussian 16, Revision A.03,
 Gaussian 16:  ES64L-G16RevA.03 25-Dec-2016

 --------------------------------------------
 #p opt UM062X/6-311+G** nosymm int=superfine
 --------------------------------------------

 -------------------
 Title Card Required
 -------------------
 Symbolic Z-matrix:
 Charge =  1 Multiplicity = 2

 SCF Done:  E(UM062X) =  -75.5696143105     A.U. after    9 cycles
 SCF Done:  E(UM062X) =  -75.8455263596     A.U. after   80 cycles
 SCF Done:  E(UM062X) =  -76.0074548564     A.U. after   55 cycles
 SCF Done:  E(UM062X) =  -76.0094188404     A.U. after   10 cycles
 SCF Done:  E(UM062X) =  -76.0094889689     A.U. after    8 cycles
 Optimization completed.
    -- Stationary point found.

                          Input orientation:
 ---------------------------------------------------------------------
 Center     Atomic      Atomic             Coordinates (Angstroms)
 Number     Number       Type             X           Y           Z
 ---------------------------------------------------------------------
      1          6           0       -0.397659    0.000000    0.000000
      2          6           0        0.397659    0.000000    0.000000
      3          1           0       -1.463061   -0.000000    0.000000
      4          1           0        1.463059   -0.000000    0.000000
 ---------------------------------------------------------------------

 Alpha  occ. eigenvalues --  -10.95919 -10.87780  -1.33502  -0.93466  -0.92898
 Alpha  occ. eigenvalues --   -0.92030  -0.88608
 Alpha virt. eigenvalues --   -0.15057  -0.14053  -0.13244  -0.12863  -0.12378
 Alpha virt. eigenvalues --   -0.12001  -0.11735  -0.01063  -0.00322   0.00032
 Alpha virt. eigenvalues --    0.02758   0.03556   0.17170   0.22351   0.23350

  Beta  occ. eigenvalues --  -10.95303 -10.87362  -1.26325  -0.91950  -0.90919
  Beta  occ. eigenvalues --   -0.85773
  Beta virt. eigenvalues --   -0.58749  -0.15449  -0.12959  -0.12402  -0.12317
  Beta virt. eigenvalues --   -0.12040  -0.12010  -0.11624  -0.00104   0.00668
  Beta virt. eigenvalues --    0.01753   0.03321   0.04120   0.17451   0.21303

 Mulliken charges and spin densities:
               1          2
     1  C    0.267615   0.524946
     2  C    0.267612   0.524946
     3  H    0.232387  -0.024946
     4  H    0.232386  -0.024946
 Sum of Mulliken charges =   1.00000   1.00000

 Dipole moment (field-independent basis, Debye):
    X=             -0.0000    Y=             -0.0000    Z=              0.0000  Tot=              0.0000
 Quadrupole moment (field-independent basis, Debye-Ang):
   XX=             -3.0374   YY=             -8.6780   ZZ=             -9.0278
   XY=              0.0000   XZ=             -0.0000   YZ=              0.6305

 Normal termination of Gaussian 16 at Tue Nov 19 12:36:59 2024.
