 Gaussian 16, Revision A.03,
 Gaussian 16:  ES64L-G16RevA.03 25-Dec-2016

 ---------------------------------------------------------
 #p opt UM062X/6-311+G** nosymm int=superfine SCF=NoVarAcc
 ---------------------------------------------------------

 -------------------
 Title Card Required
 -------------------
 Symbolic Z-matrix:
 Charge =  1 Multiplicity = 2

 SCF Done:  E(UM062X) =  -76.5832717083     A.U. after   52 cycles
 SCF Done:  E(UM062X) =  -76.5836045426     A.U. after   33 cycles
 Optimization completed.
    -- Stationary point found.

                          Input orientation:
 ---------------------------------------------------------------------
 Center     Atomic      Atomic             Coordinates (Angstroms)
 Number     Number       Type             X           Y           Z
 ---------------------------------------------------------------------
      1          6           0       -2.382160    0.000000    0.000000
      2          6           0        2.382160    0.000000    0.000000
      3          1           0       -3.499681   -0.000000    0.000000
      4          1           0        3.499680   -0.000000    0.000000
 ---------------------------------------------------------------------

 Alpha  occ. eigenvalues --  -10.93637 -10.93637  -0.97347  -0.97306  -0.62680
 Alpha  occ. eigenvalues --   -0.62420  -0.46495
 Alpha virt. eigenvalues --   -0.40611  -0.32397  -0.32312  -0.11652  -0.10932
 Alpha virt. eigenvalues --   -0.07136  -0.06897  -0.06676  -0.04537  -0.04253
 Alpha virt. eigenvalues --   -0.01505   0.00098   0.04858   0.27770   0.29918

  Beta  occ. eigenvalues --  -10.93222 -10.93222  -0.94961  -0.94958  -0.61303
  Beta  occ. eigenvalues --   -0.61032
  Beta virt. eigenvalues --   -0.30519  -0.30408  -0.28896  -0.28765  -0.12022
  Beta virt. eigenvalues --   -0.10888  -0.06756  -0.06351  -0.05448  -0.03722
  Beta virt. eigenvalues --   -0.02766  -0.01685   0.01771   0.06632   0.26854

 Mulliken charges and spin densities:
               1          2
     1  C    0.281651   0.516210
     2  C    0.281651   0.516210
     3  H    0.218349  -0.016210
     4  H    0.218349  -0.016210
 Sum of Mulliken charges =   1.00000   1.00000

 Dipole moment (field-independent basis, Debye):
    X=             -0.0000    Y=             -0.0000    Z=              0.0000  Tot=              0.0000
 Quadrupole moment (field-independent basis, Debye-Ang):
   XX=             35.7740   YY=             -9.7474   ZZ=            -11.1905
   XY=              0.0000   XZ=              0.0000   YZ=             -0.6851

 Normal termination of Gaussian 16 at Tue Dec  3 17:42:59 2024.
