 Gaussian 16, Revision A.03,
 Gaussian 16:  ES64L-G16RevA.03 25-Dec-2016

 ---------------------------------------------------------------------
 #p opt UM062X/6-311+G** nosymm int=superfine SCF=(Tight,MaxCycle=200)
 ---------------------------------------------------------------------

 -------------------
 Title Card Required
 -------------------
 Symbolic Z-matrix:
 Charge =  1 Multiplicity = 2

 SCF Done:  E(UM062X) =  -1615.26830514     A.U. after   22 cycles
 SCF Done:  E(UM062X) =  -1615.40541969     A.U. after   21 cycles
 SCF Done:  E(UM062X) =  -1615.54700075     A.U. after   20 cycles
 SCF Done:  E(UM062X) =  -1615.55740240     A.U. after   19 cycles
 SCF Done:  E(UM062X) =  -1615.55123888     A.U. after   22 cycles
 SCF Done:  E(UM062X) =  -1615.55453591     A.U. after   22 cycles
 SCF Done:  E(UM062X) =  -1615.55914991     A.U. after   17 cycles
 SCF Done:  E(UM062X) =  -1615.55934560     A.U. after   20 cycles
 SCF Done:  E(UM062X) =  -1615.56102273     A.U. after   20 cycles
 SCF Done:  E(UM062X) =  -1615.56139940     A.U. after   18 cycles
 SCF Done:  E(UM062X) =  -1615.56050667     A.U. after   21 cycles
 SCF Done:  E(UM062X) =  -1615.56148363     A.U. after   19 cycles
 SCF Done:  E(UM062X) =  -1615.56165948     A.U. after   18 cycles
 SCF Done:  E(UM062X) =  -1615.56165950     A.U. after   16 cycles
 SCF Done:  E(UM062X) =  -1615.56166702     A.U. after   14 cycles
 SCF Done:  E(UM062X) =  -1615.56166761     A.U. after   13 cycles
 SCF Done:  E(UM062X) =  -1615.56166772     A.U. after   13 cycles
 SCF Done:  E(UM062X) =  -1615.56166777     A.U. after   12 cycles
 Optimization completed.
    -- Stationary point found.

                          Input orientation:
 ---------------------------------------------------------------------
 Center     Atomic      Atomic             Coordinates (Angstroms)
 Number     Number       Type             X           Y           Z
 ---------------------------------------------------------------------
      1          6           0       -1.055771    0.000000    0.000000
      2          6           0        1.055771    0.000000    0.000000
      3          6           0       -0.000031   -2.181399    0.000273
      4          6           0       -0.000060   -3.548339    0.000474
      5          6           0       -1.121822   -4.328244    0.331157
      6          6           0       -1.170708   -1.477543    0.315614
      7          6           0        0.651367   -5.725517   -0.192320
      8          1           0        1.251180   -6.606051   -0.373395
      9          6           0       -1.418323    0.892182    1.120228
     10          6           0       -0.651488   -5.725440    0.194162
     11          1           0       -1.251296   -6.605901    0.375600
     12          6           0        1.121705   -4.328375   -0.329861
     13          6           0        1.170663   -1.477649   -0.315234
     14          6           0        1.625592    2.302812   -1.056284
     15          6           0       -1.428046    0.235108   -1.429077
     16          6           0       -1.860101    3.021991    2.253113
     17          1           0       -2.020167    4.091321    2.178759
     18          6           0       -2.271072   -3.645074    0.676083
     19          1           0       -3.182873   -4.165398    0.946999
     20          6           0       -1.550258    1.505309   -2.065312
     21          6           0        2.290075   -2.211513   -0.656143
     22          1           0        3.222860   -1.705681   -0.882445
     23          6           0        1.428116    0.235503    1.429005
     24          6           0        1.550183    1.505870    2.064918
     25          6           0        2.270995   -3.645335   -0.674928
     26          1           0        3.182815   -4.165766   -0.945574
     27          6           0       -1.626001    2.302981    1.055731
     28          6           0       -1.447702    0.307319    2.408526
     29          1           0       -1.267942   -0.751925    2.510199
     30          6           0        1.600163   -0.892187    2.270668
     31          1           0        1.555367   -1.889250    1.863029
     32          6           0       -1.890624    2.414316    3.484320
     33          1           0       -2.073100    2.994912    4.380191
     34          6           0       -2.290121   -2.211252    0.656828
     35          1           0       -3.222868   -1.705318    0.883061
     36          6           0       -1.765296    1.575338   -3.460029
     37          1           0       -1.834151    2.557500   -3.913012
     38          6           0        1.418259    0.891948   -1.120452
     39          6           0       -1.579826    3.124970   -0.120152
     40          1           0       -1.622836    4.190195    0.085487
     41          6           0       -1.915162    0.454049   -4.241545
     42          1           0       -2.094984    0.542679   -5.305776
     43          6           0       -1.511096    2.791794   -1.426266
     44          1           0       -1.505882    3.628704   -2.117939
     45          6           0        1.765374    1.576280    3.459595
     46          1           0        1.834140    2.558567    3.912320
     47          6           0       -1.676318    1.033172    3.557293
     48          1           0       -1.679409    0.527568    4.515407
     49          6           0       -1.599941   -0.892809   -2.270463
     50          1           0       -1.555127   -1.889761   -1.862558
     51          6           0        1.915467    0.455209    4.241374
     52          1           0        2.095404    0.544126    5.305561
     53          6           0        1.859662    3.021583   -2.253810
     54          1           0        2.019444    4.090973   -2.179700
     55          6           0        1.846940   -0.793816    3.625981
     56          1           0        1.984219   -1.699568    4.204004
     57          6           0        1.890518    2.413601   -3.484859
     58          1           0        2.072984    2.994011   -4.380852
     59          6           0        1.579044    3.125085    0.119392
     60          1           0        1.621599    4.190276   -0.086518
     61          6           0       -1.846603   -0.794807   -3.625828
     62          1           0       -1.983777   -1.700716   -4.203629
     63          6           0        1.510533    2.792199    1.425588
     64          1           0        1.505056    3.629266    2.117070
     65          6           0        1.447859    0.306781   -2.408599
     66          1           0        1.268274   -0.752516   -2.510047
     67          6           0        1.676503    1.032399   -3.557515
     68          1           0        1.679838    0.526553   -4.515500
 ---------------------------------------------------------------------

 Alpha  occ. eigenvalues --  -10.71989 -10.71983 -10.68825 -10.68825 -10.68559
 Alpha  occ. eigenvalues --  -10.68559 -10.68532 -10.68532 -10.67831 -10.67831
 Alpha  occ. eigenvalues --  -10.67018 -10.67018 -10.66839 -10.66839 -10.66623
 Alpha  occ. eigenvalues --  -10.66623 -10.66107 -10.66107 -10.66058 -10.66058
 Alpha  occ. eigenvalues --  -10.65990 -10.65989 -10.65914 -10.65914 -10.65644
 Alpha  occ. eigenvalues --  -10.65644 -10.65579 -10.65579 -10.65555 -10.65555
 Alpha  occ. eigenvalues --  -10.65355 -10.65355 -10.65314 -10.65314 -10.65233
 Alpha  occ. eigenvalues --  -10.65233 -10.64939 -10.64939 -10.64558 -10.64072
 Alpha  occ. eigenvalues --  -10.63976 -10.62746  -1.12991  -1.10412  -1.09866
 Alpha  occ. eigenvalues --   -1.08537  -1.07854  -1.06174  -1.04294  -1.02777
 Alpha  occ. eigenvalues --   -1.02320  -1.00693  -1.00176  -0.97935  -0.97759
 Alpha  occ. eigenvalues --   -0.96966  -0.96229  -0.94914  -0.93451  -0.93417
 Alpha  occ. eigenvalues --   -0.92688  -0.91908  -0.87869  -0.87056  -0.84981
 Alpha  occ. eigenvalues --   -0.84761  -0.82809  -0.81627  -0.81189  -0.79948
 Alpha  occ. eigenvalues --   -0.79747  -0.79521  -0.77769  -0.76400  -0.76179
 Alpha  occ. eigenvalues --   -0.75495  -0.75312  -0.73846  -0.70147  -0.69957
 Alpha  occ. eigenvalues --   -0.69048  -0.68275  -0.67773  -0.67579  -0.67069
 Alpha  occ. eigenvalues --   -0.66819  -0.65527  -0.65234  -0.64993  -0.64821
 Alpha  occ. eigenvalues --   -0.63576  -0.63072  -0.62262  -0.62184  -0.61475
 Alpha  occ. eigenvalues --   -0.61294  -0.60696  -0.60244  -0.60217  -0.59954
 Alpha  occ. eigenvalues --   -0.59606  -0.58851  -0.58575  -0.58074  -0.57771
 Alpha  occ. eigenvalues --   -0.57396  -0.56207  -0.55837  -0.55757  -0.55693
 Alpha  occ. eigenvalues --   -0.54889  -0.54550  -0.53772  -0.52890  -0.52763
 Alpha  occ. eigenvalues --   -0.52565  -0.52187  -0.52024  -0.51655  -0.51068
 Alpha  occ. eigenvalues --   -0.50921  -0.50889  -0.50566  -0.49281  -0.48817
 Alpha  occ. eigenvalues --   -0.48679  -0.48479  -0.48137  -0.44306  -0.43828
 Alpha  occ. eigenvalues --   -0.43311  -0.43251  -0.40856  -0.40122  -0.39531
 Alpha  occ. eigenvalues --   -0.37987  -0.37899  -0.37196  -0.34915
 Alpha virt. eigenvalues --   -0.16215  -0.15539  -0.15075  -0.15049  -0.10167
 Alpha virt. eigenvalues --   -0.10008  -0.08744  -0.08680  -0.08326  -0.07698
 Alpha virt. eigenvalues --   -0.07673  -0.07498  -0.06871  -0.06555  -0.06344

  Beta  occ. eigenvalues --  -10.71905 -10.71902 -10.68800 -10.68800 -10.68528
  Beta  occ. eigenvalues --  -10.68528 -10.68519 -10.68519 -10.67805 -10.67805
  Beta  occ. eigenvalues --  -10.66993 -10.66992 -10.66807 -10.66807 -10.66625
  Beta  occ. eigenvalues --  -10.66624 -10.66097 -10.66097 -10.66041 -10.66040
  Beta  occ. eigenvalues --  -10.65975 -10.65975 -10.65915 -10.65915 -10.65633
  Beta  occ. eigenvalues --  -10.65632 -10.65584 -10.65584 -10.65565 -10.65565
  Beta  occ. eigenvalues --  -10.65350 -10.65349 -10.65310 -10.65309 -10.65229
  Beta  occ. eigenvalues --  -10.65229 -10.64935 -10.64935 -10.64550 -10.64072
  Beta  occ. eigenvalues --  -10.63976 -10.62748  -1.12852  -1.10303  -1.09683
  Beta  occ. eigenvalues --   -1.08399  -1.07722  -1.06044  -1.04201  -1.02585
  Beta  occ. eigenvalues --   -1.02145  -1.00564  -1.00036  -0.97805  -0.97642
  Beta  occ. eigenvalues --   -0.96843  -0.96125  -0.94872  -0.93325  -0.93313
  Beta  occ. eigenvalues --   -0.92536  -0.91785  -0.87597  -0.86819  -0.84873
  Beta  occ. eigenvalues --   -0.84659  -0.82742  -0.81509  -0.81112  -0.79833
  Beta  occ. eigenvalues --   -0.79673  -0.79448  -0.77625  -0.76213  -0.76010
  Beta  occ. eigenvalues --   -0.75333  -0.75280  -0.73724  -0.70036  -0.69809
  Beta  occ. eigenvalues --   -0.68950  -0.68188  -0.67661  -0.67484  -0.66938
  Beta  occ. eigenvalues --   -0.66711  -0.65427  -0.65128  -0.64871  -0.64695
  Beta  occ. eigenvalues --   -0.63261  -0.63028  -0.62187  -0.62075  -0.61234
  Beta  occ. eigenvalues --   -0.61114  -0.60549  -0.60154  -0.60123  -0.59879
  Beta  occ. eigenvalues --   -0.59462  -0.58659  -0.58496  -0.57955  -0.57404
  Beta  occ. eigenvalues --   -0.57244  -0.56091  -0.55729  -0.55654  -0.55133
  Beta  occ. eigenvalues --   -0.54867  -0.54077  -0.53458  -0.52781  -0.52666
  Beta  occ. eigenvalues --   -0.52505  -0.52099  -0.51896  -0.51179  -0.50975
  Beta  occ. eigenvalues --   -0.50778  -0.50650  -0.49784  -0.49115  -0.48696
  Beta  occ. eigenvalues --   -0.48628  -0.48338  -0.47643  -0.43717  -0.43070
  Beta  occ. eigenvalues --   -0.42880  -0.42851  -0.40449  -0.40071  -0.38900
  Beta  occ. eigenvalues --   -0.37612  -0.37271  -0.36760
  Beta virt. eigenvalues --   -0.25294  -0.15622  -0.15475  -0.14936  -0.14455
  Beta virt. eigenvalues --   -0.10031  -0.09611  -0.08617  -0.08358  -0.08201
  Beta virt. eigenvalues --   -0.07579  -0.07554  -0.07413  -0.06544  -0.06335

 Mulliken charges and spin densities:
               1          2
     1  C   -0.015843   0.064285
     2  C   -0.015385   0.064348
     3  C    0.133982   0.001825
     4  C    0.120939  -0.004286
     5  C    0.125447   0.007454
     6  C    0.144360   0.002930
     7  C   -0.301316   0.001313
     8  H    0.175950  -0.000070
     9  C    0.182977   0.062000
    10  C   -0.301251   0.001308
    11  H    0.175950  -0.000070
    12  C    0.125502   0.007447
    13  C    0.144345   0.002933
    14  C    0.019419   0.053080
    15  C    0.202414   0.035138
    16  C   -0.104446   0.002841
    17  H    0.164854  -0.000189
    18  C   -0.486163  -0.000084
    19  H    0.174764   0.000476
    20  C    0.209493   0.061216
    21  C   -0.176757   0.013481
    22  H    0.174536  -0.000566
    23  C    0.202597   0.035128
    24  C    0.209120   0.061211
    25  C   -0.486219  -0.000083
    26  H    0.174762   0.000476
    27  C    0.019468   0.053124
    28  C   -0.102466  -0.019399
    29  H    0.198541   0.000226
    30  C   -0.300629   0.003655
    31  H    0.219030   0.000147
    32  C   -0.299336   0.031669
    33  H    0.180670  -0.001636
    34  C   -0.176737   0.013485
    35  H    0.174527  -0.000566
    36  C   -0.150268  -0.016916
    37  H    0.163028   0.000406
    38  C    0.183050   0.062006
    39  C   -0.192327   0.087676
    40  H    0.168668  -0.006318
    41  C   -0.250527   0.020540
    42  H    0.178300  -0.000826
    43  C   -0.160713   0.052386
    44  H    0.161368  -0.003164
    45  C   -0.150254  -0.016920
    46  H    0.163031   0.000407
    47  C   -0.156762   0.051787
    48  H    0.173572  -0.003974
    49  C   -0.300568   0.003651
    50  H    0.219041   0.000147
    51  C   -0.250561   0.020547
    52  H    0.178301  -0.000826
    53  C   -0.104803   0.002823
    54  H    0.164848  -0.000189
    55  C   -0.122355   0.002076
    56  H    0.174969  -0.000468
    57  C   -0.299496   0.031656
    58  H    0.180670  -0.001636
    59  C   -0.191891   0.087745
    60  H    0.168648  -0.006322
    61  C   -0.122594   0.002077
    62  H    0.174970  -0.000468
    63  C   -0.160487   0.052380
    64  H    0.161362  -0.003162
    65  C   -0.102633  -0.019401
    66  H    0.198522   0.000225
    67  C   -0.156781   0.051782
    68  H    0.173573  -0.003974
 Sum of Mulliken charges =   1.00000   1.00000

 Dipole moment (field-independent basis, Debye):
    X=             -0.0004    Y=              2.9211    Z=              0.0000  Tot=              2.9211
 Quadrupole moment (field-independent basis, Debye-Ang):
   XX=           -222.4131   YY=           -174.3018   ZZ=           -177.1378
   XY=             -0.0049   XZ=             -1.7116   YZ=             -0.0018

 Normal termination of Gaussian 16 at Fri Mar 21 11:41:16 2025.
