 Gaussian 16, Revision A.03,
 Gaussian 16:  ES64L-G16RevA.03 25-Dec-2016

 ---------------------------------------------------------
 #p opt UM062X/6-311+G** nosymm int=superfine SCF=NoVarAcc
 ---------------------------------------------------------

 -------------------
 Title Card Required
 -------------------
 Symbolic Z-matrix:
 Charge =  0 Multiplicity = 1

 SCF Done:  E(UM062X) =  -78.2063488940     A.U. after    9 cycles
 SCF Done:  E(UM062X) =  -78.2229055638     A.U. after    9 cycles
 SCF Done:  E(UM062X) =  -78.2372331523     A.U. after    8 cycles
 SCF Done:  E(UM062X) =  -78.2374990930     A.U. after    8 cycles
 Optimization completed.
    -- Stationary point found.

                          Input orientation:
 ---------------------------------------------------------------------
 Center     Atomic      Atomic             Coordinates (Angstroms)
 Number     Number       Type             X           Y           Z
 ---------------------------------------------------------------------
      1          6           0       -5.035595    0.000000    0.000000
      2          6           0        5.035595    0.000000    0.000000
      3          1           0       -5.734257   -0.861016   -0.000000
      4          1           0       -5.734228    0.861032    0.000000
      5          1           0        5.734257    0.861016   -0.000000
      6          1           0        5.734228   -0.861032   -0.000000
 ---------------------------------------------------------------------

 Alpha  occ. eigenvalues --  -10.60694 -10.60694  -0.75622  -0.75622  -0.47500
 Alpha  occ. eigenvalues --   -0.47500  -0.31310  -0.31310
 Alpha virt. eigenvalues --   -0.08137  -0.08136   0.02454   0.02454   0.06701
 Alpha virt. eigenvalues --    0.06743   0.08642   0.08676   0.09114   0.09636
 Alpha virt. eigenvalues --    0.17721   0.17738   0.19593   0.19596   0.44216

  Beta  occ. eigenvalues --  -10.60694 -10.60694  -0.75622  -0.75622  -0.47500
  Beta  occ. eigenvalues --   -0.47500  -0.31310  -0.31310
  Beta virt. eigenvalues --   -0.08137  -0.08136   0.02454   0.02454   0.06701
  Beta virt. eigenvalues --    0.06743   0.08642   0.08676   0.09114   0.09636
  Beta virt. eigenvalues --    0.17721   0.17738   0.19593   0.19596   0.44216

 Mulliken charges and spin densities:
               1          2
     1  C   -0.253700   0.000000
     2  C   -0.253700  -0.000000
     3  H    0.126850  -0.000000
     4  H    0.126851  -0.000000
     5  H    0.126850  -0.000000
     6  H    0.126851  -0.000000
 Sum of Mulliken charges =  -0.00000  -0.00000

 Dipole moment (field-independent basis, Debye):
    X=             -0.0000    Y=              0.0000    Z=             -0.0000  Tot=              0.0000
 Quadrupole moment (field-independent basis, Debye-Ang):
   XX=             23.7706   YY=            -14.4579   ZZ=            -12.8708
   XY=             -0.0003   XZ=             -0.0000   YZ=              0.0000

 Normal termination of Gaussian 16 at Tue Dec  3 17:40:35 2024.
