 Gaussian 16, Revision A.03,
 Gaussian 16:  ES64L-G16RevA.03 25-Dec-2016

 --------------------------------------------
 #p opt UM062X/6-311+G** nosymm int=superfine
 --------------------------------------------

 -------------------
 Title Card Required
 -------------------
 Symbolic Z-matrix:
 Charge =  0 Multiplicity = 1

 SCF Done:  E(UM062X) =  -438.606596959     A.U. after   11 cycles
 SCF Done:  E(UM062X) =  -438.613294015     A.U. after   10 cycles
 SCF Done:  E(UM062X) =  -438.614626247     A.U. after   10 cycles
 SCF Done:  E(UM062X) =  -438.614633570     A.U. after    8 cycles
 SCF Done:  E(UM062X) =  -438.614635906     A.U. after    8 cycles
 SCF Done:  E(UM062X) =  -438.614635976     A.U. after    7 cycles
 Optimization completed.
    -- Stationary point found.

                          Input orientation:
 ---------------------------------------------------------------------
 Center     Atomic      Atomic             Coordinates (Angstroms)
 Number     Number       Type             X           Y           Z
 ---------------------------------------------------------------------
      1          6           0       -1.235220    0.000000    0.000000
      2         16           0        1.235220    0.000000    0.000000
      3          1           0        1.247993   -1.343121   -0.001659
      4          1           0       -1.406417    1.067827    0.002458
      5          1           0       -1.437224   -0.521422   -0.925442
      6          1           0       -1.437236   -0.525638    0.923055
 ---------------------------------------------------------------------

 Alpha  occ. eigenvalues --  -89.89349 -10.60904  -8.25594  -6.17677  -6.17552
 Alpha  occ. eigenvalues --   -6.17041  -0.81619  -0.76131  -0.51677  -0.51674
 Alpha  occ. eigenvalues --   -0.43673  -0.34017  -0.29499
 Alpha virt. eigenvalues --   -0.05871   0.02053   0.04432   0.05308   0.05680
 Alpha virt. eigenvalues --    0.07473   0.07793   0.08583   0.11427   0.13579
 Alpha virt. eigenvalues --    0.17489   0.18258   0.23824   0.32791   0.35615

  Beta  occ. eigenvalues --  -89.89349 -10.60904  -8.25594  -6.17677  -6.17552
  Beta  occ. eigenvalues --   -6.17041  -0.81619  -0.76131  -0.51677  -0.51674
  Beta  occ. eigenvalues --   -0.43673  -0.34017  -0.29499
  Beta virt. eigenvalues --   -0.05871   0.02053   0.04432   0.05308   0.05680
  Beta virt. eigenvalues --    0.07473   0.07793   0.08583   0.11427   0.13579
  Beta virt. eigenvalues --    0.17489   0.18258   0.23824   0.32791   0.35615

 Mulliken charges and spin densities:
               1          2
     1  C   -0.511290   0.000000
     2  S   -0.155989  -0.000000
     3  H    0.062687  -0.000000
     4  H    0.200927   0.000000
     5  H    0.201850  -0.000000
     6  H    0.201815   0.000000
 Sum of Mulliken charges =  -0.00000   0.00000

 Dipole moment (field-independent basis, Debye):
    X=             -2.4392    Y=             -0.9263    Z=             -0.0011  Tot=              2.6092
 Quadrupole moment (field-independent basis, Debye-Ang):
   XX=            -21.0343   YY=            -19.3307   ZZ=            -23.2987
   XY=             -1.5062   XZ=             -0.0019   YZ=              0.0049

 Normal termination of Gaussian 16 at Mon Apr 21 19:34:28 2025.
