 Gaussian 16, Revision A.03,
 Gaussian 16:  ES64L-G16RevA.03 25-Dec-2016

 --------------------------------------------
 #p opt UM062X/6-311+G** nosymm int=superfine
 --------------------------------------------

 -------------------
 Title Card Required
 -------------------
 Symbolic Z-matrix:
 Charge =  0 Multiplicity = 1

 SCF Done:  E(UM062X) =  -582.389840701     A.U. after   10 cycles
 SCF Done:  E(UM062X) =  -582.392005198     A.U. after    9 cycles
 SCF Done:  E(UM062X) =  -582.392547547     A.U. after    8 cycles
 Optimization completed.
    -- Stationary point found.

                          Input orientation:
 ---------------------------------------------------------------------
 Center     Atomic      Atomic             Coordinates (Angstroms)
 Number     Number       Type             X           Y           Z
 ---------------------------------------------------------------------
      1         14           0       -2.144819    0.000000    0.000000
      2         14           0        2.144819    0.000000    0.000000
      3          1           0        2.554471   -1.417500   -0.000056
      4          1           0       -2.554437   -0.708652    1.227668
      5          1           0        2.554564    0.708824   -1.227526
      6          1           0        2.554446    0.708705    1.227634
      7          1           0       -2.554474    1.417499   -0.000112
      8          1           0       -2.554570   -0.708879   -1.227493
 ---------------------------------------------------------------------

 Alpha  occ. eigenvalues --  -67.01822 -67.01822  -5.56698  -5.56697  -3.87929
 Alpha  occ. eigenvalues --   -3.87929  -3.87699  -3.87699  -3.87699  -3.87699
 Alpha  occ. eigenvalues --   -0.61118  -0.60720  -0.42014  -0.42013  -0.41911
 Alpha  occ. eigenvalues --   -0.41911  -0.22582
 Alpha virt. eigenvalues --   -0.09871   0.02103   0.02924   0.02924   0.03335
 Alpha virt. eigenvalues --    0.05146   0.05146   0.05851   0.06842   0.07403
 Alpha virt. eigenvalues --    0.07403   0.08765   0.08765   0.12463   0.16114

  Beta  occ. eigenvalues --  -67.01822 -67.01822  -5.56698  -5.56697  -3.87929
  Beta  occ. eigenvalues --   -3.87929  -3.87699  -3.87699  -3.87699  -3.87699
  Beta  occ. eigenvalues --   -0.61118  -0.60720  -0.42014  -0.42013  -0.41911
  Beta  occ. eigenvalues --   -0.41911  -0.22582
  Beta virt. eigenvalues --   -0.09871   0.02103   0.02924   0.02924   0.03335
  Beta virt. eigenvalues --    0.05146   0.05146   0.05851   0.06842   0.07403
  Beta virt. eigenvalues --    0.07403   0.08765   0.08765   0.12463   0.16114

 Mulliken charges and spin densities:
               1          2
     1  Si   0.270377   0.000000
     2  Si   0.270378  -0.000000
     3  H   -0.090125  -0.000000
     4  H   -0.090126   0.000000
     5  H   -0.090127   0.000000
     6  H   -0.090126  -0.000000
     7  H   -0.090125  -0.000000
     8  H   -0.090127   0.000000
 Sum of Mulliken charges =  -0.00000  -0.00000

 Dipole moment (field-independent basis, Debye):
    X=              0.0000    Y=             -0.0000    Z=              0.0000  Tot=              0.0000
 Quadrupole moment (field-independent basis, Debye-Ang):
   XX=            -28.3635   YY=            -32.1129   ZZ=            -32.1129
   XY=             -0.0003   XZ=              0.0000   YZ=              0.0000

 Normal termination of Gaussian 16 at Mon Apr 21 20:19:58 2025.
