 Gaussian 16, Revision A.03,
 Gaussian 16:  ES64L-G16RevA.03 25-Dec-2016

 --------------------------------------------
 #p opt UM062X/6-311+G** nosymm int=superfine
 --------------------------------------------

 -------------------
 Title Card Required
 -------------------
 Symbolic Z-matrix:
 Charge =  0 Multiplicity = 1

 SCF Done:  E(UM062X) =  -78.4676010698     A.U. after    8 cycles
 SCF Done:  E(UM062X) =  -78.4889767849     A.U. after    8 cycles
 SCF Done:  E(UM062X) =  -78.4950039714     A.U. after    8 cycles
 SCF Done:  E(UM062X) =  -78.4954337884     A.U. after    7 cycles
 SCF Done:  E(UM062X) =  -78.4954385768     A.U. after    7 cycles
 Optimization completed.
    -- Stationary point found.

                          Input orientation:
 ---------------------------------------------------------------------
 Center     Atomic      Atomic             Coordinates (Angstroms)
 Number     Number       Type             X           Y           Z
 ---------------------------------------------------------------------
      1          6           0       -0.821961    0.000000    0.000000
      2          6           0        0.821961    0.000000    0.000000
      3          1           0       -1.337760   -0.948726    0.000000
      4          1           0       -1.337777    0.948681    0.000000
      5          1           0        1.337760    0.948726   -0.000000
      6          1           0        1.337777   -0.948681    0.000000
 ---------------------------------------------------------------------

 Alpha  occ. eigenvalues --  -10.58145 -10.58113  -0.80558  -0.69051  -0.53123
 Alpha  occ. eigenvalues --   -0.46410  -0.43564  -0.29142
 Alpha virt. eigenvalues --   -0.02243   0.03376   0.03635   0.05353   0.07724
 Alpha virt. eigenvalues --    0.08481   0.09735   0.11933   0.15790   0.16820
 Alpha virt. eigenvalues --    0.20125   0.20815   0.24949   0.29471   0.41455

  Beta  occ. eigenvalues --  -10.58145 -10.58113  -0.80558  -0.69051  -0.53123
  Beta  occ. eigenvalues --   -0.46410  -0.43564  -0.29142
  Beta virt. eigenvalues --   -0.02243   0.03376   0.03635   0.05353   0.07724
  Beta virt. eigenvalues --    0.08481   0.09735   0.11933   0.15790   0.16820
  Beta virt. eigenvalues --    0.20125   0.20815   0.24949   0.29471   0.41455

 Mulliken charges and spin densities:
               1          2
     1  C   -0.330959  -0.000000
     2  C   -0.330959   0.000000
     3  H    0.165478   0.000000
     4  H    0.165480   0.000000
     5  H    0.165478  -0.000000
     6  H    0.165480  -0.000000
 Sum of Mulliken charges =  -0.00000   0.00000

 Dipole moment (field-independent basis, Debye):
    X=             -0.0000    Y=             -0.0000    Z=              0.0000  Tot=              0.0000
 Quadrupole moment (field-independent basis, Debye-Ang):
   XX=            -11.8645   YY=            -12.2300   ZZ=            -17.1373
   XY=             -0.0000   XZ=             -0.0000   YZ=             -0.0000

 Normal termination of Gaussian 16 at Tue Nov 19 10:46:49 2024.
