 Gaussian 16, Revision A.03,
 Gaussian 16:  ES64L-G16RevA.03 25-Dec-2016

 --------------------------------------------
 #p opt UM062X/6-311+G** nosymm int=superfine
 --------------------------------------------

 -------------------
 Title Card Required
 -------------------
 Symbolic Z-matrix:
 Charge =  0 Multiplicity = 1

 SCF Done:  E(UM062X) =  -114.107123149     A.U. after   15 cycles
 SCF Done:  E(UM062X) =  -114.108229154     A.U. after   10 cycles
 SCF Done:  E(UM062X) =  -114.108542377     A.U. after    9 cycles
 SCF Done:  E(UM062X) =  -114.108549048     A.U. after   13 cycles
 Optimization completed.
    -- Stationary point found.

                          Input orientation:
 ---------------------------------------------------------------------
 Center     Atomic      Atomic             Coordinates (Angstroms)
 Number     Number       Type             X           Y           Z
 ---------------------------------------------------------------------
      1          6           0       -1.423311    0.000000    0.000000
      2          8           0        1.423311    0.000000    0.000000
      3          1           0       -2.069007   -0.890822   -0.000022
      4          1           0       -2.069012    0.890819   -0.000022
 ---------------------------------------------------------------------

 Alpha  occ. eigenvalues --  -19.69786 -10.66453  -1.00065  -0.79668  -0.52909
 Alpha  occ. eigenvalues --   -0.38828  -0.38818  -0.35178
 Alpha virt. eigenvalues --   -0.13322  -0.11809   0.00999   0.05427   0.07222
 Alpha virt. eigenvalues --    0.07709   0.15516   0.16754   0.18734   0.21640
 Alpha virt. eigenvalues --    0.24436   0.29703   0.42199   0.44893   0.55621

  Beta  occ. eigenvalues --  -19.69786 -10.66453  -1.00065  -0.79668  -0.52909
  Beta  occ. eigenvalues --   -0.38828  -0.38818  -0.35178
  Beta virt. eigenvalues --   -0.13322  -0.11809   0.00999   0.05427   0.07222
  Beta virt. eigenvalues --    0.07709   0.15516   0.16754   0.18734   0.21640
  Beta virt. eigenvalues --    0.24436   0.29703   0.42199   0.44893   0.55621

 Mulliken charges and spin densities:
               1          2
     1  C   -0.220215   0.000000
     2  O   -0.114688   0.000000
     3  H    0.167452  -0.000000
     4  H    0.167452  -0.000000
 Sum of Mulliken charges =  -0.00000  -0.00000

 Dipole moment (field-independent basis, Debye):
    X=             -4.0971    Y=             -0.0000    Z=             -0.0001  Tot=              4.0971
 Quadrupole moment (field-independent basis, Debye-Ang):
   XX=             -6.8744   YY=            -12.7650   ZZ=            -12.5086
   XY=              0.0000   XZ=              0.0000   YZ=             -0.0000

 Normal termination of Gaussian 16 at Mon Apr 21 18:49:53 2025.
