 Gaussian 16, Revision A.03,
 Gaussian 16:  ES64L-G16RevA.03 25-Dec-2016

 ---------------------------------------
 #p UM062X/6-311+G** force int=superfine
 ---------------------------------------

 -------------------
 Title Card Required
 -------------------
 Symbolic Z-matrix:
 Charge =  1 Multiplicity = 2

                         Standard orientation:
 ---------------------------------------------------------------------
 Center     Atomic      Atomic             Coordinates (Angstroms)
 Number     Number       Type             X           Y           Z
 ---------------------------------------------------------------------
      1          6           0        0.278214    0.646722   -1.762032
      2          6           0       -0.278218   -0.646717    1.762033
      3          1           0       -1.125261   -1.242231    1.442005
      4          1           0        0.434618   -0.358121   -2.136674
      5          1           0       -0.434534    0.357804    2.137580
      6          1           0        0.712355   -1.085600    1.787918
      7          1           0        1.125137    1.242411   -1.442012
      8          1           0       -0.712290    1.085708   -1.788823
 ---------------------------------------------------------------------

 SCF Done:  E(UM062X) =  -79.3204920067     A.U. after   10 cycles

 The electronic state is 2-A.
 Alpha  occ. eigenvalues --  -10.83830 -10.83828  -1.02385  -1.01955  -0.73399
 Alpha  occ. eigenvalues --   -0.73398  -0.73239  -0.73239  -0.48233
 Alpha virt. eigenvalues --   -0.37409  -0.12933  -0.10191  -0.09602  -0.09602
 Alpha virt. eigenvalues --   -0.06231  -0.06231  -0.04414  -0.03051  -0.00381
 Alpha virt. eigenvalues --   -0.00378   0.01320   0.01321   0.02977   0.08489

  Beta  occ. eigenvalues --  -10.83614 -10.83614  -0.99723  -0.99445  -0.72885
  Beta  occ. eigenvalues --   -0.72884  -0.72705  -0.72704
  Beta virt. eigenvalues --   -0.32704  -0.26593  -0.16270  -0.11013  -0.11012
  Beta virt. eigenvalues --   -0.10199  -0.06245  -0.06244  -0.05071  -0.02108
  Beta virt. eigenvalues --   -0.00676  -0.00674   0.01589   0.01592   0.02827

 Mulliken charges and spin densities:
               1          2
     1  C   -0.255627   0.557734
     2  C   -0.255628   0.557734
     3  H    0.251890  -0.019249
     4  H    0.251855  -0.019246
     5  H    0.251877  -0.019246
     6  H    0.251861  -0.019239
     7  H    0.251891  -0.019249
     8  H    0.251881  -0.019239
 Sum of Mulliken charges =   1.00000   1.00000

 Dipole moment (field-independent basis, Debye):
    X=              0.0000    Y=             -0.0001    Z=             -0.0000  Tot=              0.0001
 Quadrupole moment (field-independent basis, Debye-Ang):
   XX=            -10.7380   YY=             -9.1149   ZZ=              3.6732
   XY=              0.8573   XZ=             -2.3352   YZ=             -5.4260

 Normal termination of Gaussian 16 at Wed Nov 13 13:05:43 2024.
