 Gaussian 16, Revision A.03,
 Gaussian 16:  ES64L-G16RevA.03 25-Dec-2016

 --------------------------------------------
 #p opt UM062X/6-311+G** nosymm int=superfine
 --------------------------------------------

 -------------------
 Title Card Required
 -------------------
 Symbolic Z-matrix:
 Charge =  1 Multiplicity = 2

 SCF Done:  E(UM062X) =  -76.5848760220     A.U. after   11 cycles
 SCF Done:  E(UM062X) =  -76.5852140396     A.U. after   87 cycles
 Optimization completed.
    -- Stationary point found.

                          Input orientation:
 ---------------------------------------------------------------------
 Center     Atomic      Atomic             Coordinates (Angstroms)
 Number     Number       Type             X           Y           Z
 ---------------------------------------------------------------------
      1          6           0       -1.882160    0.000000    0.000000
      2          6           0        1.882160    0.000000    0.000000
      3          1           0       -2.999822    0.000000   -0.000000
      4          1           0        2.999821   -0.000000   -0.000000
 ---------------------------------------------------------------------

 Alpha  occ. eigenvalues --  -10.94498 -10.94498  -0.98183  -0.98036  -0.64119
 Alpha  occ. eigenvalues --   -0.62696  -0.48406
 Alpha virt. eigenvalues --   -0.40692  -0.33122  -0.32867  -0.12326  -0.11362
 Alpha virt. eigenvalues --   -0.07719  -0.07253  -0.05387  -0.04776  -0.04415
 Alpha virt. eigenvalues --   -0.01585  -0.00517   0.05873   0.25217   0.29849

  Beta  occ. eigenvalues --  -10.94087 -10.94087  -0.95789  -0.95722  -0.62785
  Beta  occ. eigenvalues --   -0.61283
  Beta virt. eigenvalues --   -0.31577  -0.31101  -0.29935  -0.29389  -0.12804
  Beta virt. eigenvalues --   -0.11285  -0.07130  -0.06333  -0.06078  -0.04051
  Beta virt. eigenvalues --   -0.03089  -0.02080   0.01054   0.07478   0.24418

 Mulliken charges and spin densities:
               1          2
     1  C    0.268134   0.516477
     2  C    0.268136   0.516475
     3  H    0.231865  -0.016476
     4  H    0.231865  -0.016476
 Sum of Mulliken charges =   1.00000   1.00000

 Dipole moment (field-independent basis, Debye):
    X=              0.0000    Y=             -0.0000    Z=             -0.0000  Tot=              0.0000
 Quadrupole moment (field-independent basis, Debye-Ang):
   XX=             21.7742   YY=            -10.6627   ZZ=            -10.3177
   XY=              0.0000   XZ=             -0.0000   YZ=              0.9872

 Normal termination of Gaussian 16 at Tue Dec  3 11:32:53 2024.
