 Gaussian 16, Revision A.03,
 Gaussian 16:  ES64L-G16RevA.03 25-Dec-2016

 ---------------------------------------
 #p UM062X/6-311+G** force int=superfine
 ---------------------------------------

 -------------------
 Title Card Required
 -------------------
 Symbolic Z-matrix:
 Charge =  1 Multiplicity = 2

                         Standard orientation:
 ---------------------------------------------------------------------
 Center     Atomic      Atomic             Coordinates (Angstroms)
 Number     Number       Type             X           Y           Z
 ---------------------------------------------------------------------
      1          6           0        0.778467    0.908357   -1.705145
      2          6           0       -0.778469   -0.908352    1.705146
      3          1           0       -1.699008   -1.148603    1.186758
      4          1           0        0.697492   -0.017073   -2.262686
      5          1           0       -0.697685    0.016538    2.263613
      6          1           0        0.034882   -1.623870    1.723010
      7          1           0        1.698941    1.148821   -1.186743
      8          1           0       -0.034611    1.624163   -1.723959
 ---------------------------------------------------------------------

 SCF Done:  E(UM062X) =  -79.3158262847     A.U. after   10 cycles

 The electronic state is 2-A.
 Alpha  occ. eigenvalues --  -10.83187 -10.83186  -1.01780  -1.01526  -0.72867
 Alpha  occ. eigenvalues --   -0.72866  -0.72792  -0.72791  -0.46712
 Alpha virt. eigenvalues --   -0.37770  -0.12526  -0.10100  -0.09218  -0.09218
 Alpha virt. eigenvalues --   -0.06203  -0.06203  -0.04404  -0.02739   0.00286
 Alpha virt. eigenvalues --    0.00289   0.01449   0.01451   0.02446   0.08971

  Beta  occ. eigenvalues --  -10.82963 -10.82963  -0.99121  -0.98978  -0.72335
  Beta  occ. eigenvalues --   -0.72334  -0.72247  -0.72246
  Beta virt. eigenvalues --   -0.32131  -0.26672  -0.16978  -0.10593  -0.10591
  Beta virt. eigenvalues --   -0.10238  -0.06168  -0.06168  -0.05539  -0.01776
  Beta virt. eigenvalues --    0.00133   0.00136   0.01701   0.01703   0.02274

 Mulliken charges and spin densities:
               1          2
     1  C   -0.242926   0.557687
     2  C   -0.242927   0.557686
     3  H    0.247666  -0.019221
     4  H    0.247625  -0.019225
     5  H    0.247645  -0.019228
     6  H    0.247616  -0.019237
     7  H    0.247666  -0.019221
     8  H    0.247634  -0.019241
 Sum of Mulliken charges =   1.00000   1.00000

 Dipole moment (field-independent basis, Debye):
    X=              0.0000    Y=             -0.0000    Z=             -0.0000  Tot=              0.0000
 Quadrupole moment (field-independent basis, Debye-Ang):
   XX=             -8.2653   YY=             -7.2347   ZZ=              2.5662
   XY=              3.3300   XZ=             -6.2500   YZ=             -7.2915

 Normal termination of Gaussian 16 at Tue Nov 19 08:45:25 2024.
