 Gaussian 16, Revision A.03,
 Gaussian 16:  ES64L-G16RevA.03 25-Dec-2016

 --------------------------------------------
 #p opt UM062X/6-311+G** nosymm int=superfine
 --------------------------------------------

 -------------------
 Title Card Required
 -------------------
 Symbolic Z-matrix:
 Charge =  1 Multiplicity = 2

 SCF Done:  E(UM062X) =  -78.1820623228     A.U. after    9 cycles
 SCF Done:  E(UM062X) =  -78.1825256950     A.U. after    8 cycles
 SCF Done:  E(UM062X) =  -78.1825508056     A.U. after    7 cycles
 Optimization completed.
    -- Stationary point found.

                          Input orientation:
 ---------------------------------------------------------------------
 Center     Atomic      Atomic             Coordinates (Angstroms)
 Number     Number       Type             X           Y           Z
 ---------------------------------------------------------------------
      1          6           0       -0.685685    0.000000    0.000000
      2          6           0        0.685685    0.000000    0.000000
      3          1           0       -1.246522   -0.931364   -0.000000
      4          1           0       -1.246662    0.931198   -0.000000
      5          1           0        1.246522    0.931364    0.000000
      6          1           0        1.246662   -0.931198    0.000000
 ---------------------------------------------------------------------

 Alpha  occ. eigenvalues --  -10.89297 -10.89200  -1.19857  -0.97521  -0.85280
 Alpha  occ. eigenvalues --   -0.80331  -0.72303  -0.67811
 Alpha virt. eigenvalues --   -0.28684  -0.14722  -0.12676  -0.12552  -0.09848
 Alpha virt. eigenvalues --   -0.07826  -0.06822  -0.04855  -0.04423  -0.02647
 Alpha virt. eigenvalues --   -0.00427   0.02330   0.09163   0.10985   0.20614

  Beta  occ. eigenvalues --  -10.89063 -10.88981  -1.15777  -0.95614  -0.84112
  Beta  occ. eigenvalues --   -0.79403  -0.71993
  Beta virt. eigenvalues --   -0.42812  -0.21777  -0.16468  -0.12752  -0.12520
  Beta virt. eigenvalues --   -0.10404  -0.08716  -0.06882  -0.04796  -0.03557
  Beta virt. eigenvalues --   -0.02176  -0.00719   0.02493   0.10437   0.11442

 Mulliken charges and spin densities:
               1          2
     1  C   -0.050421   0.537460
     2  C   -0.050421   0.537460
     3  H    0.275205  -0.018732
     4  H    0.275215  -0.018728
     5  H    0.275205  -0.018732
     6  H    0.275215  -0.018728
 Sum of Mulliken charges =   1.00000   1.00000

 Dipole moment (field-independent basis, Debye):
    X=             -0.0000    Y=              0.0000    Z=             -0.0000  Tot=              0.0000
 Quadrupole moment (field-independent basis, Debye-Ang):
   XX=             -5.7236   YY=             -8.4728   ZZ=            -11.4036
   XY=             -0.0001   XZ=              0.0000   YZ=              0.0000

 Normal termination of Gaussian 16 at Tue Nov 19 10:59:14 2024.
