 Gaussian 16, Revision A.03,
 Gaussian 16:  ES64L-G16RevA.03 25-Dec-2016

 --------------------------------------------
 #p opt UM062X/6-311+G** nosymm int=superfine
 --------------------------------------------

 -------------------
 Title Card Required
 -------------------
 Symbolic Z-matrix:
 Charge =  0 Multiplicity = 1

 SCF Done:  E(UM062X) =  -684.954504648     A.U. after   11 cycles
 SCF Done:  E(UM062X) =  -684.956101046     A.U. after   11 cycles
 SCF Done:  E(UM062X) =  -684.957206162     A.U. after   11 cycles
 SCF Done:  E(UM062X) =  -684.957370135     A.U. after   10 cycles
 SCF Done:  E(UM062X) =  -684.957418853     A.U. after   10 cycles
 SCF Done:  E(UM062X) =  -684.957444808     A.U. after   10 cycles
 SCF Done:  E(UM062X) =  -684.957470180     A.U. after   10 cycles
 SCF Done:  E(UM062X) =  -684.957498802     A.U. after   10 cycles
 SCF Done:  E(UM062X) =  -684.957521374     A.U. after   10 cycles
 SCF Done:  E(UM062X) =  -684.957578408     A.U. after   12 cycles
 SCF Done:  E(UM062X) =  -684.957624889     A.U. after   12 cycles
 SCF Done:  E(UM062X) =  -684.957651975     A.U. after   10 cycles
 SCF Done:  E(UM062X) =  -684.957657495     A.U. after   14 cycles
 SCF Done:  E(UM062X) =  -684.957664351     A.U. after   10 cycles
 SCF Done:  E(UM062X) =  -684.957662416     A.U. after   12 cycles
 SCF Done:  E(UM062X) =  -684.957667159     A.U. after   13 cycles
 SCF Done:  E(UM062X) =  -684.957667417     A.U. after    8 cycles
 SCF Done:  E(UM062X) =  -684.957667618     A.U. after    8 cycles
 SCF Done:  E(UM062X) =  -684.957667610     A.U. after   11 cycles
 SCF Done:  E(UM062X) =  -684.957667701     A.U. after    8 cycles
 Optimization completed.
    -- Stationary point found.

                          Input orientation:
 ---------------------------------------------------------------------
 Center     Atomic      Atomic             Coordinates (Angstroms)
 Number     Number       Type             X           Y           Z
 ---------------------------------------------------------------------
      1         15           0       -1.817217    0.000000    0.000000
      2         15           0        1.817217    0.000000    0.000000
      3          1           0        1.757791   -0.949498    1.052366
      4          1           0       -1.760049    1.018086    0.986353
      5          1           0        1.759806   -1.017599   -0.986881
      6          1           0       -1.757241    0.949016   -1.052771
 ---------------------------------------------------------------------

 Alpha  occ. eigenvalues --  -78.04945 -78.04945  -6.87294  -6.87293  -4.98846
 Alpha  occ. eigenvalues --   -4.98846  -4.98725  -4.98725  -4.98541  -4.98541
 Alpha  occ. eigenvalues --   -0.71377  -0.70342  -0.45108  -0.44605  -0.36269
 Alpha  occ. eigenvalues --   -0.35814  -0.26558
 Alpha virt. eigenvalues --   -0.12362   0.01652   0.02953   0.03267   0.04101
 Alpha virt. eigenvalues --    0.04795   0.05740   0.06086   0.06150   0.06548
 Alpha virt. eigenvalues --    0.08348   0.15489   0.18671   0.28169   0.28517

  Beta  occ. eigenvalues --  -78.04945 -78.04945  -6.87294  -6.87293  -4.98846
  Beta  occ. eigenvalues --   -4.98846  -4.98725  -4.98725  -4.98541  -4.98541
  Beta  occ. eigenvalues --   -0.71377  -0.70342  -0.45108  -0.44605  -0.36269
  Beta  occ. eigenvalues --   -0.35814  -0.26558
  Beta virt. eigenvalues --   -0.12362   0.01652   0.02953   0.03267   0.04101
  Beta virt. eigenvalues --    0.04795   0.05740   0.06086   0.06150   0.06548
  Beta virt. eigenvalues --    0.08348   0.15489   0.18671   0.28169   0.28517

 Mulliken charges and spin densities:
               1          2
     1  P   -0.026123  -0.000001
     2  P   -0.026147   0.000001
     3  H    0.013091  -0.000000
     4  H    0.013046   0.000000
     5  H    0.013045  -0.000000
     6  H    0.013088   0.000000
 Sum of Mulliken charges =  -0.00000  -0.00000

 Dipole moment (field-independent basis, Debye):
    X=              0.0000    Y=             -0.0000    Z=             -0.0005  Tot=              0.0005
 Quadrupole moment (field-independent basis, Debye-Ang):
   XX=            -28.9057   YY=            -31.2117   ZZ=            -28.4596
   XY=             -3.9281   XZ=              0.1283   YZ=              0.0919

 Normal termination of Gaussian 16 at Mon Apr 21 20:49:36 2025.
