 Gaussian 16, Revision A.03,
 Gaussian 16:  ES64L-G16RevA.03 25-Dec-2016

 ---------------------------------------------------
 #p UM062X/6-311+G** force int=superfine pop=saveNBO
 ---------------------------------------------------

 -------------------
 Title Card Required
 -------------------
 Symbolic Z-matrix:
 Charge =  0 Multiplicity = 1

                         Standard orientation:
 ---------------------------------------------------------------------
 Center     Atomic      Atomic             Coordinates (Angstroms)
 Number     Number       Type             X           Y           Z
 ---------------------------------------------------------------------
      1         16           0        0.000000    0.000000    1.075200
      2         16           0        0.000000    0.000000   -1.075200
 ---------------------------------------------------------------------

 SCF Done:  E(UM062X) =  -796.282609474     A.U. after    9 cycles

 Unable to determine electronic state:  partially filled degenerate orbitals.
 Alpha  occ. eigenvalues --  -89.97215 -89.97215  -8.33147  -8.33141  -6.25236
 Alpha  occ. eigenvalues --   -6.25234  -6.25145  -6.25127  -6.24372  -6.24371
 Alpha  occ. eigenvalues --   -0.87209  -0.71494  -0.43427  -0.39285  -0.38307
 Alpha  occ. eigenvalues --   -0.29519
 Alpha virt. eigenvalues --   -0.17056  -0.03872   0.03155   0.04657   0.04849
 Alpha virt. eigenvalues --    0.05416   0.07086   0.07632   0.08202   0.14776
 Alpha virt. eigenvalues --    0.30586   0.32681   0.33198   0.34399   0.36174

  Beta  occ. eigenvalues --  -89.97215 -89.97215  -8.33147  -8.33141  -6.25236
  Beta  occ. eigenvalues --   -6.25234  -6.25145  -6.25127  -6.24372  -6.24371
  Beta  occ. eigenvalues --   -0.87209  -0.71494  -0.43427  -0.39285  -0.38307
  Beta  occ. eigenvalues --   -0.29519
  Beta virt. eigenvalues --   -0.17056  -0.03872   0.03155   0.04657   0.04849
  Beta virt. eigenvalues --    0.05416   0.07086   0.07632   0.08202   0.14776
  Beta virt. eigenvalues --    0.30586   0.32681   0.33198   0.34399   0.36174

 Mulliken charges and spin densities:
               1          2
     1  S   -0.000000   0.000000
     2  S   -0.000000   0.000000
 Sum of Mulliken charges =  -0.00000   0.00000

 Dipole moment (field-independent basis, Debye):
    X=             -0.0000    Y=              0.0000    Z=              0.0000  Tot=              0.0000
 Quadrupole moment (field-independent basis, Debye-Ang):
   XX=            -29.3566   YY=            -24.3132   ZZ=            -24.5052
   XY=              0.0000   XZ=              0.0000   YZ=              0.0000

 Summary of Natural Population Analysis:

                                       Natural Population
                Natural  -----------------------------------------------
    Atom  No    Charge         Core      Valence    Rydberg      Total
 -----------------------------------------------------------------------
      S    1   -0.00000      4.99992     2.98757    0.01251     8.00000
      S    2   -0.00000      4.99992     2.98757    0.01251     8.00000
 =======================================================================
   * Total *   -0.00000      9.99984     5.97514    0.02502    16.00000

 Normal termination of Gaussian 16 at Mon Apr 21 20:08:44 2025.
