 Gaussian 16, Revision A.03,
 Gaussian 16:  ES64L-G16RevA.03 25-Dec-2016

 --------------------------------------------
 #p opt UM062X/6-311+G** nosymm int=superfine
 --------------------------------------------

 -------------------
 Title Card Required
 -------------------
 Symbolic Z-matrix:
 Charge =  1 Multiplicity = 2

 SCF Done:  E(UM062X) =  -79.3387967639     A.U. after   12 cycles
 SCF Done:  E(UM062X) =  -79.3574214953     A.U. after   11 cycles
 SCF Done:  E(UM062X) =  -79.3588773908     A.U. after   10 cycles
 SCF Done:  E(UM062X) =  -79.3589035314     A.U. after    9 cycles
 SCF Done:  E(UM062X) =  -79.3589071472     A.U. after    9 cycles
 SCF Done:  E(UM062X) =  -79.3609050242     A.U. after   12 cycles
 SCF Done:  E(UM062X) =  -79.3641393600     A.U. after   11 cycles
 SCF Done:  E(UM062X) =  -79.3641438148     A.U. after   12 cycles
 SCF Done:  E(UM062X) =  -79.3568695751     A.U. after   15 cycles
 SCF Done:  E(UM062X) =  -79.3648088412     A.U. after   11 cycles
 SCF Done:  E(UM062X) =  -79.3648883335     A.U. after    9 cycles
 SCF Done:  E(UM062X) =  -79.3652691967     A.U. after   12 cycles
 SCF Done:  E(UM062X) =  -79.3657081482     A.U. after   12 cycles
 SCF Done:  E(UM062X) =  -79.3681576691     A.U. after   11 cycles
 SCF Done:  E(UM062X) =  -79.3696307129     A.U. after   11 cycles
 SCF Done:  E(UM062X) =  -79.3680788463     A.U. after   13 cycles
 SCF Done:  E(UM062X) =  -79.3709503725     A.U. after   11 cycles
 SCF Done:  E(UM062X) =  -79.3711443518     A.U. after   10 cycles
 SCF Done:  E(UM062X) =  -79.3711575044     A.U. after    9 cycles
 SCF Done:  E(UM062X) =  -79.3711596967     A.U. after    8 cycles
 Optimization completed.
    -- Stationary point found.

                          Input orientation:
 ---------------------------------------------------------------------
 Center     Atomic      Atomic             Coordinates (Angstroms)
 Number     Number       Type             X           Y           Z
 ---------------------------------------------------------------------
      1          6           0       -0.841736    0.000000    0.000000
      2          6           0        0.841736    0.000000    0.000000
      3          1           0        1.258414   -0.922753    0.388710
      4          1           0       -1.258447   -0.922538   -0.389157
      5          1           0        1.257824    0.923170    0.388298
      6          1           0        0.682013   -0.000655   -1.111275
      7          1           0       -1.257816    0.923380   -0.387839
      8          1           0       -0.682072   -0.000989    1.111283
 ---------------------------------------------------------------------

 Alpha  occ. eigenvalues --  -10.85863 -10.85841  -1.16003  -0.99680  -0.82321
 Alpha  occ. eigenvalues --   -0.80031  -0.74969  -0.72120  -0.64286
 Alpha virt. eigenvalues --   -0.17212  -0.14647  -0.11870  -0.11528  -0.09904
 Alpha virt. eigenvalues --   -0.08090  -0.07586  -0.06461  -0.05726  -0.01683
 Alpha virt. eigenvalues --   -0.01552  -0.00605   0.02242   0.03618   0.03694

  Beta  occ. eigenvalues --  -10.85615 -10.85600  -1.13010  -0.96574  -0.79177
  Beta  occ. eigenvalues --   -0.78278  -0.73495  -0.71522
  Beta virt. eigenvalues --   -0.41856  -0.16827  -0.13797  -0.11404  -0.11385
  Beta virt. eigenvalues --   -0.09606  -0.07703  -0.06545  -0.05532  -0.05060
  Beta virt. eigenvalues --   -0.01259  -0.01090  -0.00041   0.02794   0.04262

 Mulliken charges and spin densities:
               1          2
     1  C   -0.340619   0.445233
     2  C   -0.340594   0.445260
     3  H    0.275542  -0.021197
     4  H    0.275534  -0.021196
     5  H    0.275546  -0.021200
     6  H    0.289519   0.097148
     7  H    0.275553  -0.021199
     8  H    0.289519   0.097150
 Sum of Mulliken charges =   1.00000   1.00000

 Dipole moment (field-independent basis, Debye):
    X=             -0.0000    Y=             -0.0007    Z=              0.0000  Tot=              0.0007
 Quadrupole moment (field-independent basis, Debye-Ang):
   XX=             -7.8175   YY=            -10.8297   ZZ=            -10.2786
   XY=             -0.0001   XZ=              0.0444   YZ=              0.0003

 Normal termination of Gaussian 16 at Wed Nov 13 13:40:45 2024.
