 Gaussian 16, Revision A.03,
 Gaussian 16:  ES64L-G16RevA.03 25-Dec-2016

 ---------------------------------------
 #p UM062X/6-311+G** force int=superfine
 ---------------------------------------

 -------------------
 Title Card Required
 -------------------
 Symbolic Z-matrix:
 Charge =  1 Multiplicity = 2

                         Standard orientation:
 ---------------------------------------------------------------------
 Center     Atomic      Atomic             Coordinates (Angstroms)
 Number     Number       Type             X           Y           Z
 ---------------------------------------------------------------------
      1          6           0        0.870270   -0.000006   -0.000185
      2          6           0       -0.870270    0.000008    0.000185
      3          1           0       -1.058693   -0.032753   -1.071544
      4          1           0        1.056602   -0.944804   -0.508078
      5          1           0       -1.056629    0.944841    0.508000
      6          1           0       -1.056600   -0.912063    0.564740
      7          1           0        1.058696    0.032665    1.071546
      8          1           0        1.056626    0.912106   -0.564664
 ---------------------------------------------------------------------

 SCF Done:  E(UM062X) =  -79.3629446631     A.U. after   12 cycles

 The electronic state is 2-A.
 Alpha  occ. eigenvalues --  -10.86187 -10.86167  -1.15134  -1.00244  -0.81004
 Alpha  occ. eigenvalues --   -0.80991  -0.72462  -0.72458  -0.68440
 Alpha virt. eigenvalues --   -0.17015  -0.15660  -0.11677  -0.11675  -0.08972
 Alpha virt. eigenvalues --   -0.07857  -0.06785  -0.06775  -0.05880  -0.05878
 Alpha virt. eigenvalues --   -0.00906   0.01107   0.01119   0.03547   0.07774

  Beta  occ. eigenvalues --  -10.85942 -10.85940  -1.11757  -0.96537  -0.79766
  Beta  occ. eigenvalues --   -0.79757  -0.71400  -0.71398
  Beta virt. eigenvalues --   -0.44838  -0.16398  -0.13843  -0.11433  -0.11432
  Beta virt. eigenvalues --   -0.08221  -0.06827  -0.06822  -0.05505  -0.05498
  Beta virt. eigenvalues --   -0.04975   0.00722   0.01868   0.01881   0.04164

 Mulliken charges and spin densities:
               1          2
     1  C   -0.329439   0.517571
     2  C   -0.329438   0.517571
     3  H    0.276432  -0.006140
     4  H    0.276503  -0.005715
     5  H    0.276504  -0.005716
     6  H    0.276503  -0.005715
     7  H    0.276432  -0.006141
     8  H    0.276504  -0.005716
 Sum of Mulliken charges =   1.00000   1.00000

 Dipole moment (field-independent basis, Debye):
    X=             -0.0000    Y=             -0.0000    Z=              0.0000  Tot=              0.0000
 Quadrupole moment (field-independent basis, Debye-Ang):
   XX=             -7.5307   YY=            -10.6175   ZZ=            -10.6212
   XY=             -0.0001   XZ=             -0.0025   YZ=             -0.0001

 Normal termination of Gaussian 16 at Tue Nov 19 08:44:09 2024.
