 Gaussian 16, Revision A.03,
 Gaussian 16:  ES64L-G16RevA.03 25-Dec-2016

 ---------------------------------------
 #p UM062X/6-311+G** force int=superfine
 ---------------------------------------

 -------------------
 Title Card Required
 -------------------
 Symbolic Z-matrix:
 Charge =  0 Multiplicity = 1

                         Standard orientation:
 ---------------------------------------------------------------------
 Center     Atomic      Atomic             Coordinates (Angstroms)
 Number     Number       Type             X           Y           Z
 ---------------------------------------------------------------------
      1          6           0       -1.046112   -0.000001    0.000000
      2          6           0        1.046113    0.000001   -0.000000
      3          1           0        1.320593   -0.428701   -0.957934
      4          1           0       -1.320595    0.615286   -0.850208
      5          1           0        1.320597   -0.615284    0.850207
      6          1           0        1.320663    1.043927    0.107720
      7          1           0       -1.320592    0.428701    0.957935
      8          1           0       -1.320666   -1.043926   -0.107720
 ---------------------------------------------------------------------

 SCF Done:  E(UM062X) =  -79.7304374424     A.U. after    8 cycles

 The electronic state is 1-A.
 Alpha  occ. eigenvalues --  -10.54808 -10.54799  -0.78654  -0.72847  -0.48335
 Alpha  occ. eigenvalues --   -0.48334  -0.44724  -0.44723  -0.32254
 Alpha virt. eigenvalues --    0.02100   0.02364   0.05622   0.05622   0.08449
 Alpha virt. eigenvalues --    0.08449   0.09597   0.10034   0.13535   0.18172
 Alpha virt. eigenvalues --    0.18173   0.22067   0.22067   0.24311   0.26833

  Beta  occ. eigenvalues --  -10.54808 -10.54799  -0.78654  -0.72847  -0.48335
  Beta  occ. eigenvalues --   -0.48334  -0.44724  -0.44723  -0.32254
  Beta virt. eigenvalues --    0.02100   0.02364   0.05622   0.05622   0.08449
  Beta virt. eigenvalues --    0.08449   0.09597   0.10034   0.13535   0.18172
  Beta virt. eigenvalues --    0.18173   0.22067   0.22067   0.24311   0.26833

 Mulliken charges and spin densities:
               1          2
     1  C   -0.500393   0.000000
     2  C   -0.500394  -0.000000
     3  H    0.166799   0.000000
     4  H    0.166798  -0.000000
     5  H    0.166799   0.000000
     6  H    0.166796   0.000000
     7  H    0.166799  -0.000000
     8  H    0.166796  -0.000000
 Sum of Mulliken charges =  -0.00000  -0.00000

 Dipole moment (field-independent basis, Debye):
    X=             -0.0000    Y=              0.0000    Z=              0.0000  Tot=              0.0000
 Quadrupole moment (field-independent basis, Debye-Ang):
   XX=            -15.5898   YY=            -14.8626   ZZ=            -14.8628
   XY=              0.0001   XZ=              0.0000   YZ=              0.0000

 Normal termination of Gaussian 16 at Tue Nov 19 12:52:05 2024.
