 Gaussian 16, Revision A.03,
 Gaussian 16:  ES64L-G16RevA.03 25-Dec-2016

 --------------------------------------------
 #p opt UM062X/6-311+G** nosymm int=superfine
 --------------------------------------------

 -------------------
 Title Card Required
 -------------------
 Symbolic Z-matrix:
 Charge =  0 Multiplicity = 1

 SCF Done:  E(UM062X) =  -115.453512003     A.U. after   19 cycles
 SCF Done:  E(UM062X) =  -115.469882303     A.U. after   12 cycles
 SCF Done:  E(UM062X) =  -115.479927644     A.U. after   14 cycles
 SCF Done:  E(UM062X) =  -115.480089300     A.U. after   10 cycles
 SCF Done:  E(UM062X) =  -115.480198476     A.U. after   11 cycles
 SCF Done:  E(UM062X) =  -115.480318991     A.U. after   13 cycles
 SCF Done:  E(UM062X) =  -115.480346610     A.U. after   12 cycles
 SCF Done:  E(UM062X) =  -115.480353328     A.U. after    9 cycles
 SCF Done:  E(UM062X) =  -115.480353532     A.U. after   10 cycles
 Optimization completed.
    -- Stationary point found.

                          Input orientation:
 ---------------------------------------------------------------------
 Center     Atomic      Atomic             Coordinates (Angstroms)
 Number     Number       Type             X           Y           Z
 ---------------------------------------------------------------------
      1          6           0       -1.732203    0.000000    0.000000
      2          8           0        1.732203    0.000000    0.000000
      3          1           0        1.771079   -0.964945    0.000559
      4          1           0       -1.802613   -0.533570    0.937969
      5          1           0       -1.639204    1.077416   -0.000669
      6          1           0       -1.802555   -0.534737   -0.937308
 ---------------------------------------------------------------------

 Alpha  occ. eigenvalues --  -19.58483 -10.67110  -1.00887  -0.84843  -0.56962
 Alpha  occ. eigenvalues --   -0.56743  -0.45425  -0.32381  -0.28101
 Alpha virt. eigenvalues --   -0.16664   0.00385   0.03736   0.04037   0.06730
 Alpha virt. eigenvalues --    0.13394   0.14795   0.14974   0.19658   0.22857
 Alpha virt. eigenvalues --    0.23037   0.24913   0.28324   0.39092   0.39329

  Beta  occ. eigenvalues --  -19.58483 -10.67110  -1.00887  -0.84843  -0.56962
  Beta  occ. eigenvalues --   -0.56743  -0.45425  -0.32381  -0.28101
  Beta virt. eigenvalues --   -0.16664   0.00385   0.03736   0.04037   0.06730
  Beta virt. eigenvalues --    0.13394   0.14795   0.14974   0.19658   0.22857
  Beta virt. eigenvalues --    0.23037   0.24913   0.28324   0.39092   0.39329

 Mulliken charges and spin densities:
               1          2
     1  C   -0.291746  -0.000000
     2  O   -0.566040   0.000000
     3  H    0.211524   0.000000
     4  H    0.210950   0.000000
     5  H    0.224362   0.000000
     6  H    0.210951  -0.000000
 Sum of Mulliken charges =  -0.00000  -0.00000

 Dipole moment (field-independent basis, Debye):
    X=             -6.0488    Y=             -1.5722    Z=              0.0009  Tot=              6.2498
 Quadrupole moment (field-independent basis, Debye-Ang):
   XX=            -13.2561   YY=            -11.4863   ZZ=            -13.9050
   XY=             -2.8975   XZ=              0.0016   YZ=             -0.0014

 Normal termination of Gaussian 16 at Mon Apr 21 18:40:49 2025.
