 Gaussian 16, Revision A.03,
 Gaussian 16:  ES64L-G16RevA.03 25-Dec-2016

 --------------------------------------------
 #p opt UM062X/6-311+G** nosymm int=superfine
 --------------------------------------------

 -------------------
 Title Card Required
 -------------------
 Symbolic Z-matrix:
 Charge =  0 Multiplicity = 1

 SCF Done:  E(UM062X) =  -797.444379619     A.U. after   13 cycles
 SCF Done:  E(UM062X) =  -797.445477126     A.U. after   12 cycles
 SCF Done:  E(UM062X) =  -797.446388265     A.U. after   13 cycles
 SCF Done:  E(UM062X) =  -797.446415086     A.U. after   12 cycles
 SCF Done:  E(UM062X) =  -797.446415477     A.U. after   11 cycles
 SCF Done:  E(UM062X) =  -797.446415605     A.U. after   10 cycles
 Optimization completed.
    -- Stationary point found.

                          Input orientation:
 ---------------------------------------------------------------------
 Center     Atomic      Atomic             Coordinates (Angstroms)
 Number     Number       Type             X           Y           Z
 ---------------------------------------------------------------------
      1         16           0       -1.643191    0.000000    0.000000
      2         16           0        1.643191    0.000000    0.000000
      3          1           0       -1.570499   -1.333317   -0.169065
      4          1           0        1.571365    0.196795    1.329627
 ---------------------------------------------------------------------

 Alpha  occ. eigenvalues --  -89.94787 -89.94786  -8.30938  -8.30937  -6.23099
 Alpha  occ. eigenvalues --   -6.23099  -6.22829  -6.22828  -6.22271  -6.22270
 Alpha  occ. eigenvalues --   -0.82141  -0.80570  -0.47350  -0.47321  -0.34273
 Alpha  occ. eigenvalues --   -0.33512  -0.33135
 Alpha virt. eigenvalues --   -0.18252   0.01966   0.03138   0.04574   0.05021
 Alpha virt. eigenvalues --    0.06298   0.07153   0.07375   0.07507   0.10890
 Alpha virt. eigenvalues --    0.13155   0.30373   0.31155   0.32659   0.35783

  Beta  occ. eigenvalues --  -89.94787 -89.94786  -8.30938  -8.30937  -6.23099
  Beta  occ. eigenvalues --   -6.23099  -6.22829  -6.22828  -6.22271  -6.22270
  Beta  occ. eigenvalues --   -0.82141  -0.80570  -0.47350  -0.47321  -0.34273
  Beta  occ. eigenvalues --   -0.33512  -0.33135
  Beta virt. eigenvalues --   -0.18252   0.01966   0.03138   0.04574   0.05021
  Beta virt. eigenvalues --    0.06298   0.07153   0.07375   0.07507   0.10890
  Beta virt. eigenvalues --    0.13155   0.30373   0.31155   0.32659   0.35783

 Mulliken charges and spin densities:
               1          2
     1  S   -0.087558  -0.000003
     2  S   -0.087609   0.000003
     3  H    0.087581   0.000000
     4  H    0.087586  -0.000000
 Sum of Mulliken charges =   0.00000   0.00000

 Dipole moment (field-independent basis, Debye):
    X=              0.0005    Y=             -0.9201    Z=              0.9393  Tot=              1.3148
 Quadrupole moment (field-independent basis, Debye-Ang):
   XX=            -25.1641   YY=            -27.9951   ZZ=            -28.0411
   XY=              2.2044   XZ=              2.1603   YZ=              1.1041

 Normal termination of Gaussian 16 at Mon Apr 21 21:16:04 2025.
