 Gaussian 16, Revision A.03,
 Gaussian 16:  ES64L-G16RevA.03 25-Dec-2016

 --------------------------------------------
 #p opt UM062X/6-311+G** nosymm int=superfine
 --------------------------------------------

 -------------------
 Title Card Required
 -------------------
 Symbolic Z-matrix:
 Charge =  0 Multiplicity = 1

 SCF Done:  E(UM062X) =  -684.975180872     A.U. after   11 cycles
 SCF Done:  E(UM062X) =  -684.977100822     A.U. after   10 cycles
 SCF Done:  E(UM062X) =  -684.978096593     A.U. after   10 cycles
 SCF Done:  E(UM062X) =  -684.978180759     A.U. after   10 cycles
 SCF Done:  E(UM062X) =  -684.978216471     A.U. after   10 cycles
 SCF Done:  E(UM062X) =  -684.978237316     A.U. after   10 cycles
 SCF Done:  E(UM062X) =  -684.978260636     A.U. after   10 cycles
 SCF Done:  E(UM062X) =  -684.978298880     A.U. after   10 cycles
 SCF Done:  E(UM062X) =  -684.978359683     A.U. after   12 cycles
 SCF Done:  E(UM062X) =  -684.978387165     A.U. after   11 cycles
 SCF Done:  E(UM062X) =  -684.978431654     A.U. after    9 cycles
 SCF Done:  E(UM062X) =  -684.978442433     A.U. after    9 cycles
 SCF Done:  E(UM062X) =  -684.978450347     A.U. after   10 cycles
 SCF Done:  E(UM062X) =  -684.978450533     A.U. after    8 cycles
 SCF Done:  E(UM062X) =  -684.978450418     A.U. after    9 cycles
 SCF Done:  E(UM062X) =  -684.978451215     A.U. after    8 cycles
 SCF Done:  E(UM062X) =  -684.978451235     A.U. after    7 cycles
 Optimization completed.
    -- Stationary point found.

                          Input orientation:
 ---------------------------------------------------------------------
 Center     Atomic      Atomic             Coordinates (Angstroms)
 Number     Number       Type             X           Y           Z
 ---------------------------------------------------------------------
      1         15           0       -1.667217    0.000000    0.000000
      2         15           0        1.667217    0.000000    0.000000
      3          1           0        1.625449   -0.943406    1.058310
      4          1           0       -1.627885    1.023907    0.980909
      5          1           0        1.627971   -1.023991   -0.980825
      6          1           0       -1.625620    0.943500   -1.058237
 ---------------------------------------------------------------------

 Alpha  occ. eigenvalues --  -78.04727 -78.04727  -6.87070  -6.87069  -4.98619
 Alpha  occ. eigenvalues --   -4.98619  -4.98511  -4.98511  -4.98324  -4.98324
 Alpha  occ. eigenvalues --   -0.71609  -0.69936  -0.45182  -0.44341  -0.36334
 Alpha  occ. eigenvalues --   -0.35659  -0.27603
 Alpha virt. eigenvalues --   -0.10669   0.01607   0.03065   0.03314   0.04146
 Alpha virt. eigenvalues --    0.04752   0.05549   0.06129   0.06245   0.06697
 Alpha virt. eigenvalues --    0.08665   0.16154   0.18710   0.28164   0.28364

  Beta  occ. eigenvalues --  -78.04727 -78.04727  -6.87070  -6.87069  -4.98619
  Beta  occ. eigenvalues --   -4.98619  -4.98511  -4.98511  -4.98324  -4.98324
  Beta  occ. eigenvalues --   -0.71609  -0.69936  -0.45182  -0.44341  -0.36334
  Beta  occ. eigenvalues --   -0.35659  -0.27603
  Beta virt. eigenvalues --   -0.10669   0.01607   0.03065   0.03314   0.04146
  Beta virt. eigenvalues --    0.04752   0.05549   0.06129   0.06245   0.06697
  Beta virt. eigenvalues --    0.08665   0.16154   0.18710   0.28164   0.28364

 Mulliken charges and spin densities:
               1          2
     1  P   -0.034890   0.000000
     2  P   -0.034883  -0.000000
     3  H    0.017456   0.000000
     4  H    0.017429  -0.000000
     5  H    0.017430   0.000000
     6  H    0.017457  -0.000000
 Sum of Mulliken charges =  -0.00000  -0.00000

 Dipole moment (field-independent basis, Debye):
    X=             -0.0000    Y=             -0.0000    Z=              0.0001  Tot=              0.0001
 Quadrupole moment (field-independent basis, Debye-Ang):
   XX=            -29.3960   YY=            -31.1329   ZZ=            -28.3646
   XY=             -3.7494   XZ=              0.1439   YZ=              0.1085

 Normal termination of Gaussian 16 at Mon Apr 21 20:49:42 2025.
