 Gaussian 16, Revision A.03,
 Gaussian 16:  ES64L-G16RevA.03 25-Dec-2016

 --------------------------------------------
 #p opt UM062X/6-311+G** nosymm int=superfine
 --------------------------------------------

 -------------------
 Title Card Required
 -------------------
 Symbolic Z-matrix:
 Charge =  1 Multiplicity = 2

 SCF Done:  E(UM062X) =  -579.670898137     A.U. after   14 cycles
 SCF Done:  E(UM062X) =  -579.671454649     A.U. after   12 cycles
 SCF Done:  E(UM062X) =  -579.671738587     A.U. after   12 cycles
 SCF Done:  E(UM062X) =  -579.672526884     A.U. after   12 cycles
 SCF Done:  E(UM062X) =  -579.673325163     A.U. after   15 cycles
 SCF Done:  E(UM062X) =  -579.673468336     A.U. after   12 cycles
 SCF Done:  E(UM062X) =  -579.673543309     A.U. after   11 cycles
 SCF Done:  E(UM062X) =  -579.673545665     A.U. after   10 cycles
 SCF Done:  E(UM062X) =  -579.673546238     A.U. after    9 cycles
 SCF Done:  E(UM062X) =  -579.673549210     A.U. after   11 cycles
 SCF Done:  E(UM062X) =  -579.673551425     A.U. after   11 cycles
 SCF Done:  E(UM062X) =  -579.673551929     A.U. after   10 cycles
 SCF Done:  E(UM062X) =  -579.673551960     A.U. after    9 cycles
 Optimization completed.
    -- Stationary point found.

                          Input orientation:
 ---------------------------------------------------------------------
 Center     Atomic      Atomic             Coordinates (Angstroms)
 Number     Number       Type             X           Y           Z
 ---------------------------------------------------------------------
      1         14           0       -2.477975    0.000000    0.000000
      2         14           0        2.477975    0.000000    0.000000
      3          1           0       -2.623002   -1.501587   -0.000000
      4          1           0        2.623076    1.501577    0.000000
 ---------------------------------------------------------------------

 Alpha  occ. eigenvalues --  -67.25806 -67.25806  -5.79983  -5.79983  -4.11086
 Alpha  occ. eigenvalues --   -4.11086  -4.10996  -4.10996  -4.10350  -4.10350
 Alpha  occ. eigenvalues --   -0.74793  -0.74513  -0.51576  -0.51421  -0.38346
 Alpha virt. eigenvalues --   -0.29945  -0.26672  -0.26281  -0.10392  -0.09012
 Alpha virt. eigenvalues --   -0.08201  -0.07457  -0.07350  -0.06289  -0.05441
 Alpha virt. eigenvalues --   -0.05365  -0.04770  -0.02253   0.13171   0.14773

  Beta  occ. eigenvalues --  -67.25547 -67.25547  -5.79911  -5.79910  -4.10934
  Beta  occ. eigenvalues --   -4.10934  -4.10386  -4.10386  -4.10252  -4.10252
  Beta  occ. eigenvalues --   -0.72984  -0.72872  -0.50935  -0.50777
  Beta virt. eigenvalues --   -0.27384  -0.26475  -0.25883  -0.23969  -0.14645
  Beta virt. eigenvalues --   -0.10825  -0.09060  -0.08111  -0.07667  -0.06299
  Beta virt. eigenvalues --   -0.05686  -0.05204  -0.04938  -0.02330   0.09369

 Mulliken charges and spin densities:
               1          2
     1  Si   0.585230   0.507927
     2  Si   0.585228   0.507929
     3  H   -0.085229  -0.007928
     4  H   -0.085228  -0.007928
 Sum of Mulliken charges =   1.00000   1.00000

 Dipole moment (field-independent basis, Debye):
    X=              0.0000    Y=             -0.0000    Z=             -0.0000  Tot=              0.0000
 Quadrupole moment (field-independent basis, Debye-Ang):
   XX=             10.4361   YY=            -27.8218   ZZ=            -20.0204
   XY=              2.4432   XZ=              0.0000   YZ=             -0.0000

 Normal termination of Gaussian 16 at Mon Apr 21 20:45:22 2025.
