 Gaussian 16, Revision A.03,
 Gaussian 16:  ES64L-G16RevA.03 25-Dec-2016

 --------------------------------------------
 #p opt UM062X/6-311+G** nosymm int=superfine
 --------------------------------------------

 -------------------
 Title Card Required
 -------------------
 Symbolic Z-matrix:
 Charge =  0 Multiplicity = 1

 SCF Done:  E(UM062X) =  -474.471517064     A.U. after   15 cycles
 SCF Done:  E(UM062X) =  -474.473759670     A.U. after   15 cycles
 SCF Done:  E(UM062X) =  -474.474642442     A.U. after   15 cycles
 SCF Done:  E(UM062X) =  -474.474688430     A.U. after   13 cycles
 SCF Done:  E(UM062X) =  -474.474691924     A.U. after   12 cycles
 SCF Done:  E(UM062X) =  -474.474692137     A.U. after   10 cycles
 SCF Done:  E(UM062X) =  -474.474692164     A.U. after   10 cycles
 Optimization completed.
    -- Stationary point found.

                          Input orientation:
 ---------------------------------------------------------------------
 Center     Atomic      Atomic             Coordinates (Angstroms)
 Number     Number       Type             X           Y           Z
 ---------------------------------------------------------------------
      1          8           0       -1.211007    0.000000    0.000000
      2         16           0        1.211007    0.000000    0.000000
      3          1           0       -1.266803    0.778797   -0.573156
      4          1           0        1.129322   -1.172442   -0.652847
 ---------------------------------------------------------------------

 Alpha  occ. eigenvalues --  -89.97238 -19.67366  -8.33266  -6.25484  -6.25116
 Alpha  occ. eigenvalues --   -6.24571  -1.09127  -0.83029  -0.53025  -0.49178
 Alpha  occ. eigenvalues --   -0.40362  -0.39701  -0.34709
 Alpha virt. eigenvalues --   -0.14672   0.01556   0.04110   0.04805   0.05722
 Alpha virt. eigenvalues --    0.07558   0.15209   0.19512   0.20001   0.21609
 Alpha virt. eigenvalues --    0.27018   0.31461   0.33996   0.35251   0.40424

  Beta  occ. eigenvalues --  -89.97238 -19.67366  -8.33266  -6.25484  -6.25116
  Beta  occ. eigenvalues --   -6.24571  -1.09127  -0.83029  -0.53025  -0.49178
  Beta  occ. eigenvalues --   -0.40362  -0.39701  -0.34709
  Beta virt. eigenvalues --   -0.14672   0.01556   0.04110   0.04805   0.05722
  Beta virt. eigenvalues --    0.07558   0.15209   0.19512   0.20001   0.21609
  Beta virt. eigenvalues --    0.27018   0.31461   0.33996   0.35251   0.40424

 Mulliken charges and spin densities:
               1          2
     1  O   -0.435007   0.000000
     2  S    0.075339  -0.000000
     3  H    0.250880  -0.000000
     4  H    0.108788   0.000000
 Sum of Mulliken charges =   0.00000  -0.00000

 Dipole moment (field-independent basis, Debye):
    X=              1.7444    Y=              0.3486    Z=             -1.5357  Tot=              2.3500
 Quadrupole moment (field-independent basis, Debye-Ang):
   XX=            -18.4034   YY=            -17.7401   ZZ=            -20.6734
   XY=             -3.3652   XZ=              0.7265   YZ=              0.5455

 Normal termination of Gaussian 16 at Mon Apr 21 22:41:16 2025.
