 Gaussian 16, Revision A.03,
 Gaussian 16:  ES64L-G16RevA.03 25-Dec-2016

 --------------------------------------------
 #p opt UM062X/6-311+G** nosymm int=superfine
 --------------------------------------------

 -------------------
 Title Card Required
 -------------------
 Symbolic Z-matrix:
 Charge =  1 Multiplicity = 2

 SCF Done:  E(UM062X) =  -582.152289486     A.U. after   11 cycles
 SCF Done:  E(UM062X) =  -582.152774122     A.U. after    9 cycles
 SCF Done:  E(UM062X) =  -582.152839279     A.U. after    8 cycles
 Optimization completed.
    -- Stationary point found.

                          Input orientation:
 ---------------------------------------------------------------------
 Center     Atomic      Atomic             Coordinates (Angstroms)
 Number     Number       Type             X           Y           Z
 ---------------------------------------------------------------------
      1         14           0       -1.926292    0.000000    0.000000
      2         14           0        1.926292    0.000000    0.000000
      3          1           0        2.067778   -1.458024   -0.000001
      4          1           0       -2.067399   -0.728899    1.262783
      5          1           0        2.067903    0.729045   -1.262641
      6          1           0        2.067220    0.728990    1.262751
      7          1           0       -2.067804    1.458021   -0.000112
      8          1           0       -2.067698   -0.729141   -1.262609
 ---------------------------------------------------------------------

 Alpha  occ. eigenvalues --  -67.23250 -67.23250  -5.78075  -5.78073  -4.09753
 Alpha  occ. eigenvalues --   -4.09753  -4.08947  -4.08947  -4.08947  -4.08947
 Alpha  occ. eigenvalues --   -0.82149  -0.81155  -0.62241  -0.62241  -0.61904
 Alpha  occ. eigenvalues --   -0.61904  -0.44117
 Alpha virt. eigenvalues --   -0.28183  -0.13399  -0.12028  -0.10584  -0.10583
 Alpha virt. eigenvalues --   -0.09902  -0.09313  -0.09312  -0.07942  -0.07941
 Alpha virt. eigenvalues --   -0.07840  -0.06353  -0.06353  -0.04300   0.00825

  Beta  occ. eigenvalues --  -67.22991 -67.22991  -5.78000  -5.77998  -4.09139
  Beta  occ. eigenvalues --   -4.09139  -4.08859  -4.08859  -4.08859  -4.08859
  Beta  occ. eigenvalues --   -0.80208  -0.79638  -0.62047  -0.62047  -0.61725
  Beta  occ. eigenvalues --   -0.61725
  Beta virt. eigenvalues --   -0.30155  -0.22183  -0.14370  -0.12444  -0.12443
  Beta virt. eigenvalues --   -0.11027  -0.10274  -0.09724  -0.09723  -0.07469
  Beta virt. eigenvalues --   -0.07469  -0.06890  -0.06064  -0.06064  -0.04654

 Mulliken charges and spin densities:
               1          2
     1  Si   0.497021   0.549803
     2  Si   0.497021   0.549803
     3  H    0.001001  -0.016598
     4  H    0.000985  -0.016602
     5  H    0.000997  -0.016604
     6  H    0.000980  -0.016601
     7  H    0.001002  -0.016598
     8  H    0.000992  -0.016602
 Sum of Mulliken charges =   1.00000   1.00000

 Dipole moment (field-independent basis, Debye):
    X=              0.0000    Y=             -0.0000    Z=              0.0000  Tot=              0.0000
 Quadrupole moment (field-independent basis, Debye-Ang):
   XX=             -2.7661   YY=            -26.0927   ZZ=            -26.0928
   XY=              0.0001   XZ=              0.0001   YZ=              0.0000

 Normal termination of Gaussian 16 at Mon Apr 21 20:15:59 2025.
