 Gaussian 16, Revision A.03,
 Gaussian 16:  ES64L-G16RevA.03 25-Dec-2016

 --------------------------------------------
 #p opt UM062X/6-311+G** nosymm int=superfine
 --------------------------------------------

 -------------------
 Title Card Required
 -------------------
 Symbolic Z-matrix:
 Charge = -1 Multiplicity = 2

 SCF Done:  E(UM062X) =  -51.8451704165     A.U. after   12 cycles
 SCF Done:  E(UM062X) =  -51.8451970876     A.U. after    9 cycles
 SCF Done:  E(UM062X) =  -51.8451988379     A.U. after   12 cycles
 SCF Done:  E(UM062X) =  -51.8451994346     A.U. after   13 cycles
 Optimization completed.
    -- Stationary point found.

                          Input orientation:
 ---------------------------------------------------------------------
 Center     Atomic      Atomic             Coordinates (Angstroms)
 Number     Number       Type             X           Y           Z
 ---------------------------------------------------------------------
      1          5           0       -2.247274    0.000000    0.000000
      2          5           0        2.247274    0.000000    0.000000
      3          1           0       -2.912578   -1.014070    0.000161
      4          1           0        2.912578    1.014070   -0.000315
      5          1           0       -2.912581    1.014068    0.000178
      6          1           0        2.912581   -1.014068    0.000654
 ---------------------------------------------------------------------

 Alpha  occ. eigenvalues --   -6.88331  -6.88331  -0.38455  -0.38408  -0.22631
 Alpha  occ. eigenvalues --   -0.22602  -0.05594  -0.03423
 Alpha virt. eigenvalues --    0.11551   0.12583   0.14763   0.15219   0.15481
 Alpha virt. eigenvalues --    0.17316   0.19502   0.20494   0.20637   0.22910
 Alpha virt. eigenvalues --    0.31929   0.33049   0.33584   0.36000   0.50667

  Beta  occ. eigenvalues --   -6.87745  -6.87745  -0.37104  -0.36987  -0.21924
  Beta  occ. eigenvalues --   -0.21882   0.02006
  Beta virt. eigenvalues --    0.11999   0.12921   0.13741   0.14406   0.15611
  Beta virt. eigenvalues --    0.17701   0.18084   0.21901   0.22100   0.24222
  Beta virt. eigenvalues --    0.25254   0.32006   0.33250   0.33753   0.36817

 Mulliken charges and spin densities:
               1          2
     1  B   -0.346727   0.492198
     2  B   -0.346727   0.492198
     3  H   -0.076637   0.003901
     4  H   -0.076637   0.003901
     5  H   -0.076637   0.003901
     6  H   -0.076637   0.003901
 Sum of Mulliken charges =  -1.00000   1.00000

 Dipole moment (field-independent basis, Debye):
    X=              0.0000    Y=              0.0000    Z=              0.0012  Tot=              0.0012
 Quadrupole moment (field-independent basis, Debye-Ang):
   XX=            -43.6646   YY=            -24.3477   ZZ=            -18.8904
   XY=              0.0000   XZ=              0.0000   YZ=              0.0013

 Normal termination of Gaussian 16 at Mon Apr 21 17:27:13 2025.
