 Gaussian 16, Revision A.03,
 Gaussian 16:  ES64L-G16RevA.03 25-Dec-2016

 --------------------------------------------
 #p opt UM062X/6-311+G** nosymm int=superfine
 --------------------------------------------

 -------------------
 Title Card Required
 -------------------
 Symbolic Z-matrix:
 Charge = -1 Multiplicity = 2

 SCF Done:  E(UM062X) =  -50.7203292646     A.U. after   11 cycles
 SCF Done:  E(UM062X) =  -50.7203345961     A.U. after    7 cycles
 Optimization completed.
    -- Stationary point found.

                          Input orientation:
 ---------------------------------------------------------------------
 Center     Atomic      Atomic             Coordinates (Angstroms)
 Number     Number       Type             X           Y           Z
 ---------------------------------------------------------------------
      1          5           0       -0.941404    0.000000    0.000000
      2          5           0        0.941404    0.000000    0.000000
      3          1           0       -2.122768   -0.000903   -0.000000
      4          1           0        2.122768    0.000903   -0.000000
 ---------------------------------------------------------------------

 Alpha  occ. eigenvalues --   -6.87521  -6.87495  -0.36276  -0.32337  -0.19000
 Alpha  occ. eigenvalues --   -0.02232  -0.00842
 Alpha virt. eigenvalues --    0.14055   0.15432   0.17121   0.17268   0.20240
 Alpha virt. eigenvalues --    0.21466   0.21520   0.24787   0.24981   0.25038
 Alpha virt. eigenvalues --    0.28721   0.38749   0.45398   0.56166   0.59427

  Beta  occ. eigenvalues --   -6.87481  -6.87461  -0.34166  -0.31432  -0.18128
  Beta  occ. eigenvalues --    0.01059
  Beta virt. eigenvalues --    0.10973   0.14223   0.14571   0.16247   0.17774
  Beta virt. eigenvalues --    0.19177   0.20877   0.21252   0.22828   0.26868
  Beta virt. eigenvalues --    0.28008   0.30119   0.39058   0.46098   0.56418

 Mulliken charges and spin densities:
               1          2
     1  B   -0.492402   0.525302
     2  B   -0.492402   0.525302
     3  H   -0.007598  -0.025302
     4  H   -0.007598  -0.025302
 Sum of Mulliken charges =  -1.00000   1.00000

 Dipole moment (field-independent basis, Debye):
    X=             -0.0000    Y=              0.0000    Z=             -0.0000  Tot=              0.0000
 Quadrupole moment (field-independent basis, Debye-Ang):
   XX=            -22.9305   YY=            -29.0896   ZZ=            -22.2335
   XY=              0.0055   XZ=              0.0000   YZ=             -0.0001

 Normal termination of Gaussian 16 at Mon Apr 21 17:30:29 2025.
