 Gaussian 16, Revision A.03,
 Gaussian 16:  ES64L-G16RevA.03 25-Dec-2016

 --------------------------------------------
 #p opt UM062X/6-311+G** nosymm int=superfine
 --------------------------------------------

 -------------------
 Title Card Required
 -------------------
 Symbolic Z-matrix:
 Charge =  0 Multiplicity = 1

 SCF Done:  E(UM062X) =  -379.586457645     A.U. after   16 cycles
 SCF Done:  E(UM062X) =  -379.587793850     A.U. after   11 cycles
 SCF Done:  E(UM062X) =  -379.587799154     A.U. after    8 cycles
 Optimization completed.
    -- Stationary point found.

                          Input orientation:
 ---------------------------------------------------------------------
 Center     Atomic      Atomic             Coordinates (Angstroms)
 Number     Number       Type             X           Y           Z
 ---------------------------------------------------------------------
      1          6           0       -1.665377    0.000000    0.000000
      2         15           0        1.665377    0.000000    0.000000
      3          1           0       -2.786468   -0.000000    0.000000
 ---------------------------------------------------------------------

 Alpha  occ. eigenvalues --  -78.08069 -10.71453  -6.89902  -5.01778  -5.00883
 Alpha  occ. eigenvalues --   -5.00883  -0.76236  -0.61030  -0.42097  -0.24468
 Alpha  occ. eigenvalues --   -0.24468
 Alpha virt. eigenvalues --   -0.14795  -0.14795  -0.11603   0.01205   0.04045
 Alpha virt. eigenvalues --    0.05970   0.05970   0.07614   0.08758   0.08758
 Alpha virt. eigenvalues --    0.13709   0.17370   0.32962   0.32962   0.34146

  Beta  occ. eigenvalues --  -78.08069 -10.71453  -6.89902  -5.01778  -5.00883
  Beta  occ. eigenvalues --   -5.00883  -0.76236  -0.61030  -0.42097  -0.24468
  Beta  occ. eigenvalues --   -0.24468
  Beta virt. eigenvalues --   -0.14795  -0.14795  -0.11603   0.01205   0.04045
  Beta virt. eigenvalues --    0.05970   0.05970   0.07614   0.08758   0.08758
  Beta virt. eigenvalues --    0.13709   0.17370   0.32962   0.32962   0.34146

 Mulliken charges and spin densities:
               1          2
     1  C   -0.154145   0.000000
     2  P   -0.020807  -0.000000
     3  H    0.174952  -0.000000
 Sum of Mulliken charges =  -0.00000  -0.00000

 Dipole moment (field-independent basis, Debye):
    X=             -2.4794    Y=             -0.0000    Z=              0.0000  Tot=              2.4794
 Quadrupole moment (field-independent basis, Debye-Ang):
   XX=            -10.5427   YY=            -24.0847   ZZ=            -24.0847
   XY=             -0.0000   XZ=              0.0000   YZ=             -0.0000

 Normal termination of Gaussian 16 at Mon Apr 21 19:30:27 2025.
