 Gaussian 16, Revision A.03,
 Gaussian 16:  ES64L-G16RevA.03 25-Dec-2016

 ---------------------------------------------------------
 #p opt UM062X/6-311+G** nosymm int=superfine SCF=NoVarAcc
 ---------------------------------------------------------

 -------------------
 Title Card Required
 -------------------
 Symbolic Z-matrix:
 Charge =  1 Multiplicity = 2

 SCF Done:  E(UM062X) =  -76.5833468036     A.U. after   16 cycles
 SCF Done:  E(UM062X) =  -76.5836945586     A.U. after   10 cycles
 Optimization completed.
    -- Stationary point found.

                          Input orientation:
 ---------------------------------------------------------------------
 Center     Atomic      Atomic             Coordinates (Angstroms)
 Number     Number       Type             X           Y           Z
 ---------------------------------------------------------------------
      1          6           0       -4.382160    0.000000    0.000000
      2          6           0        4.382160    0.000000    0.000000
      3          1           0       -5.500027   -0.000000   -0.000000
      4          1           0        5.500026    0.000000   -0.000000
 ---------------------------------------------------------------------

 Alpha  occ. eigenvalues --  -10.91860 -10.91860  -0.95639  -0.95632  -0.60708
 Alpha  occ. eigenvalues --   -0.60705  -0.43415
 Alpha virt. eigenvalues --   -0.40192  -0.30599  -0.30599  -0.09505  -0.09476
 Alpha virt. eigenvalues --   -0.05125  -0.04361  -0.04214  -0.04195  -0.04044
 Alpha virt. eigenvalues --   -0.03512   0.01790   0.02006   0.29726   0.30508

  Beta  occ. eigenvalues --  -10.91445 -10.91445  -0.93272  -0.93272  -0.59317
  Beta  occ. eigenvalues --   -0.59317
  Beta virt. eigenvalues --   -0.28714  -0.28713  -0.27081  -0.27080  -0.09713
  Beta virt. eigenvalues --   -0.09704  -0.05092  -0.03569  -0.03522  -0.03420
  Beta virt. eigenvalues --   -0.02645  -0.02497   0.03576   0.03834   0.29023

 Mulliken charges and spin densities:
               1          2
     1  C    0.296482   0.515568
     2  C    0.296482   0.515568
     3  H    0.203518  -0.015568
     4  H    0.203518  -0.015568
 Sum of Mulliken charges =   1.00000   1.00000

 Dipole moment (field-independent basis, Debye):
    X=             -0.0000    Y=             -0.0000    Z=             -0.0000  Tot=              0.0000
 Quadrupole moment (field-independent basis, Debye-Ang):
   XX=            115.8375   YY=            -10.4295   ZZ=            -10.4872
   XY=             -0.0000   XZ=             -0.0000   YZ=             -0.9902

 Normal termination of Gaussian 16 at Tue Dec  3 17:43:45 2024.
