 Gaussian 16, Revision A.03,
 Gaussian 16:  ES64L-G16RevA.03 25-Dec-2016

 --------------------------------------------
 #p opt UM062X/6-311+G** nosymm int=superfine
 --------------------------------------------

 -------------------
 Title Card Required
 -------------------
 Symbolic Z-matrix:
 Charge =  0 Multiplicity = 1

 SCF Done:  E(UM062X) =  -80.7244884140     A.U. after   10 cycles
 SCF Done:  E(UM062X) =  -80.7245110859     A.U. after    8 cycles
 SCF Done:  E(UM062X) =  -80.7245107981     A.U. after    7 cycles
 SCF Done:  E(UM062X) =  -80.7245113460     A.U. after    7 cycles
 Optimization completed.
    -- Stationary point found.

                          Input orientation:
 ---------------------------------------------------------------------
 Center     Atomic      Atomic             Coordinates (Angstroms)
 Number     Number       Type             X           Y           Z
 ---------------------------------------------------------------------
      1          5           0       -0.742066    0.000000    0.000000
      2          7           0        0.742066    0.000000    0.000000
      3          1           0       -1.908763   -0.000006   -0.000008
      4          1           0        1.741113    0.001138   -0.000000
 ---------------------------------------------------------------------

 Alpha  occ. eigenvalues --  -14.74959  -7.12880  -0.88823  -0.60311  -0.53152
 Alpha  occ. eigenvalues --   -0.32740  -0.32740
 Alpha virt. eigenvalues --    0.00119   0.00119   0.01275   0.02204   0.06052
 Alpha virt. eigenvalues --    0.06052   0.09472   0.12078   0.18345   0.18345
 Alpha virt. eigenvalues --    0.21670   0.25596   0.33578   0.41217   0.41217

  Beta  occ. eigenvalues --  -14.74959  -7.12880  -0.88823  -0.60311  -0.53152
  Beta  occ. eigenvalues --   -0.32740  -0.32740
  Beta virt. eigenvalues --    0.00119   0.00119   0.01275   0.02204   0.06052
  Beta virt. eigenvalues --    0.06052   0.09472   0.12078   0.18345   0.18345
  Beta virt. eigenvalues --    0.21670   0.25596   0.33578   0.41217   0.41217

 Mulliken charges and spin densities:
               1          2
     1  B    0.240077   0.000000
     2  N   -0.591675   0.000000
     3  H    0.057733  -0.000000
     4  H    0.293865  -0.000000
 Sum of Mulliken charges =  -0.00000  -0.00000

 Dipole moment (field-independent basis, Debye):
    X=             -1.0998    Y=              0.0018    Z=             -0.0000  Tot=              1.0998
 Quadrupole moment (field-independent basis, Debye-Ang):
   XX=             -7.1943   YY=            -14.1507   ZZ=            -14.1507
   XY=              0.0045   XZ=              0.0000   YZ=             -0.0000

 Normal termination of Gaussian 16 at Mon Apr 21 18:01:30 2025.
