 Gaussian 16, Revision A.03,
 Gaussian 16:  ES64L-G16RevA.03 25-Dec-2016

 ---------------------------------------
 #p UM062X/6-311+G** force int=superfine
 ---------------------------------------

 -------------------
 Title Card Required
 -------------------
 Symbolic Z-matrix:
 Charge =  1 Multiplicity = 2

                         Standard orientation:
 ---------------------------------------------------------------------
 Center     Atomic      Atomic             Coordinates (Angstroms)
 Number     Number       Type             X           Y           Z
 ---------------------------------------------------------------------
      1          6           0        0.346823    0.692863   -1.700762
      2          6           0       -0.346827   -0.692857    1.700763
      3          1           0       -1.219889   -1.224466    1.340486
      4          1           0        0.453509   -0.302153   -2.116936
      5          1           0       -0.453459    0.301801    2.117808
      6          1           0        0.615949   -1.189841    1.727289
      7          1           0        1.219777    1.224651   -1.340487
      8          1           0       -0.615864    1.189975   -1.728168
 ---------------------------------------------------------------------

 SCF Done:  E(UM062X) =  -79.3214445412     A.U. after   10 cycles

 The electronic state is 2-A.
 Alpha  occ. eigenvalues --  -10.83931 -10.83930  -1.02487  -1.02018  -0.73485
 Alpha  occ. eigenvalues --   -0.73485  -0.73306  -0.73306  -0.48507
 Alpha virt. eigenvalues --   -0.37327  -0.13000  -0.10200  -0.09662  -0.09662
 Alpha virt. eigenvalues --   -0.06235  -0.06235  -0.04435  -0.03090  -0.00494
 Alpha virt. eigenvalues --   -0.00491   0.01305   0.01307   0.03095   0.08413

  Beta  occ. eigenvalues --  -10.83717 -10.83717  -0.99823  -0.99515  -0.72974
  Beta  occ. eigenvalues --   -0.72973  -0.72774  -0.72774
  Beta virt. eigenvalues --   -0.32759  -0.26557  -0.16155  -0.11047  -0.11045
  Beta virt. eigenvalues --   -0.10189  -0.06257  -0.06257  -0.05030  -0.02150
  Beta virt. eigenvalues --   -0.00805  -0.00801   0.01579   0.01581   0.02988

 Mulliken charges and spin densities:
               1          2
     1  C   -0.257397   0.558119
     2  C   -0.257397   0.558119
     3  H    0.252496  -0.019356
     4  H    0.252436  -0.019385
     5  H    0.252458  -0.019385
     6  H    0.252443  -0.019378
     7  H    0.252498  -0.019356
     8  H    0.252464  -0.019378
 Sum of Mulliken charges =   1.00000   1.00000

 Dipole moment (field-independent basis, Debye):
    X=              0.0000    Y=             -0.0001    Z=             -0.0000  Tot=              0.0001
 Quadrupole moment (field-independent basis, Debye-Ang):
   XX=            -10.5293   YY=             -8.8131   ZZ=              2.6916
   XY=              1.1469   XZ=             -2.8146   YZ=             -5.6210

 Normal termination of Gaussian 16 at Wed Nov 13 13:05:26 2024.
