 Gaussian 16, Revision A.03,
 Gaussian 16:  ES64L-G16RevA.03 25-Dec-2016

 --------------------------------------------
 #p opt UM062X/6-311+G** nosymm int=superfine
 --------------------------------------------

 -------------------
 Title Card Required
 -------------------
 Symbolic Z-matrix:
 Charge =  0 Multiplicity = 1

 SCF Done:  E(UM062X) =  -797.452943106     A.U. after   13 cycles
 SCF Done:  E(UM062X) =  -797.454179261     A.U. after   12 cycles
 SCF Done:  E(UM062X) =  -797.455015979     A.U. after   13 cycles
 SCF Done:  E(UM062X) =  -797.455040991     A.U. after   11 cycles
 SCF Done:  E(UM062X) =  -797.455041084     A.U. after   10 cycles
 Optimization completed.
    -- Stationary point found.

                          Input orientation:
 ---------------------------------------------------------------------
 Center     Atomic      Atomic             Coordinates (Angstroms)
 Number     Number       Type             X           Y           Z
 ---------------------------------------------------------------------
      1         16           0       -1.593191    0.000000    0.000000
      2         16           0        1.593191    0.000000    0.000000
      3          1           0       -1.529770   -1.334826   -0.158703
      4          1           0        1.530672    0.187611    1.331255
 ---------------------------------------------------------------------

 Alpha  occ. eigenvalues --  -89.94758 -89.94758  -8.30903  -8.30902  -6.23064
 Alpha  occ. eigenvalues --   -6.23064  -6.22794  -6.22794  -6.22238  -6.22238
 Alpha  occ. eigenvalues --   -0.82293  -0.80415  -0.47335  -0.47327  -0.34777
 Alpha  occ. eigenvalues --   -0.33522  -0.33087
 Alpha virt. eigenvalues --   -0.17585   0.01961   0.03156   0.04602   0.05042
 Alpha virt. eigenvalues --    0.06257   0.07197   0.07397   0.07526   0.11078
 Alpha virt. eigenvalues --    0.13179   0.30359   0.31145   0.32445   0.35831

  Beta  occ. eigenvalues --  -89.94758 -89.94758  -8.30903  -8.30902  -6.23064
  Beta  occ. eigenvalues --   -6.23064  -6.22794  -6.22794  -6.22238  -6.22238
  Beta  occ. eigenvalues --   -0.82293  -0.80415  -0.47335  -0.47327  -0.34777
  Beta  occ. eigenvalues --   -0.33522  -0.33087
  Beta virt. eigenvalues --   -0.17585   0.01961   0.03156   0.04602   0.05042
  Beta virt. eigenvalues --    0.06257   0.07197   0.07397   0.07526   0.11078
  Beta virt. eigenvalues --    0.13179   0.30359   0.31145   0.32445   0.35831

 Mulliken charges and spin densities:
               1          2
     1  S   -0.088030   0.000000
     2  S   -0.088088  -0.000000
     3  H    0.088052  -0.000000
     4  H    0.088066   0.000000
 Sum of Mulliken charges =   0.00000  -0.00000

 Dipole moment (field-independent basis, Debye):
    X=              0.0006    Y=             -0.9243    Z=              0.9444  Tot=              1.3214
 Quadrupole moment (field-independent basis, Debye-Ang):
   XX=            -25.2422   YY=            -27.9695   ZZ=            -28.0148
   XY=              2.1566   XZ=              2.1117   YZ=              1.0476

 Normal termination of Gaussian 16 at Mon Apr 21 21:16:23 2025.
