 Gaussian 16, Revision A.03,
 Gaussian 16:  ES64L-G16RevA.03 25-Dec-2016

 --------------------------------------------
 #p opt UM062X/6-311+G** nosymm int=superfine
 --------------------------------------------

 -------------------
 Title Card Required
 -------------------
 Symbolic Z-matrix:
 Charge =  0 Multiplicity = 1

 SCF Done:  E(UM062X) =  -77.1440353197     A.U. after    9 cycles
 SCF Done:  E(UM062X) =  -77.1820824048     A.U. after    9 cycles
 SCF Done:  E(UM062X) =  -77.2059951177     A.U. after    9 cycles
 SCF Done:  E(UM062X) =  -77.2061091491     A.U. after    8 cycles
 Optimization completed.
    -- Stationary point found.

                          Input orientation:
 ---------------------------------------------------------------------
 Center     Atomic      Atomic             Coordinates (Angstroms)
 Number     Number       Type             X           Y           Z
 ---------------------------------------------------------------------
      1          6           0       -0.748144    0.000000    0.000000
      2          6           0        0.748144    0.000000    0.000000
      3          1           0       -1.819330   -0.000000    0.000000
      4          1           0        1.819322   -0.000000    0.000000
 ---------------------------------------------------------------------

 Alpha  occ. eigenvalues --  -10.62394 -10.62339  -0.79926  -0.68071  -0.55183
 Alpha  occ. eigenvalues --   -0.31943  -0.31943
 Alpha virt. eigenvalues --   -0.01037  -0.01037   0.01855   0.02400   0.08148
 Alpha virt. eigenvalues --    0.08148   0.09389   0.10790   0.11788   0.11788
 Alpha virt. eigenvalues --    0.18177   0.23320   0.31616   0.46108   0.58672

  Beta  occ. eigenvalues --  -10.62394 -10.62339  -0.79926  -0.68071  -0.55183
  Beta  occ. eigenvalues --   -0.31943  -0.31943
  Beta virt. eigenvalues --   -0.01037  -0.01037   0.01855   0.02400   0.08148
  Beta virt. eigenvalues --    0.08148   0.09389   0.10790   0.11788   0.11788
  Beta virt. eigenvalues --    0.18177   0.23320   0.31616   0.46108   0.58672

 Mulliken charges and spin densities:
               1          2
     1  C   -0.223697  -0.000000
     2  C   -0.223698  -0.000000
     3  H    0.223699   0.000000
     4  H    0.223696  -0.000000
 Sum of Mulliken charges =  -0.00000  -0.00000

 Dipole moment (field-independent basis, Debye):
    X=             -0.0000    Y=             -0.0000    Z=              0.0000  Tot=              0.0000
 Quadrupole moment (field-independent basis, Debye-Ang):
   XX=             -5.7846   YY=            -15.0919   ZZ=            -15.0919
   XY=              0.0000   XZ=             -0.0000   YZ=              0.0000

 Normal termination of Gaussian 16 at Tue Dec  3 20:09:10 2024.
