 Gaussian 16, Revision A.03,
 Gaussian 16:  ES64L-G16RevA.03 25-Dec-2016

 ---------------------------------------
 #p UM062X/6-311+G** force int=superfine
 ---------------------------------------

 -------------------
 Title Card Required
 -------------------
 Symbolic Z-matrix:
 Charge =  1 Multiplicity = 2

                         Standard orientation:
 ---------------------------------------------------------------------
 Center     Atomic      Atomic             Coordinates (Angstroms)
 Number     Number       Type             X           Y           Z
 ---------------------------------------------------------------------
      1          6           0        0.670320    0.839530   -1.615712
      2          6           0       -0.670323   -0.839524    1.615713
      3          1           0       -1.591409   -1.123322    1.120295
      4          1           0        0.614424   -0.097182   -2.157765
      5          1           0       -0.614551    0.096698    2.158626
      6          1           0        0.166382   -1.527880    1.637340
      7          1           0        1.591336    1.123530   -1.120279
      8          1           0       -0.166166    1.528125   -1.638226
 ---------------------------------------------------------------------

 SCF Done:  E(UM062X) =  -79.3191779095     A.U. after   10 cycles

 The electronic state is 2-A.
 Alpha  occ. eigenvalues --  -10.83677 -10.83676  -1.02236  -1.01858  -0.73270
 Alpha  occ. eigenvalues --   -0.73270  -0.73136  -0.73136  -0.47842
 Alpha virt. eigenvalues --   -0.37517  -0.12834  -0.10175  -0.09511  -0.09511
 Alpha virt. eigenvalues --   -0.06225  -0.06225  -0.04393  -0.02987  -0.00216
 Alpha virt. eigenvalues --   -0.00214   0.01344   0.01346   0.02821   0.08606

  Beta  occ. eigenvalues --  -10.83459 -10.83459  -0.99579  -0.99336  -0.72752
  Beta  occ. eigenvalues --   -0.72751  -0.72598  -0.72598
  Beta virt. eigenvalues --   -0.32693  -0.26617  -0.16459  -0.10944  -0.10943
  Beta virt. eigenvalues --   -0.10212  -0.06227  -0.06227  -0.05158  -0.02038
  Beta virt. eigenvalues --   -0.00483  -0.00480   0.01609   0.01611   0.02593

 Mulliken charges and spin densities:
               1          2
     1  C   -0.252951   0.557234
     2  C   -0.252950   0.557235
     3  H    0.251006  -0.019072
     4  H    0.250969  -0.019072
     5  H    0.250990  -0.019073
     6  H    0.250954  -0.019089
     7  H    0.251007  -0.019072
     8  H    0.250975  -0.019090
 Sum of Mulliken charges =   1.00000   1.00000

 Dipole moment (field-independent basis, Debye):
    X=              0.0000    Y=             -0.0001    Z=             -0.0000  Tot=              0.0001
 Quadrupole moment (field-independent basis, Debye-Ang):
   XX=             -8.9763   YY=             -7.7639   ZZ=              1.2831
   XY=              2.6732   XZ=             -5.1438   YZ=             -6.4409

 Normal termination of Gaussian 16 at Wed Nov 13 13:06:09 2024.
