 Gaussian 16, Revision A.03,
 Gaussian 16:  ES64L-G16RevA.03 25-Dec-2016

 --------------------------------------------
 #p opt UM062X/6-311+G** nosymm int=superfine
 --------------------------------------------

 -------------------
 Title Card Required
 -------------------
 Symbolic Z-matrix:
 Charge =  0 Multiplicity = 1

 SCF Done:  E(UM062X) =  -115.449106023     A.U. after   19 cycles
 SCF Done:  E(UM062X) =  -115.465465757     A.U. after   12 cycles
 SCF Done:  E(UM062X) =  -115.475561727     A.U. after   14 cycles
 SCF Done:  E(UM062X) =  -115.475713593     A.U. after   12 cycles
 SCF Done:  E(UM062X) =  -115.475808146     A.U. after   12 cycles
 SCF Done:  E(UM062X) =  -115.475939904     A.U. after   10 cycles
 SCF Done:  E(UM062X) =  -115.475971912     A.U. after   11 cycles
 SCF Done:  E(UM062X) =  -115.475980522     A.U. after   11 cycles
 SCF Done:  E(UM062X) =  -115.475980819     A.U. after   10 cycles
 Optimization completed.
    -- Stationary point found.

                          Input orientation:
 ---------------------------------------------------------------------
 Center     Atomic      Atomic             Coordinates (Angstroms)
 Number     Number       Type             X           Y           Z
 ---------------------------------------------------------------------
      1          6           0       -1.782203    0.000000    0.000000
      2          8           0        1.782203    0.000000    0.000000
      3          1           0        1.825086   -0.964801    0.000578
      4          1           0       -1.850952   -0.533906    0.937946
      5          1           0       -1.685014    1.077107   -0.000662
      6          1           0       -1.850884   -0.535061   -0.937293
 ---------------------------------------------------------------------

 Alpha  occ. eigenvalues --  -19.58421 -10.67161  -1.00842  -0.84944  -0.57055
 Alpha  occ. eigenvalues --   -0.56848  -0.45379  -0.32337  -0.27845
 Alpha virt. eigenvalues --   -0.17000   0.00355   0.03692   0.03974   0.06773
 Alpha virt. eigenvalues --    0.13311   0.14707   0.14879   0.19487   0.22801
 Alpha virt. eigenvalues --    0.23047   0.24934   0.28165   0.39024   0.39245

  Beta  occ. eigenvalues --  -19.58421 -10.67161  -1.00842  -0.84944  -0.57055
  Beta  occ. eigenvalues --   -0.56848  -0.45379  -0.32337  -0.27845
  Beta virt. eigenvalues --   -0.17000   0.00355   0.03692   0.03974   0.06773
  Beta virt. eigenvalues --    0.13311   0.14707   0.14879   0.19487   0.22801
  Beta virt. eigenvalues --    0.23047   0.24934   0.28165   0.39024   0.39245

 Mulliken charges and spin densities:
               1          2
     1  C   -0.292266  -0.000000
     2  O   -0.564846   0.000000
     3  H    0.211719  -0.000000
     4  H    0.210893  -0.000000
     5  H    0.223606   0.000000
     6  H    0.210895   0.000000
 Sum of Mulliken charges =  -0.00000   0.00000

 Dipole moment (field-independent basis, Debye):
    X=             -6.1797    Y=             -1.5767    Z=              0.0009  Tot=              6.3776
 Quadrupole moment (field-independent basis, Debye-Ang):
   XX=            -13.2442   YY=            -11.4926   ZZ=            -13.9106
   XY=             -2.9818   XZ=              0.0017   YZ=             -0.0014

 Normal termination of Gaussian 16 at Mon Apr 21 18:41:15 2025.
