 Gaussian 16, Revision A.03,
 Gaussian 16:  ES64L-G16RevA.03 25-Dec-2016

 --------------------------------------------
 #p opt UM062X/6-311+G** nosymm int=superfine
 --------------------------------------------

 -------------------
 Title Card Required
 -------------------
 Symbolic Z-matrix:
 Charge =  0 Multiplicity = 1

 SCF Done:  E(UM062X) =  -78.5613703277     A.U. after    8 cycles
 SCF Done:  E(UM062X) =  -78.5618447829     A.U. after    7 cycles
 SCF Done:  E(UM062X) =  -78.5618769342     A.U. after    6 cycles
 Optimization completed.
    -- Stationary point found.

                          Input orientation:
 ---------------------------------------------------------------------
 Center     Atomic      Atomic             Coordinates (Angstroms)
 Number     Number       Type             X           Y           Z
 ---------------------------------------------------------------------
      1          6           0       -0.682758    0.000000    0.000000
      2          6           0        0.682758    0.000000    0.000000
      3          1           0       -1.244176   -0.926340    0.000000
      4          1           0       -1.244287    0.926210    0.000000
      5          1           0        1.244176    0.926340   -0.000000
      6          1           0        1.244287   -0.926210   -0.000000
 ---------------------------------------------------------------------

 Alpha  occ. eigenvalues --  -10.54476 -10.54383  -0.85285  -0.66682  -0.54101
 Alpha  occ. eigenvalues --   -0.48100  -0.42468  -0.32891
 Alpha virt. eigenvalues --    0.02116   0.03395   0.04041   0.05163   0.07815
 Alpha virt. eigenvalues --    0.08137   0.09724   0.13175   0.16025   0.17307
 Alpha virt. eigenvalues --    0.20140   0.22924   0.31114   0.35029   0.43641

  Beta  occ. eigenvalues --  -10.54476 -10.54383  -0.85285  -0.66682  -0.54101
  Beta  occ. eigenvalues --   -0.48100  -0.42468  -0.32891
  Beta virt. eigenvalues --    0.02116   0.03395   0.04041   0.05163   0.07815
  Beta virt. eigenvalues --    0.08137   0.09724   0.13175   0.16025   0.17307
  Beta virt. eigenvalues --    0.20140   0.22924   0.31114   0.35029   0.43641

 Mulliken charges and spin densities:
               1          2
     1  C   -0.300665   0.000000
     2  C   -0.300665  -0.000000
     3  H    0.150326  -0.000000
     4  H    0.150339  -0.000000
     5  H    0.150326   0.000000
     6  H    0.150339   0.000000
 Sum of Mulliken charges =  -0.00000  -0.00000

 Dipole moment (field-independent basis, Debye):
    X=             -0.0000    Y=             -0.0000    Z=              0.0000  Tot=              0.0000
 Quadrupole moment (field-independent basis, Debye-Ang):
   XX=            -12.2132   YY=            -12.3081   ZZ=            -16.0638
   XY=             -0.0003   XZ=             -0.0000   YZ=             -0.0000

 Normal termination of Gaussian 16 at Tue Nov 19 10:37:15 2024.
