 Gaussian 16, Revision A.03,
 Gaussian 16:  ES64L-G16RevA.03 25-Dec-2016

 --------------------------------------------
 #p opt UM062X/6-311+G** nosymm int=superfine
 --------------------------------------------

 -------------------
 Title Card Required
 -------------------
 Symbolic Z-matrix:
 Charge =  0 Multiplicity = 1

 SCF Done:  E(UM062X) =  -581.142819811     A.U. after    9 cycles
 SCF Done:  E(UM062X) =  -581.162445990     A.U. after    8 cycles
 SCF Done:  E(UM062X) =  -581.174398590     A.U. after    8 cycles
 SCF Done:  E(UM062X) =  -581.174418559     A.U. after    7 cycles
 Optimization completed.
    -- Stationary point found.

                          Input orientation:
 ---------------------------------------------------------------------
 Center     Atomic      Atomic             Coordinates (Angstroms)
 Number     Number       Type             X           Y           Z
 ---------------------------------------------------------------------
      1         14           0       -2.412518    0.000000    0.000000
      2         14           0        2.412518    0.000000    0.000000
      3          1           0       -3.475380   -1.084275    0.000048
      4          1           0        3.475380    1.084274   -0.000538
      5          1           0       -3.475385    1.084270    0.000266
      6          1           0        3.475385   -1.084270    0.000852
 ---------------------------------------------------------------------

 Alpha  occ. eigenvalues --  -67.01300 -67.01300  -5.56022  -5.56022  -3.87270
 Alpha  occ. eigenvalues --   -3.87269  -3.86727  -3.86727  -3.86585  -3.86585
 Alpha  occ. eigenvalues --   -0.57272  -0.57216  -0.37857  -0.37836  -0.28935
 Alpha  occ. eigenvalues --   -0.27380
 Alpha virt. eigenvalues --   -0.08132  -0.07597   0.02080   0.02476   0.02985
 Alpha virt. eigenvalues --    0.04552   0.05586   0.06057   0.06217   0.07324
 Alpha virt. eigenvalues --    0.07960   0.09026   0.11352   0.13982   0.28734

  Beta  occ. eigenvalues --  -67.01300 -67.01300  -5.56022  -5.56022  -3.87270
  Beta  occ. eigenvalues --   -3.87269  -3.86727  -3.86727  -3.86585  -3.86585
  Beta  occ. eigenvalues --   -0.57272  -0.57216  -0.37857  -0.37836  -0.28935
  Beta  occ. eigenvalues --   -0.27380
  Beta virt. eigenvalues --   -0.08132  -0.07597   0.02080   0.02476   0.02985
  Beta virt. eigenvalues --    0.04552   0.05586   0.06057   0.06217   0.07324
  Beta virt. eigenvalues --    0.07960   0.09026   0.11352   0.13982   0.28734

 Mulliken charges and spin densities:
               1          2
     1  Si   0.322959   0.000000
     2  Si   0.322959   0.000000
     3  H   -0.161479  -0.000000
     4  H   -0.161479   0.000000
     5  H   -0.161479  -0.000000
     6  H   -0.161479   0.000000
 Sum of Mulliken charges =  -0.00000   0.00000

 Dipole moment (field-independent basis, Debye):
    X=              0.0000    Y=              0.0000    Z=              0.0001  Tot=              0.0001
 Quadrupole moment (field-independent basis, Debye-Ang):
   XX=            -35.2229   YY=            -32.7214   ZZ=            -24.3749
   XY=             -0.0000   XZ=              0.0000   YZ=              0.0023

 Normal termination of Gaussian 16 at Mon Apr 21 20:35:08 2025.
