 Gaussian 16, Revision A.03,
 Gaussian 16:  ES64L-G16RevA.03 25-Dec-2016

 ----------------------------------------------------------------------
 #p opt UM062X/6-311+G** nosymm int=superfine SCF=(MaxCycle=200,NoVarAc
 c,noincfock) guess=read
 ----------------------------------------------------------------------

 -------------------
 Title Card Required
 -------------------
 Symbolic Z-matrix:
 Charge =  0 Multiplicity = 1

 SCF Done:  E(UM062X) =  -81.7171589034     A.U. after   22 cycles
 SCF Done:  E(UM062X) =  -81.7371659703     A.U. after   16 cycles
 SCF Done:  E(UM062X) =  -81.7403318286     A.U. after   14 cycles
 SCF Done:  E(UM062X) =  -81.7447828182     A.U. after   14 cycles
 SCF Done:  E(UM062X) =  -81.7467828505     A.U. after   14 cycles
 SCF Done:  E(UM062X) =  -81.7485032348     A.U. after   15 cycles
 SCF Done:  E(UM062X) =  -81.7488360724     A.U. after   14 cycles
 SCF Done:  E(UM062X) =  -81.7489302357     A.U. after   11 cycles
 SCF Done:  E(UM062X) =  -81.7489759859     A.U. after   13 cycles
 SCF Done:  E(UM062X) =  -81.7489919545     A.U. after   11 cycles
 SCF Done:  E(UM062X) =  -81.7490002886     A.U. after   12 cycles
 Optimization completed.
    -- Stationary point found.

                          Input orientation:
 ---------------------------------------------------------------------
 Center     Atomic      Atomic             Coordinates (Angstroms)
 Number     Number       Type             X           Y           Z
 ---------------------------------------------------------------------
      1          5           0       -1.720399    0.000000    0.000000
      2          7           0        1.720399    0.000000    0.000000
      3          1           0       -2.062227   -1.120648   -0.025727
      4          1           0        1.723649    0.802600    0.637323
      5          1           0       -2.062224    1.120644   -0.025968
      6          1           0        1.723648   -0.802506    0.637441
 ---------------------------------------------------------------------

 Alpha  occ. eigenvalues --  -14.71784  -7.18210  -0.87426  -0.62829  -0.51404
 Alpha  occ. eigenvalues --   -0.48097  -0.33354  -0.24183
 Alpha virt. eigenvalues --   -0.10009  -0.08599   0.00783   0.02775   0.04155
 Alpha virt. eigenvalues --    0.05057   0.09638   0.11831   0.13635   0.17406
 Alpha virt. eigenvalues --    0.20237   0.20752   0.21629   0.28405   0.32466

  Beta  occ. eigenvalues --  -14.71784  -7.18210  -0.87426  -0.62829  -0.51404
  Beta  occ. eigenvalues --   -0.48097  -0.33354  -0.24183
  Beta virt. eigenvalues --   -0.10009  -0.08599   0.00783   0.02775   0.04155
  Beta virt. eigenvalues --    0.05057   0.09638   0.11831   0.13635   0.17406
  Beta virt. eigenvalues --    0.20237   0.20752   0.21629   0.28405   0.32466

 Mulliken charges and spin densities:
               1          2
     1  B    0.163216   0.000000
     2  N   -0.705921  -0.000000
     3  H    0.064937   0.000000
     4  H    0.206415   0.000000
     5  H    0.064937   0.000000
     6  H    0.206415   0.000000
 Sum of Mulliken charges =  -0.00000  -0.00000

 Dipole moment (field-independent basis, Debye):
    X=             -5.0007    Y=              0.0001    Z=              1.8508  Tot=              5.3322
 Quadrupole moment (field-independent basis, Debye-Ang):
   XX=            -14.0278   YY=            -13.4381   ZZ=            -14.5626
   XY=              0.0003   XZ=              3.5036   YZ=             -0.0001

 Normal termination of Gaussian 16 at Mon Apr 21 20:34:02 2025.
