 Gaussian 16, Revision A.03,
 Gaussian 16:  ES64L-G16RevA.03 25-Dec-2016

 --------------------------------------------
 #p opt UM062X/6-311+G** nosymm int=superfine
 --------------------------------------------

 -------------------
 Title Card Required
 -------------------
 Symbolic Z-matrix:
 Charge =  0 Multiplicity = 1

 SCF Done:  E(UM062X) =  -81.6872961490     A.U. after   25 cycles
 SCF Done:  E(UM062X) =  -81.6985516485     A.U. after   16 cycles
 SCF Done:  E(UM062X) =  -81.7037616758     A.U. after   15 cycles
 SCF Done:  E(UM062X) =  -81.7051802183     A.U. after   18 cycles
 SCF Done:  E(UM062X) =  -81.7074860332     A.U. after   14 cycles
 SCF Done:  E(UM062X) =  -81.7089751761     A.U. after   17 cycles
 SCF Done:  E(UM062X) =  -81.7092237863     A.U. after   19 cycles
 SCF Done:  E(UM062X) =  -81.7094839872     A.U. after   14 cycles
 SCF Done:  E(UM062X) =  -81.7098511883     A.U. after   14 cycles
 SCF Done:  E(UM062X) =  -81.7100117468     A.U. after   14 cycles
 SCF Done:  E(UM062X) =  -81.7100653744     A.U. after   17 cycles
 SCF Done:  E(UM062X) =  -81.7100781433     A.U. after   13 cycles
 SCF Done:  E(UM062X) =  -81.7100792029     A.U. after   12 cycles
 Optimization completed.
    -- Stationary point found.

                          Input orientation:
 ---------------------------------------------------------------------
 Center     Atomic      Atomic             Coordinates (Angstroms)
 Number     Number       Type             X           Y           Z
 ---------------------------------------------------------------------
      1          5           0       -2.195399    0.000000    0.000000
      2          7           0        2.195399    0.000000    0.000000
      3          1           0       -2.505687   -1.129536   -0.029110
      4          1           0        2.171215    0.802198    0.638470
      5          1           0       -2.505686    1.129522   -0.029639
      6          1           0        2.171214   -0.801953    0.638777
 ---------------------------------------------------------------------

 Alpha  occ. eigenvalues --  -14.71321  -7.18708  -0.87174  -0.63638  -0.52466
 Alpha  occ. eigenvalues --   -0.47829  -0.33095  -0.21885
 Alpha virt. eigenvalues --   -0.12932  -0.09555   0.00389   0.02417   0.04113
 Alpha virt. eigenvalues --    0.05004   0.08698   0.10935   0.13546   0.17360
 Alpha virt. eigenvalues --    0.19463   0.19814   0.21848   0.25756   0.31770

  Beta  occ. eigenvalues --  -14.71321  -7.18708  -0.87174  -0.63638  -0.52466
  Beta  occ. eigenvalues --   -0.47829  -0.33095  -0.21885
  Beta virt. eigenvalues --   -0.12932  -0.09555   0.00389   0.02417   0.04113
  Beta virt. eigenvalues --    0.05004   0.08698   0.10935   0.13546   0.17360
  Beta virt. eigenvalues --    0.19463   0.19814   0.21848   0.25756   0.31770

 Mulliken charges and spin densities:
               1          2
     1  B    0.129861   0.000000
     2  N   -0.673965  -0.000000
     3  H    0.073428   0.000000
     4  H    0.198624   0.000000
     5  H    0.073428   0.000000
     6  H    0.198624   0.000000
 Sum of Mulliken charges =  -0.00000   0.00000

 Dipole moment (field-independent basis, Debye):
    X=             -6.2669    Y=              0.0004    Z=              1.9005  Tot=              6.5487
 Quadrupole moment (field-independent basis, Debye-Ang):
   XX=            -13.7403   YY=            -13.4678   ZZ=            -14.6524
   XY=              0.0008   XZ=              4.3758   YZ=             -0.0002

 Normal termination of Gaussian 16 at Mon Apr 21 17:57:15 2025.
