 Gaussian 16, Revision A.03,
 Gaussian 16:  ES64L-G16RevA.03 25-Dec-2016

 ---------------------------------------
 #p UM062X/6-311+G** force int=superfine
 ---------------------------------------

 -------------------
 Title Card Required
 -------------------
 Symbolic Z-matrix:
 Charge =  1 Multiplicity = 2

                         Standard orientation:
 ---------------------------------------------------------------------
 Center     Atomic      Atomic             Coordinates (Angstroms)
 Number     Number       Type             X           Y           Z
 ---------------------------------------------------------------------
      1          6           0       -0.000000    0.996718    0.000000
      2          6           0       -0.000000   -0.996718   -0.000000
      3          1           0        0.979500    1.461617    0.000000
      4          1           0       -0.979398    1.461674    0.000000
      5          1           0       -0.979500   -1.461617    0.000000
      6          1           0        0.979398   -1.461674   -0.000000
 ---------------------------------------------------------------------

 SCF Done:  E(UM062X) =  -78.0698096710     A.U. after    9 cycles

 The electronic state is 2-AU.
 Alpha  occ. eigenvalues --  -10.92132 -10.92116  -1.07211  -0.99990  -0.80874
 Alpha  occ. eigenvalues --   -0.77359  -0.67916  -0.56759
 Alpha virt. eigenvalues --   -0.36220  -0.23246  -0.14169  -0.11063  -0.09983
 Alpha virt. eigenvalues --   -0.08452  -0.07445  -0.07216  -0.04752  -0.04192
 Alpha virt. eigenvalues --   -0.02588  -0.00648   0.02183   0.09420   0.18007

  Beta  occ. eigenvalues --  -10.91898 -10.91888  -1.04089  -0.97776  -0.80315
  Beta  occ. eigenvalues --   -0.77007  -0.66408
  Beta virt. eigenvalues --   -0.35740  -0.27590  -0.20834  -0.15530  -0.11408
  Beta virt. eigenvalues --   -0.09980  -0.07964  -0.07662  -0.07371  -0.04242
  Beta virt. eigenvalues --   -0.03934  -0.02137  -0.00060   0.01405   0.10121

 Mulliken charges and spin densities:
               1          2
     1  C   -0.066698   0.541067
     2  C   -0.066698   0.541067
     3  H    0.283352  -0.020534
     4  H    0.283346  -0.020532
     5  H    0.283352  -0.020534
     6  H    0.283346  -0.020532
 Sum of Mulliken charges =   1.00000   1.00000

 Dipole moment (field-independent basis, Debye):
    X=             -0.0000    Y=              0.0000    Z=              0.0000  Tot=              0.0000
 Quadrupole moment (field-independent basis, Debye-Ang):
   XX=             -8.1629   YY=             -2.2777   ZZ=            -12.4647
   XY=              0.0001   XZ=             -0.0000   YZ=             -0.0000

 Normal termination of Gaussian 16 at Tue Nov 19 11:56:24 2024.
