 Gaussian 16, Revision A.03,
 Gaussian 16:  ES64L-G16RevA.03 25-Dec-2016

 --------------------------------------------
 #p opt UM062X/6-311+G** nosymm int=superfine
 --------------------------------------------

 -------------------
 Title Card Required
 -------------------
 Symbolic Z-matrix:
 Charge =  0 Multiplicity = 1

 SCF Done:  E(UM062X) =  -93.0261373444     A.U. after   11 cycles
 SCF Done:  E(UM062X) =  -93.0268805588     A.U. after   10 cycles
 Optimization completed.
    -- Stationary point found.

                          Input orientation:
 ---------------------------------------------------------------------
 Center     Atomic      Atomic             Coordinates (Angstroms)
 Number     Number       Type             X           Y           Z
 ---------------------------------------------------------------------
      1          6           0       -0.972395    0.000000    0.000000
      2          7           0        0.972395    0.000000    0.000000
      3          1           0       -2.073506    0.000000   -0.000000
 ---------------------------------------------------------------------

 Alpha  occ. eigenvalues --  -14.89655 -10.73087  -0.84972  -0.75649  -0.45234
 Alpha  occ. eigenvalues --   -0.32796  -0.32796
 Alpha virt. eigenvalues --   -0.12133  -0.12133  -0.05926   0.01733   0.06534
 Alpha virt. eigenvalues --    0.07308   0.07308   0.13500   0.16913   0.16913
 Alpha virt. eigenvalues --    0.20870   0.26958   0.47501   0.54771   0.54771

  Beta  occ. eigenvalues --  -14.89655 -10.73087  -0.84972  -0.75649  -0.45234
  Beta  occ. eigenvalues --   -0.32796  -0.32796
  Beta virt. eigenvalues --   -0.12133  -0.12133  -0.05926   0.01733   0.06534
  Beta virt. eigenvalues --    0.07308   0.07308   0.13500   0.16913   0.16913
  Beta virt. eigenvalues --    0.20870   0.26958   0.47501   0.54771   0.54771

 Mulliken charges and spin densities:
               1          2
     1  C   -0.179172   0.000000
     2  N   -0.056930  -0.000000
     3  H    0.236102  -0.000000
 Sum of Mulliken charges =  -0.00000   0.00000

 Dipole moment (field-independent basis, Debye):
    X=             -3.2459    Y=             -0.0000    Z=             -0.0000  Tot=              3.2459
 Quadrupole moment (field-independent basis, Debye-Ang):
   XX=             -7.1502   YY=            -13.9790   ZZ=            -13.9790
   XY=             -0.0000   XZ=              0.0000   YZ=             -0.0000

 Normal termination of Gaussian 16 at Mon Apr 21 18:36:20 2025.
