 Gaussian 16, Revision A.03,
 Gaussian 16:  ES64L-G16RevA.03 25-Dec-2016

 ---------------------------------------
 #p UM062X/6-311+G** force int=superfine
 ---------------------------------------

 -------------------
 Title Card Required
 -------------------
 Symbolic Z-matrix:
 Charge =  0 Multiplicity = 1

                         Standard orientation:
 ---------------------------------------------------------------------
 Center     Atomic      Atomic             Coordinates (Angstroms)
 Number     Number       Type             X           Y           Z
 ---------------------------------------------------------------------
      1          6           0       -0.626141    0.000000   -0.000005
      2          6           0        0.626141    0.000000    0.000004
      3          1           0        1.086211    0.807167    0.588779
      4          1           0       -1.086221   -0.106326    0.993410
      5          1           0        1.086222    0.106324   -0.993410
      6          1           0        1.086218   -0.913487    0.404624
      7          1           0       -1.086211   -0.807167   -0.588778
      8          1           0       -1.086219    0.913487   -0.404622
 ---------------------------------------------------------------------

 SCF Done:  E(UM062X) =  -79.7350515321     A.U. after    8 cycles

 The electronic state is 1-A.
 Alpha  occ. eigenvalues --  -10.50420 -10.50243  -0.91483  -0.68410  -0.53110
 Alpha  occ. eigenvalues --   -0.53109  -0.48995  -0.36743  -0.36742
 Alpha virt. eigenvalues --    0.02106   0.04202   0.05042   0.05042   0.08695
 Alpha virt. eigenvalues --    0.08924   0.08924   0.14203   0.19506   0.19507
 Alpha virt. eigenvalues --    0.19718   0.19719   0.24061   0.27947   0.37019

  Beta  occ. eigenvalues --  -10.50420 -10.50243  -0.91483  -0.68410  -0.53110
  Beta  occ. eigenvalues --   -0.53109  -0.48995  -0.36743  -0.36742
  Beta virt. eigenvalues --    0.02106   0.04202   0.05042   0.05042   0.08695
  Beta virt. eigenvalues --    0.08924   0.08924   0.14203   0.19506   0.19507
  Beta virt. eigenvalues --    0.19718   0.19719   0.24061   0.27947   0.37019

 Mulliken charges and spin densities:
               1          2
     1  C   -0.439998   0.000000
     2  C   -0.439998  -0.000000
     3  H    0.146666  -0.000000
     4  H    0.146667   0.000000
     5  H    0.146667  -0.000000
     6  H    0.146665   0.000000
     7  H    0.146666   0.000000
     8  H    0.146665   0.000000
 Sum of Mulliken charges =  -0.00000  -0.00000

 Dipole moment (field-independent basis, Debye):
    X=             -0.0000    Y=             -0.0000    Z=              0.0000  Tot=              0.0000
 Quadrupole moment (field-independent basis, Debye-Ang):
   XX=            -15.6368   YY=            -14.9553   ZZ=            -14.9554
   XY=              0.0000   XZ=             -0.0000   YZ=              0.0000

 Normal termination of Gaussian 16 at Tue Nov 19 12:39:27 2024.
