 Gaussian 16, Revision A.03,
 Gaussian 16:  ES64L-G16RevA.03 25-Dec-2016

 --------------------------------------------
 #p opt UM062X/6-311+G** nosymm int=superfine
 --------------------------------------------

 -------------------
 Title Card Required
 -------------------
 Symbolic Z-matrix:
 Charge =  0 Multiplicity = 1

 SCF Done:  E(UM062X) =  -382.354549191     A.U. after   11 cycles
 SCF Done:  E(UM062X) =  -382.359833157     A.U. after   10 cycles
 SCF Done:  E(UM062X) =  -382.361123009     A.U. after   10 cycles
 SCF Done:  E(UM062X) =  -382.361141124     A.U. after    8 cycles
 SCF Done:  E(UM062X) =  -382.361146645     A.U. after    8 cycles
 SCF Done:  E(UM062X) =  -382.361146963     A.U. after    8 cycles
 Optimization completed.
    -- Stationary point found.

                          Input orientation:
 ---------------------------------------------------------------------
 Center     Atomic      Atomic             Coordinates (Angstroms)
 Number     Number       Type             X           Y           Z
 ---------------------------------------------------------------------
      1          6           0       -1.281264    0.000000    0.000000
      2         15           0        1.281264    0.000000    0.000000
      3          1           0        1.298376   -1.417753    0.026077
      4          1           0       -1.504575    1.034061    0.229588
      5          1           0        1.298272    0.086137    1.415352
      6          1           0       -1.504559   -0.308812   -1.013233
      7          1           0       -1.522127   -0.716861    0.774578
 ---------------------------------------------------------------------

 Alpha  occ. eigenvalues --  -78.02981 -10.56731  -6.85313  -4.96844  -4.96807
 Alpha  occ. eigenvalues --   -4.96603  -0.77635  -0.69086  -0.48590  -0.48544
 Alpha  occ. eigenvalues --   -0.43442  -0.35125  -0.29546
 Alpha virt. eigenvalues --   -0.03575   0.01564   0.04006   0.04511   0.05088
 Alpha virt. eigenvalues --    0.06438   0.06712   0.07648   0.07744   0.13112
 Alpha virt. eigenvalues --    0.17564   0.18889   0.19207   0.25890   0.30216

  Beta  occ. eigenvalues --  -78.02981 -10.56731  -6.85313  -4.96844  -4.96807
  Beta  occ. eigenvalues --   -4.96603  -0.77635  -0.69086  -0.48590  -0.48544
  Beta  occ. eigenvalues --   -0.43442  -0.35125  -0.29546
  Beta virt. eigenvalues --   -0.03575   0.01564   0.04006   0.04511   0.05088
  Beta virt. eigenvalues --    0.06438   0.06712   0.07648   0.07744   0.13112
  Beta virt. eigenvalues --    0.17564   0.18889   0.19207   0.25890   0.30216

 Mulliken charges and spin densities:
               1          2
     1  C   -0.558554  -0.000000
     2  P   -0.013490   0.000000
     3  H    0.014395  -0.000000
     4  H    0.181255   0.000000
     5  H    0.014403   0.000000
     6  H    0.181266   0.000000
     7  H    0.180725   0.000000
 Sum of Mulliken charges =  -0.00000   0.00000

 Dipole moment (field-independent basis, Debye):
    X=             -0.7252    Y=             -0.5042    Z=              0.5458  Tot=              1.0382
 Quadrupole moment (field-independent basis, Debye-Ang):
   XX=            -22.9651   YY=            -22.0991   ZZ=            -22.2128
   XY=             -1.0828   XZ=              1.1720   YZ=              0.7171

 Normal termination of Gaussian 16 at Mon Apr 21 19:01:50 2025.
