 Gaussian 16, Revision A.03,
 Gaussian 16:  ES64L-G16RevA.03 25-Dec-2016

 --------------------------------------------
 #p opt UM062X/6-311+G** nosymm int=superfine
 --------------------------------------------

 -------------------
 Title Card Required
 -------------------
 Symbolic Z-matrix:
 Charge =  1 Multiplicity = 2

 SCF Done:  E(UM062X) =  -582.134034406     A.U. after   11 cycles
 SCF Done:  E(UM062X) =  -582.134826026     A.U. after    9 cycles
 SCF Done:  E(UM062X) =  -582.135051732     A.U. after    9 cycles
 SCF Done:  E(UM062X) =  -582.135052335     A.U. after    7 cycles
 Optimization completed.
    -- Stationary point found.

                          Input orientation:
 ---------------------------------------------------------------------
 Center     Atomic      Atomic             Coordinates (Angstroms)
 Number     Number       Type             X           Y           Z
 ---------------------------------------------------------------------
      1         14           0       -2.401292    0.000000    0.000000
      2         14           0        2.401292    0.000000    0.000000
      3          1           0        2.510833   -1.460286   -0.000010
      4          1           0       -2.510058   -0.730016    1.264781
      5          1           0        2.510579    0.730177   -1.264642
      6          1           0        2.509856    0.730102    1.264749
      7          1           0       -2.510859    1.460284   -0.000133
      8          1           0       -2.510351   -0.730267   -1.264611
 ---------------------------------------------------------------------

 Alpha  occ. eigenvalues --  -67.22271 -67.22271  -5.77114  -5.77113  -4.08800
 Alpha  occ. eigenvalues --   -4.08800  -4.07986  -4.07986  -4.07986  -4.07986
 Alpha  occ. eigenvalues --   -0.80804  -0.80500  -0.61209  -0.61208  -0.61145
 Alpha  occ. eigenvalues --   -0.61144  -0.39804
 Alpha virt. eigenvalues --   -0.30090  -0.11893  -0.11657  -0.09940  -0.09358
 Alpha virt. eigenvalues --   -0.09356  -0.08171  -0.08171  -0.07612  -0.07190
 Alpha virt. eigenvalues --   -0.07190  -0.06078  -0.06077  -0.04790   0.00547

  Beta  occ. eigenvalues --  -67.21999 -67.21999  -5.77033  -5.77031  -4.08164
  Beta  occ. eigenvalues --   -4.08164  -4.07893  -4.07893  -4.07893  -4.07893
  Beta  occ. eigenvalues --   -0.79081  -0.78911  -0.61106  -0.61105  -0.61034
  Beta  occ. eigenvalues --   -0.61033
  Beta virt. eigenvalues --   -0.32393  -0.23325  -0.15768  -0.12422  -0.12420
  Beta virt. eigenvalues --   -0.10768  -0.10580  -0.08694  -0.08693  -0.07374
  Beta virt. eigenvalues --   -0.06748  -0.06748  -0.05684  -0.05683  -0.05652

 Mulliken charges and spin densities:
               1          2
     1  Si   0.505695   0.554438
     2  Si   0.505696   0.554437
     3  H   -0.001881  -0.018131
     4  H   -0.001909  -0.018152
     5  H   -0.001903  -0.018155
     6  H   -0.001912  -0.018151
     7  H   -0.001881  -0.018131
     8  H   -0.001906  -0.018154
 Sum of Mulliken charges =   1.00000   1.00000

 Dipole moment (field-independent basis, Debye):
    X=              0.0000    Y=             -0.0000    Z=              0.0001  Tot=              0.0001
 Quadrupole moment (field-independent basis, Debye-Ang):
   XX=              7.1919   YY=            -26.2444   ZZ=            -26.2442
   XY=              0.0007   XZ=              0.0001   YZ=             -0.0000

 Normal termination of Gaussian 16 at Mon Apr 21 20:17:19 2025.
