 Gaussian 16, Revision A.03,
 Gaussian 16:  ES64L-G16RevA.03 25-Dec-2016

 --------------------------------------------
 #p opt UM062X/6-311+G** nosymm int=superfine
 --------------------------------------------

 -------------------
 Title Card Required
 -------------------
 Symbolic Z-matrix:
 Charge =  0 Multiplicity = 1

 SCF Done:  E(UM062X) =  -95.6875929030     A.U. after   13 cycles
 SCF Done:  E(UM062X) =  -95.7040159766     A.U. after   11 cycles
 SCF Done:  E(UM062X) =  -95.7105068380     A.U. after   11 cycles
 SCF Done:  E(UM062X) =  -95.7105911660     A.U. after   10 cycles
 SCF Done:  E(UM062X) =  -95.7106006576     A.U. after    9 cycles
 SCF Done:  E(UM062X) =  -95.7106052496     A.U. after    9 cycles
 Optimization completed.
    -- Stationary point found.

                          Input orientation:
 ---------------------------------------------------------------------
 Center     Atomic      Atomic             Coordinates (Angstroms)
 Number     Number       Type             X           Y           Z
 ---------------------------------------------------------------------
      1          6           0       -1.205542    0.000000    0.000000
      2          7           0        1.205542    0.000000    0.000000
      3          1           0        1.260420   -1.013763    0.133386
      4          1           0       -1.336968    1.072562    0.000759
      5          1           0        1.260320    0.372298    0.952325
      6          1           0       -1.336825   -0.513605   -0.941606
      7          1           0       -1.432167   -0.540195    0.909232
 ---------------------------------------------------------------------

 Alpha  occ. eigenvalues --  -14.75010 -10.59967  -0.90663  -0.78752  -0.51797
 Alpha  occ. eigenvalues --   -0.50857  -0.49639  -0.36312  -0.30513
 Alpha virt. eigenvalues --   -0.05476   0.01547   0.05041   0.05657   0.06907
 Alpha virt. eigenvalues --    0.10730   0.13542   0.16012   0.16599   0.18027
 Alpha virt. eigenvalues --    0.20567   0.22176   0.22220   0.31790   0.41597

  Beta  occ. eigenvalues --  -14.75010 -10.59967  -0.90663  -0.78752  -0.51797
  Beta  occ. eigenvalues --   -0.50857  -0.49639  -0.36312  -0.30513
  Beta virt. eigenvalues --   -0.05476   0.01547   0.05041   0.05657   0.06907
  Beta virt. eigenvalues --    0.10730   0.13542   0.16012   0.16599   0.18027
  Beta virt. eigenvalues --    0.20567   0.22176   0.22220   0.31790   0.41597

 Mulliken charges and spin densities:
               1          2
     1  C   -0.428503  -0.000000
     2  N   -0.588945   0.000000
     3  H    0.230228   0.000000
     4  H    0.190957   0.000000
     5  H    0.230218   0.000000
     6  H    0.191039   0.000000
     7  H    0.175005   0.000000
 Sum of Mulliken charges =  -0.00000  -0.00000

 Dipole moment (field-independent basis, Debye):
    X=             -2.1008    Y=             -0.9191    Z=              1.5557  Tot=              2.7710
 Quadrupole moment (field-independent basis, Debye-Ang):
   XX=            -15.2255   YY=            -13.2968   ZZ=            -14.1372
   XY=             -1.3804   XZ=              2.3362   YZ=              0.7630

 Normal termination of Gaussian 16 at Mon Apr 21 18:11:40 2025.
