 Gaussian 16, Revision A.03,
 Gaussian 16:  ES64L-G16RevA.03 25-Dec-2016

 --------------------------------------------
 #p opt UM062X/6-311+G** nosymm int=superfine
 --------------------------------------------

 -------------------
 Title Card Required
 -------------------
 Symbolic Z-matrix:
 Charge =  1 Multiplicity = 2

 SCF Done:  E(UM062X) =  -76.5787368649     A.U. after   11 cycles
 SCF Done:  E(UM062X) =  -76.5793039862     A.U. after   10 cycles
 SCF Done:  E(UM062X) =  -76.5793053725     A.U. after    8 cycles
 Optimization completed.
    -- Stationary point found.

                          Input orientation:
 ---------------------------------------------------------------------
 Center     Atomic      Atomic             Coordinates (Angstroms)
 Number     Number       Type             X           Y           Z
 ---------------------------------------------------------------------
      1          6           0       -1.282160    0.000000    0.000000
      2          6           0        1.282160    0.000000    0.000000
      3          1           0       -2.405700   -0.000001    0.000001
      4          1           0        2.405700   -0.000001    0.000000
 ---------------------------------------------------------------------

 Alpha  occ. eigenvalues --  -10.95471 -10.95469  -0.99838  -0.98495  -0.69778
 Alpha  occ. eigenvalues --   -0.59525  -0.52050
 Alpha virt. eigenvalues --   -0.39256  -0.35986  -0.33287  -0.13292  -0.11713
 Alpha virt. eigenvalues --   -0.08348  -0.07809  -0.06760  -0.05305  -0.04921
 Alpha virt. eigenvalues --   -0.00976   0.01815   0.05891   0.25323   0.31773

  Beta  occ. eigenvalues --  -10.95094 -10.95093  -0.97364  -0.96374  -0.68508
  Beta  occ. eigenvalues --   -0.58004
  Beta virt. eigenvalues --   -0.34394  -0.32810  -0.31424  -0.29764  -0.13954
  Beta virt. eigenvalues --   -0.11675  -0.07884  -0.07484  -0.07114  -0.04626
  Beta virt. eigenvalues --   -0.03734  -0.01736   0.03455   0.07000   0.24578

 Mulliken charges and spin densities:
               1          2
     1  C    0.249315   0.515598
     2  C    0.249315   0.515598
     3  H    0.250685  -0.015598
     4  H    0.250685  -0.015598
 Sum of Mulliken charges =   1.00000   1.00000

 Dipole moment (field-independent basis, Debye):
    X=             -0.0000    Y=             -0.0000    Z=              0.0000  Tot=              0.0000
 Quadrupole moment (field-independent basis, Debye-Ang):
   XX=              7.3350   YY=            -10.3163   ZZ=            -10.7462
   XY=              0.0000   XZ=             -0.0000   YZ=              1.0215

 Normal termination of Gaussian 16 at Tue Dec  3 11:25:39 2024.
