 Gaussian 16, Revision A.03,
 Gaussian 16:  ES64L-G16RevA.03 25-Dec-2016

 --------------------------------------------
 #p opt UM062X/6-311+G** nosymm int=superfine
 --------------------------------------------

 -------------------
 Title Card Required
 -------------------
 Symbolic Z-matrix:
 Charge =  0 Multiplicity = 1

 SCF Done:  E(UM062X) =  -79.7813851220     A.U. after    8 cycles
 SCF Done:  E(UM062X) =  -79.7862225415     A.U. after    8 cycles
 SCF Done:  E(UM062X) =  -79.7866014459     A.U. after    7 cycles
 Optimization completed.
    -- Stationary point found.

                          Input orientation:
 ---------------------------------------------------------------------
 Center     Atomic      Atomic             Coordinates (Angstroms)
 Number     Number       Type             X           Y           Z
 ---------------------------------------------------------------------
      1          6           0       -0.847537    0.000000    0.000000
      2          6           0        0.847624    0.000000    0.000000
      3          1           0        1.205643   -0.889939    0.514950
      4          1           0       -1.205562   -0.890938   -0.513211
      5          1           0        1.205650    0.890938    0.513210
      6          1           0        1.205593   -0.001004   -1.028198
      7          1           0       -1.205556    0.889939   -0.514950
      8          1           0       -1.205508    0.001003    1.028198
 ---------------------------------------------------------------------

 Alpha  occ. eigenvalues --  -10.53129 -10.53109  -0.82164  -0.70955  -0.49290
 Alpha  occ. eigenvalues --   -0.49290  -0.41932  -0.41932  -0.39104
 Alpha virt. eigenvalues --    0.02223   0.03877   0.05592   0.05592   0.08680
 Alpha virt. eigenvalues --    0.08680   0.09097   0.13676   0.18478   0.18479
 Alpha virt. eigenvalues --    0.21552   0.21552   0.21813   0.24191   0.27751

  Beta  occ. eigenvalues --  -10.53129 -10.53109  -0.82164  -0.70955  -0.49290
  Beta  occ. eigenvalues --   -0.49290  -0.41932  -0.41932  -0.39104
  Beta virt. eigenvalues --    0.02223   0.03877   0.05592   0.05592   0.08680
  Beta virt. eigenvalues --    0.08680   0.09097   0.13676   0.18478   0.18479
  Beta virt. eigenvalues --    0.21552   0.21552   0.21813   0.24191   0.27751

 Mulliken charges and spin densities:
               1          2
     1  C   -0.482481   0.000000
     2  C   -0.482481  -0.000000
     3  H    0.160827   0.000000
     4  H    0.160827  -0.000000
     5  H    0.160827  -0.000000
     6  H    0.160826   0.000000
     7  H    0.160827  -0.000000
     8  H    0.160826  -0.000000
 Sum of Mulliken charges =  -0.00000   0.00000

 Dipole moment (field-independent basis, Debye):
    X=              0.0000    Y=             -0.0000    Z=             -0.0000  Tot=              0.0000
 Quadrupole moment (field-independent basis, Debye-Ang):
   XX=            -15.6226   YY=            -14.9488   ZZ=            -14.9488
   XY=              0.0000   XZ=              0.0001   YZ=             -0.0000

 Normal termination of Gaussian 16 at Tue Nov 19 11:57:30 2024.
