 Gaussian 16, Revision A.03,
 Gaussian 16:  ES64L-G16RevA.03 25-Dec-2016

 ---------------------------------------
 #p UM062X/6-311+G** force int=superfine
 ---------------------------------------

 -------------------
 Title Card Required
 -------------------
 Symbolic Z-matrix:
 Charge =  0 Multiplicity = 1

                         Standard orientation:
 ---------------------------------------------------------------------
 Center     Atomic      Atomic             Coordinates (Angstroms)
 Number     Number       Type             X           Y           Z
 ---------------------------------------------------------------------
      1          6           0        0.000000    0.815333    0.000000
      2          6           0       -0.000000   -0.815333    0.000000
      3          1           0        0.947764    1.333145    0.000000
      4          1           0       -0.947725    1.333162    0.000000
      5          1           0       -0.947764   -1.333145    0.000000
      6          1           0        0.947725   -1.333162    0.000000
 ---------------------------------------------------------------------

 SCF Done:  E(UM062X) =  -78.4997018852     A.U. after    8 cycles

 The electronic state is 1-AG.
 Alpha  occ. eigenvalues --  -10.58001 -10.57969  -0.80725  -0.68947  -0.53146
 Alpha  occ. eigenvalues --   -0.46253  -0.43781  -0.29284
 Alpha virt. eigenvalues --   -0.02054   0.03377   0.03663   0.05349   0.07742
 Alpha virt. eigenvalues --    0.08452   0.09732   0.11967   0.15806   0.16838
 Alpha virt. eigenvalues --    0.20375   0.20791   0.25373   0.29535   0.41543

  Beta  occ. eigenvalues --  -10.58001 -10.57969  -0.80725  -0.68947  -0.53146
  Beta  occ. eigenvalues --   -0.46253  -0.43781  -0.29284
  Beta virt. eigenvalues --   -0.02054   0.03377   0.03663   0.05349   0.07742
  Beta virt. eigenvalues --    0.08452   0.09732   0.11967   0.15806   0.16838
  Beta virt. eigenvalues --    0.20375   0.20791   0.25373   0.29535   0.41543

 Mulliken charges and spin densities:
               1          2
     1  C   -0.329655  -0.000000
     2  C   -0.329655  -0.000000
     3  H    0.164826   0.000000
     4  H    0.164828  -0.000000
     5  H    0.164826   0.000000
     6  H    0.164828  -0.000000
 Sum of Mulliken charges =  -0.00000   0.00000

 Dipole moment (field-independent basis, Debye):
    X=             -0.0000    Y=              0.0000    Z=              0.0000  Tot=              0.0000
 Quadrupole moment (field-independent basis, Debye-Ang):
   XX=            -12.2343   YY=            -11.8841   ZZ=            -17.0918
   XY=             -0.0000   XZ=              0.0000   YZ=              0.0000

 Normal termination of Gaussian 16 at Tue Nov 19 11:46:38 2024.
