 Gaussian 16, Revision A.03,
 Gaussian 16:  ES64L-G16RevA.03 25-Dec-2016

 ---------------------------------------
 #p UM062X/6-311+G** force int=superfine
 ---------------------------------------

 -------------------
 Title Card Required
 -------------------
 Symbolic Z-matrix:
 Charge =  1 Multiplicity = 2

                         Standard orientation:
 ---------------------------------------------------------------------
 Center     Atomic      Atomic             Coordinates (Angstroms)
 Number     Number       Type             X           Y           Z
 ---------------------------------------------------------------------
      1          6           0        0.000000    0.593789    0.000000
      2          6           0       -0.000000   -0.593789    0.000000
      3          1           0       -0.912426    1.190877    0.000000
      4          1           0        0.912430    1.190875    0.000000
      5          1           0        0.912426   -1.190877    0.000000
      6          1           0       -0.912430   -1.190875    0.000000
 ---------------------------------------------------------------------

 SCF Done:  E(UM062X) =  -78.0829858786     A.U. after    9 cycles

 The electronic state is 2-AG.
 Alpha  occ. eigenvalues --  -10.83904 -10.83608  -1.21689  -0.98342  -0.88977
 Alpha  occ. eigenvalues --   -0.83132  -0.73060  -0.66564
 Alpha virt. eigenvalues --   -0.21238  -0.15182  -0.14194  -0.12865  -0.10055
 Alpha virt. eigenvalues --   -0.08421  -0.07143  -0.05099  -0.04404  -0.03512
 Alpha virt. eigenvalues --   -0.00713   0.02909   0.11854   0.14414   0.20788

  Beta  occ. eigenvalues --  -10.83859 -10.83550  -1.19845  -0.93220  -0.82490
  Beta  occ. eigenvalues --   -0.80354  -0.66050
  Beta virt. eigenvalues --   -0.51530  -0.20720  -0.15143  -0.13821  -0.12663
  Beta virt. eigenvalues --   -0.09933  -0.08206  -0.06062  -0.04817  -0.03108
  Beta virt. eigenvalues --   -0.02827  -0.00329   0.03493   0.12192   0.14700

 Mulliken charges and spin densities:
               1          2
     1  C   -0.145183   0.136631
     2  C   -0.145183   0.136631
     3  H    0.322591   0.181683
     4  H    0.322592   0.181686
     5  H    0.322591   0.181683
     6  H    0.322592   0.181686
 Sum of Mulliken charges =   1.00000   1.00000

 Dipole moment (field-independent basis, Debye):
    X=             -0.0000    Y=             -0.0000    Z=              0.0000  Tot=              0.0000
 Quadrupole moment (field-independent basis, Debye-Ang):
   XX=             -6.4611   YY=             -4.1433   ZZ=            -13.0721
   XY=              0.0000   XZ=              0.0000   YZ=              0.0000

 Normal termination of Gaussian 16 at Tue Nov 19 11:53:12 2024.
