 Gaussian 16, Revision A.03,
 Gaussian 16:  ES64L-G16RevA.03 25-Dec-2016

 ---------------------------------------
 #p UM062X/6-311+G** force int=superfine
 ---------------------------------------

 -------------------
 Title Card Required
 -------------------
 Symbolic Z-matrix:
 Charge =  1 Multiplicity = 2

                         Standard orientation:
 ---------------------------------------------------------------------
 Center     Atomic      Atomic             Coordinates (Angstroms)
 Number     Number       Type             X           Y           Z
 ---------------------------------------------------------------------
      1          7           0        0.000000    0.000000    1.480391
      2          7           0        0.000000    0.000000   -1.480391
 ---------------------------------------------------------------------

 SCF Done:  E(UM062X) =  -108.383377590     A.U. after   11 cycles

 Unable to determine electronic state:  partially filled degenerate orbitals.
 Alpha  occ. eigenvalues --  -15.33204 -15.33198  -1.21778  -1.20250  -0.67946
 Alpha  occ. eigenvalues --   -0.67341  -0.65325
 Alpha virt. eigenvalues --   -0.57870  -0.55213  -0.53390  -0.12857  -0.08484
 Alpha virt. eigenvalues --   -0.08397  -0.08318  -0.03400  -0.02954  -0.02746
 Alpha virt. eigenvalues --    0.04256   0.43092   0.49029   0.50283   0.52861

  Beta  occ. eigenvalues --  -15.32713 -15.32709  -1.18029  -1.16591  -0.65666
  Beta  occ. eigenvalues --   -0.63548
  Beta virt. eigenvalues --   -0.53388  -0.51409  -0.45704  -0.44726  -0.13986
  Beta virt. eigenvalues --   -0.09053  -0.08855  -0.08447  -0.03788  -0.03185
  Beta virt. eigenvalues --   -0.02991   0.02829   0.43102   0.50184   0.50467

 Mulliken charges and spin densities:
               1          2
     1  N    0.500000   0.500000
     2  N    0.500000   0.500000
 Sum of Mulliken charges =   1.00000   1.00000

 Dipole moment (field-independent basis, Debye):
    X=              0.0000    Y=             -0.0000    Z=             -0.0000  Tot=              0.0000
 Quadrupole moment (field-independent basis, Debye-Ang):
   XX=            -10.0181   YY=             -8.5687   ZZ=              2.2465
   XY=              0.0000   XZ=             -0.0000   YZ=             -0.0000

 Optimization completed.
    -- Stationary point found.
 Normal termination of Gaussian 16 at Wed Feb 26 13:54:12 2025.
