 Gaussian 16, Revision A.03,
 Gaussian 16:  ES64L-G16RevA.03 25-Dec-2016

 --------------------------------------------
 #p opt UM062X/6-311+G** nosymm int=superfine
 --------------------------------------------

 -------------------
 Title Card Required
 -------------------
 Symbolic Z-matrix:
 Charge =  0 Multiplicity = 1

 SCF Done:  E(UM062X) =  -77.2142878662     A.U. after    9 cycles
 SCF Done:  E(UM062X) =  -77.2438346579     A.U. after    9 cycles
 SCF Done:  E(UM062X) =  -77.2509090975     A.U. after    9 cycles
 SCF Done:  E(UM062X) =  -77.2509189356     A.U. after    7 cycles
 Optimization completed.
    -- Stationary point found.

                          Input orientation:
 ---------------------------------------------------------------------
 Center     Atomic      Atomic             Coordinates (Angstroms)
 Number     Number       Type             X           Y           Z
 ---------------------------------------------------------------------
      1          6           0       -0.706248    0.000000    0.000000
      2          6           0        0.706248    0.000000    0.000000
      3          1           0       -1.775321    0.000017   -0.000017
      4          1           0        1.775318    0.000021   -0.000021
 ---------------------------------------------------------------------

 Alpha  occ. eigenvalues --  -10.60542 -10.60464  -0.81215  -0.67253  -0.55854
 Alpha  occ. eigenvalues --   -0.32840  -0.32840
 Alpha virt. eigenvalues --    0.00608   0.00608   0.02221   0.02452   0.08013
 Alpha virt. eigenvalues --    0.08013   0.09342   0.12300   0.12300   0.12776
 Alpha virt. eigenvalues --    0.18512   0.23643   0.33875   0.45733   0.58404

  Beta  occ. eigenvalues --  -10.60542 -10.60464  -0.81215  -0.67253  -0.55854
  Beta  occ. eigenvalues --   -0.32840  -0.32840
  Beta virt. eigenvalues --    0.00608   0.00608   0.02221   0.02452   0.08013
  Beta virt. eigenvalues --    0.08013   0.09342   0.12300   0.12300   0.12776
  Beta virt. eigenvalues --    0.18512   0.23643   0.33875   0.45733   0.58404

 Mulliken charges and spin densities:
               1          2
     1  C   -0.211766   0.000000
     2  C   -0.211766  -0.000000
     3  H    0.211767   0.000000
     4  H    0.211766  -0.000000
 Sum of Mulliken charges =  -0.00000   0.00000

 Dipole moment (field-independent basis, Debye):
    X=             -0.0000    Y=              0.0000    Z=             -0.0000  Tot=              0.0001
 Quadrupole moment (field-independent basis, Debye-Ang):
   XX=             -6.1113   YY=            -14.7611   ZZ=            -14.7611
   XY=              0.0000   XZ=             -0.0000   YZ=             -0.0000

 Normal termination of Gaussian 16 at Tue Dec  3 20:07:12 2024.
