 Gaussian 16, Revision A.03,
 Gaussian 16:  ES64L-G16RevA.03 25-Dec-2016

 --------------------------------------------
 #p opt UM062X/6-311+G** nosymm int=superfine
 --------------------------------------------

 -------------------
 Title Card Required
 -------------------
 Symbolic Z-matrix:
 Charge =  0 Multiplicity = 4

 SCF Done:  E(UM062X) =  -289.903635169     A.U. after   11 cycles
 SCF Done:  E(UM062X) =  -289.903661675     A.U. after    9 cycles
 Optimization completed.
    -- Stationary point found.

                          Input orientation:
 ---------------------------------------------------------------------
 Center     Atomic      Atomic             Coordinates (Angstroms)
 Number     Number       Type             X           Y           Z
 ---------------------------------------------------------------------
      1         14           0        1.099960   -0.003376    0.000000
      2          1           0        2.092320    1.107864    0.000000
 ---------------------------------------------------------------------

 Alpha  occ. eigenvalues --  -67.03344  -5.57598  -3.89166  -3.89166  -3.88866
 Alpha  occ. eigenvalues --   -0.59333  -0.38537  -0.24376  -0.24376
 Alpha virt. eigenvalues --    0.04183   0.04705   0.05655   0.05655   0.06917
 Alpha virt. eigenvalues --    0.29405   0.30909   0.30909   0.37797   0.43075
 Alpha virt. eigenvalues --    0.54406   0.54406   0.56937   0.56938   0.78875

  Beta  occ. eigenvalues --  -67.01720  -5.56567  -3.87561  -3.87123  -3.87123
  Beta  occ. eigenvalues --   -0.49274
  Beta virt. eigenvalues --   -0.18244  -0.07663  -0.07663   0.02350   0.04514
  Beta virt. eigenvalues --    0.09425   0.12449   0.12450   0.25373   0.26130
  Beta virt. eigenvalues --    0.26130   0.36157   0.39658   0.58830   0.58830

 Mulliken charges and spin densities:
               1          2
     1  Si   0.004136   2.792793
     2  H   -0.004136   0.207207
 Sum of Mulliken charges =   0.00000   3.00000

 Dipole moment (field-independent basis, Debye):
    X=             -0.0920    Y=             -0.1030    Z=             -0.0000  Tot=              0.1381
 Quadrupole moment (field-independent basis, Debye-Ang):
   XX=            -14.7908   YY=            -14.2532   ZZ=            -15.9063
   XY=              1.3627   XZ=             -0.0000   YZ=              0.0000

 Normal termination of Gaussian 16 at Wed Apr 16 08:54:18 2025.
