 Gaussian 16, Revision A.03,
 Gaussian 16:  ES64L-G16RevA.03 25-Dec-2016

 --------------------------------------------
 #p opt UM062X/6-311+G** nosymm int=superfine
 --------------------------------------------

 -------------------
 Title Card Required
 -------------------
 Symbolic Z-matrix:
 Charge =  1 Multiplicity = 2

 SCF Done:  E(UM062X) =  -76.6667556773     A.U. after   19 cycles
 SCF Done:  E(UM062X) =  -76.7355809576     A.U. after    9 cycles
 SCF Done:  E(UM062X) =  -76.7475112987     A.U. after   11 cycles
 SCF Done:  E(UM062X) =  -76.7476608636     A.U. after    8 cycles
 Optimization completed.
    -- Stationary point found.

                          Input orientation:
 ---------------------------------------------------------------------
 Center     Atomic      Atomic             Coordinates (Angstroms)
 Number     Number       Type             X           Y           Z
 ---------------------------------------------------------------------
      1          6           0       -0.503287    0.000000    0.000000
      2          6           0        0.503287    0.000000    0.000000
      3          1           0       -1.577084    0.000000    0.000000
      4          1           0        1.577083   -0.000000    0.000000
 ---------------------------------------------------------------------

 Alpha  occ. eigenvalues --  -10.90767 -10.89450  -1.31397  -0.95350  -0.91216
 Alpha  occ. eigenvalues --   -0.81286  -0.77893
 Alpha virt. eigenvalues --   -0.20279  -0.18486  -0.14703  -0.13908  -0.11942
 Alpha virt. eigenvalues --   -0.11314  -0.10997  -0.03667  -0.02990  -0.02587
 Alpha virt. eigenvalues --    0.02429   0.04319   0.17152   0.20437   0.26062

  Beta  occ. eigenvalues --  -10.90429 -10.89173  -1.25616  -0.93826  -0.90415
  Beta  occ. eigenvalues --   -0.75260
  Beta virt. eigenvalues --   -0.51337  -0.17301  -0.15895  -0.15586  -0.13477
  Beta virt. eigenvalues --   -0.11891  -0.11503  -0.11096  -0.02540  -0.02082
  Beta virt. eigenvalues --   -0.01552   0.02607   0.04728   0.17764   0.20829

 Mulliken charges and spin densities:
               1          2
     1  C    0.232118   0.520567
     2  C    0.232118   0.520567
     3  H    0.267882  -0.020567
     4  H    0.267882  -0.020567
 Sum of Mulliken charges =   1.00000   1.00000

 Dipole moment (field-independent basis, Debye):
    X=             -0.0000    Y=              0.0000    Z=              0.0000  Tot=              0.0000
 Quadrupole moment (field-independent basis, Debye-Ang):
   XX=             -1.9948   YY=             -9.9109   ZZ=             -9.4694
   XY=             -0.0000   XZ=             -0.0000   YZ=             -0.7543

 Normal termination of Gaussian 16 at Tue Nov 19 12:53:07 2024.
