 Gaussian 16, Revision A.03,
 Gaussian 16:  ES64L-G16RevA.03 25-Dec-2016

 --------------------------------------------
 #p opt UM062X/6-311+G** nosymm int=superfine
 --------------------------------------------

 -------------------
 Title Card Required
 -------------------
 Symbolic Z-matrix:
 Charge =  0 Multiplicity = 1

 SCF Done:  E(UM062X) =  -110.602244310     A.U. after   10 cycles
 SCF Done:  E(UM062X) =  -110.603105896     A.U. after   10 cycles
 SCF Done:  E(UM062X) =  -110.603775610     A.U. after    9 cycles
 Optimization completed.
    -- Stationary point found.

                          Input orientation:
 ---------------------------------------------------------------------
 Center     Atomic      Atomic             Coordinates (Angstroms)
 Number     Number       Type             X           Y           Z
 ---------------------------------------------------------------------
      1          7           0       -0.690428    0.000000    0.000000
      2          7           0        0.690428    0.000000    0.000000
      3          1           0       -0.916626   -1.003772   -0.000000
      4          1           0        0.916626    1.003772   -0.000000
 ---------------------------------------------------------------------

 Alpha  occ. eigenvalues --  -14.83271 -14.83224  -1.09423  -0.81334  -0.54134
 Alpha  occ. eigenvalues --   -0.52324  -0.43258  -0.34963
 Alpha virt. eigenvalues --   -0.05441   0.06334   0.06440   0.09474   0.11326
 Alpha virt. eigenvalues --    0.13288   0.15782   0.17178   0.18779   0.22234
 Alpha virt. eigenvalues --    0.26575   0.30627   0.56061   0.58548   0.73386

  Beta  occ. eigenvalues --  -14.83271 -14.83224  -1.09423  -0.81334  -0.54134
  Beta  occ. eigenvalues --   -0.52324  -0.43258  -0.34963
  Beta virt. eigenvalues --   -0.05441   0.06334   0.06440   0.09474   0.11326
  Beta virt. eigenvalues --    0.13288   0.15782   0.17178   0.18779   0.22234
  Beta virt. eigenvalues --    0.26575   0.30627   0.56061   0.58548   0.73386

 Mulliken charges and spin densities:
               1          2
     1  N   -0.245244   0.000000
     2  N   -0.245245  -0.000000
     3  H    0.245245  -0.000000
     4  H    0.245245   0.000000
 Sum of Mulliken charges =  -0.00000  -0.00000

 Dipole moment (field-independent basis, Debye):
    X=             -0.0000    Y=              0.0000    Z=             -0.0000  Tot=              0.0000
 Quadrupole moment (field-independent basis, Debye-Ang):
   XX=            -13.5490   YY=            -10.5279   ZZ=            -12.7589
   XY=              3.8136   XZ=             -0.0000   YZ=             -0.0000

 Normal termination of Gaussian 16 at Thu May 15 15:32:22 2025.
