 Gaussian 16, Revision A.03,
 Gaussian 16:  ES64L-G16RevA.03 25-Dec-2016

 --------------------------------------------
 #p opt UM062X/6-311+G** nosymm int=superfine
 --------------------------------------------

 -------------------
 Title Card Required
 -------------------
 Symbolic Z-matrix:
 Charge =  0 Multiplicity = 1

 SCF Done:  E(UM062X) =  -797.383321433     A.U. after   18 cycles
 SCF Done:  E(UM062X) =  -797.383452869     A.U. after   17 cycles
 SCF Done:  E(UM062X) =  -797.383462504     A.U. after   17 cycles
 SCF Done:  E(UM062X) =  -797.383486669     A.U. after   17 cycles
 SCF Done:  E(UM062X) =  -797.383499037     A.U. after   17 cycles
 SCF Done:  E(UM062X) =  -797.383513374     A.U. after   17 cycles
 SCF Done:  E(UM062X) =  -797.383541632     A.U. after   18 cycles
 SCF Done:  E(UM062X) =  -797.383550485     A.U. after   17 cycles
 SCF Done:  E(UM062X) =  -797.383555216     A.U. after   17 cycles
 SCF Done:  E(UM062X) =  -797.383554971     A.U. after   16 cycles
 SCF Done:  E(UM062X) =  -797.383555355     A.U. after   16 cycles
 Optimization completed.
    -- Stationary point found.

                          Input orientation:
 ---------------------------------------------------------------------
 Center     Atomic      Atomic             Coordinates (Angstroms)
 Number     Number       Type             X           Y           Z
 ---------------------------------------------------------------------
      1         16           0       -2.318191    0.000000    0.000000
      2         16           0        2.318191    0.000000    0.000000
      3          1           0       -2.167509   -1.267405   -0.428466
      4          1           0        2.151757    0.509645    1.234980
 ---------------------------------------------------------------------

 Alpha  occ. eigenvalues --  -89.94359 -89.94355  -8.30618  -8.30615  -6.22760
 Alpha  occ. eigenvalues --   -6.22757  -6.22516  -6.22513  -6.21947  -6.21944
 Alpha  occ. eigenvalues --   -0.81375  -0.81156  -0.47360  -0.47328  -0.33407
 Alpha  occ. eigenvalues --   -0.33293  -0.30106
 Alpha virt. eigenvalues --   -0.22457   0.01850   0.02957   0.04365   0.04886
 Alpha virt. eigenvalues --    0.06513   0.06560   0.07269   0.07427   0.08433
 Alpha virt. eigenvalues --    0.12919   0.31094   0.31476   0.32682   0.35019

  Beta  occ. eigenvalues --  -89.94359 -89.94355  -8.30618  -8.30615  -6.22760
  Beta  occ. eigenvalues --   -6.22757  -6.22516  -6.22513  -6.21947  -6.21944
  Beta  occ. eigenvalues --   -0.81375  -0.81156  -0.47360  -0.47328  -0.33407
  Beta  occ. eigenvalues --   -0.33293  -0.30106
  Beta virt. eigenvalues --   -0.22457   0.01850   0.02957   0.04365   0.04886
  Beta virt. eigenvalues --    0.06513   0.06560   0.07269   0.07427   0.08433
  Beta virt. eigenvalues --    0.12919   0.31094   0.31476   0.32682   0.35019

 Mulliken charges and spin densities:
               1          2
     1  S   -0.081613   0.000000
     2  S   -0.080960   0.000000
     3  H    0.081256   0.000000
     4  H    0.081317   0.000000
 Sum of Mulliken charges =  -0.00000   0.00000

 Dipole moment (field-independent basis, Debye):
    X=             -0.0086    Y=             -0.6282    Z=              0.6708  Tot=              0.9191
 Quadrupole moment (field-independent basis, Debye-Ang):
   XX=            -25.9542   YY=            -27.9306   ZZ=            -28.2786
   XY=              3.2952   XZ=              3.0697   YZ=              2.6436

 Normal termination of Gaussian 16 at Mon Apr 21 23:03:32 2025.
