 Gaussian 16, Revision A.03,
 Gaussian 16:  ES64L-G16RevA.03 25-Dec-2016

 ---------------------------------------
 #p UM062X/6-311+G** force int=superfine
 ---------------------------------------

 -------------------
 Title Card Required
 -------------------
 Symbolic Z-matrix:
 Charge =  0 Multiplicity = 1

                         Standard orientation:
 ---------------------------------------------------------------------
 Center     Atomic      Atomic             Coordinates (Angstroms)
 Number     Number       Type             X           Y           Z
 ---------------------------------------------------------------------
      1          6           0        0.710135    0.000003   -0.000002
      2          6           0       -0.710135   -0.000003    0.000001
      3          1           0       -1.129627   -0.920599    0.417136
      4          1           0        1.129621   -0.099036    1.005832
      5          1           0       -1.129622    0.099039   -1.005832
      6          1           0       -1.129649    0.821557    0.588675
      7          1           0        1.129626    0.920600   -0.417134
      8          1           0        1.129650   -0.821557   -0.588674
 ---------------------------------------------------------------------

 SCF Done:  E(UM062X) =  -79.7902669662     A.U. after    8 cycles

 The electronic state is 1-A.
 Alpha  occ. eigenvalues --  -10.51479 -10.51417  -0.87088  -0.69407  -0.51134
 Alpha  occ. eigenvalues --   -0.51133  -0.45135  -0.39045  -0.39045
 Alpha virt. eigenvalues --    0.02158   0.04165   0.05354   0.05354   0.08826
 Alpha virt. eigenvalues --    0.08834   0.08834   0.14057   0.18988   0.18988
 Alpha virt. eigenvalues --    0.20659   0.20659   0.24108   0.27814   0.32482

  Beta  occ. eigenvalues --  -10.51479 -10.51417  -0.87088  -0.69407  -0.51134
  Beta  occ. eigenvalues --   -0.51133  -0.45135  -0.39045  -0.39045
  Beta virt. eigenvalues --    0.02158   0.04165   0.05354   0.05354   0.08826
  Beta virt. eigenvalues --    0.08834   0.08834   0.14057   0.18988   0.18988
  Beta virt. eigenvalues --    0.20659   0.20659   0.24108   0.27814   0.32482

 Mulliken charges and spin densities:
               1          2
     1  C   -0.459430   0.000000
     2  C   -0.459430  -0.000000
     3  H    0.153144  -0.000000
     4  H    0.153142  -0.000000
     5  H    0.153142  -0.000000
     6  H    0.153144  -0.000000
     7  H    0.153144  -0.000000
     8  H    0.153144  -0.000000
 Sum of Mulliken charges =  -0.00000   0.00000

 Dipole moment (field-independent basis, Debye):
    X=              0.0000    Y=              0.0000    Z=              0.0000  Tot=              0.0000
 Quadrupole moment (field-independent basis, Debye-Ang):
   XX=            -15.6322   YY=            -14.9678   ZZ=            -14.9679
   XY=             -0.0000   XZ=             -0.0000   YZ=             -0.0000

 Normal termination of Gaussian 16 at Tue Nov 19 12:42:01 2024.
