 Gaussian 16, Revision A.03,
 Gaussian 16:  ES64L-G16RevA.03 25-Dec-2016

 ---------------------------------------------------
 #p UM062X/6-311+G** force int=superfine pop=saveNBO
 ---------------------------------------------------

 -------------------
 Title Card Required
 -------------------
 Symbolic Z-matrix:
 Charge =  0 Multiplicity = 1

                         Standard orientation:
 ---------------------------------------------------------------------
 Center     Atomic      Atomic             Coordinates (Angstroms)
 Number     Number       Type             X           Y           Z
 ---------------------------------------------------------------------
      1          6           0       -1.189795   -0.000000    0.024566
      2         15           0        0.666827   -0.000000   -0.123639
      3          1           0        0.922273   -1.031655    0.813292
      4          1           0       -1.581851    0.879761   -0.486595
      5          1           0        0.922273    1.031658    0.813291
      6          1           0       -1.581860   -0.879717   -0.486666
      7          1           0       -1.544464   -0.000040    1.053867
 ---------------------------------------------------------------------

 SCF Done:  E(UM062X) =  -382.423968615     A.U. after   11 cycles

 The electronic state is 1-A.
 Alpha  occ. eigenvalues --  -78.01070 -10.53892  -6.83753  -4.95333  -4.95328
 Alpha  occ. eigenvalues --   -4.95056  -0.82140  -0.67406  -0.49480  -0.48799
 Alpha  occ. eigenvalues --   -0.41619  -0.40888  -0.30368
 Alpha virt. eigenvalues --    0.00539   0.02692   0.03838   0.04430   0.06365
 Alpha virt. eigenvalues --    0.06706   0.08236   0.08632   0.10928   0.13737
 Alpha virt. eigenvalues --    0.17772   0.17804   0.19796   0.28681   0.30108

  Beta  occ. eigenvalues --  -78.01070 -10.53892  -6.83753  -4.95333  -4.95328
  Beta  occ. eigenvalues --   -4.95056  -0.82140  -0.67406  -0.49480  -0.48799
  Beta  occ. eigenvalues --   -0.41619  -0.40888  -0.30368
  Beta virt. eigenvalues --    0.00539   0.02692   0.03838   0.04430   0.06365
  Beta virt. eigenvalues --    0.06706   0.08236   0.08632   0.10928   0.13737
  Beta virt. eigenvalues --    0.17772   0.17804   0.19796   0.28681   0.30108

 Mulliken charges and spin densities:
               1          2
     1  C   -0.575608  -0.000000
     2  P    0.030680   0.000000
     3  H   -0.001442  -0.000000
     4  H    0.182432   0.000000
     5  H   -0.001442  -0.000000
     6  H    0.182433   0.000000
     7  H    0.182947  -0.000000
 Sum of Mulliken charges =  -0.00000  -0.00000

 Dipole moment (field-independent basis, Debye):
    X=             -0.9160    Y=              0.0000    Z=              0.8141  Tot=              1.2255
 Quadrupole moment (field-independent basis, Debye-Ang):
   XX=            -22.5744   YY=            -21.2084   ZZ=            -23.2070
   XY=             -0.0000   XZ=              1.5511   YZ=             -0.0000

 Summary of Natural Population Analysis:

                                       Natural Population
                Natural  -----------------------------------------------
    Atom  No    Charge         Core      Valence    Rydberg      Total
 -----------------------------------------------------------------------
      C    1   -0.44727      0.99971     2.44370    0.00385     3.44727
      P    2    0.14126      4.99955     2.34079    0.01840     7.35874
      H    3   -0.01282      0.00000     0.51045    0.00237     0.51282
      H    4    0.11148      0.00000     0.38791    0.00061     0.38852
      H    5   -0.01282      0.00000     0.51045    0.00237     0.51282
      H    6    0.11148      0.00000     0.38791    0.00061     0.38852
      H    7    0.10867      0.00000     0.39060    0.00072     0.39133
 =======================================================================
   * Total *    0.00000      5.99926     6.97182    0.02892    13.00000

 Optimization completed.
    -- Stationary point found.

 1\1\GINC-NODE01\Force\UM062X\6-311+G(d,p)\C1H5P1\SZHAO\16-Apr-2025\0\\
 #p UM062X/6-311+G** force int=superfine pop=saveNBO\\Title Card Requir
 ed\\0,1\C,-0.93126351,0.,0.\P,0.93126351,0.,0.\H,1.11134654,-1.4053377
 ,0.\H,-1.2814033,1.01301405,0.20044326\H,1.11134689,0.10933615,1.40107
 976\H,-1.28140577,-0.27856504,-0.994372\H,-1.36671131,-0.67759055,0.73
 246668\\Version=ES64L-G16RevA.03\State=1-A\HF=-382.4239686\S2=0.\S2-1=
 0.\S2A=0.\RMSD=2.561e-09\RMSF=1.131e-05\Dipole=-0.3847252,-0.1973415,0
 .2133413\Quadrupole=-0.3676562,0.2343999,0.1332562,-0.7984821,0.863217

 Normal termination of Gaussian 16 at Wed Apr 16 03:40:01 2025.
