 Gaussian 16, Revision A.03,
 Gaussian 16:  ES64L-G16RevA.03 25-Dec-2016

 --------------------------------------------
 #p opt UM062X/6-311+G** nosymm int=superfine
 --------------------------------------------

 -------------------
 Title Card Required
 -------------------
 Symbolic Z-matrix:
 Charge =  0 Multiplicity = 1

 SCF Done:  E(UM062X) =  -579.912278284     A.U. after   12 cycles
 SCF Done:  E(UM062X) =  -579.912300746     A.U. after    7 cycles
 Optimization completed.
    -- Stationary point found.

                          Input orientation:
 ---------------------------------------------------------------------
 Center     Atomic      Atomic             Coordinates (Angstroms)
 Number     Number       Type             X           Y           Z
 ---------------------------------------------------------------------
      1         14           0       -1.228705    0.000000    0.000000
      2         14           0        1.228705    0.000000    0.000000
      3          1           0       -2.693149   -0.000046   -0.000000
      4          1           0        2.693149    0.000019   -0.000000
 ---------------------------------------------------------------------

 Alpha  occ. eigenvalues --  -67.06102 -67.06102  -5.60323  -5.60319  -3.91518
 Alpha  occ. eigenvalues --   -3.91518  -3.91513  -3.91513  -3.91313  -3.91282
 Alpha  occ. eigenvalues --   -0.60763  -0.56458  -0.42104  -0.23601  -0.23601
 Alpha virt. eigenvalues --   -0.11527  -0.06774  -0.06774   0.01584   0.02121
 Alpha virt. eigenvalues --    0.03604   0.05233   0.05233   0.06911   0.06911
 Alpha virt. eigenvalues --    0.11966   0.13040   0.25383   0.28684   0.29365

  Beta  occ. eigenvalues --  -67.06102 -67.06102  -5.60323  -5.60319  -3.91518
  Beta  occ. eigenvalues --   -3.91518  -3.91513  -3.91513  -3.91313  -3.91282
  Beta  occ. eigenvalues --   -0.60763  -0.56458  -0.42104  -0.23601  -0.23601
  Beta virt. eigenvalues --   -0.11527  -0.06774  -0.06774   0.01584   0.02121
  Beta virt. eigenvalues --    0.03604   0.05233   0.05233   0.06911   0.06911
  Beta virt. eigenvalues --    0.11966   0.13040   0.25383   0.28684   0.29365

 Mulliken charges and spin densities:
               1          2
     1  Si  -0.058079  -0.000000
     2  Si  -0.058079   0.000000
     3  H    0.058079   0.000000
     4  H    0.058079  -0.000000
 Sum of Mulliken charges =  -0.00000  -0.00000

 Dipole moment (field-independent basis, Debye):
    X=              0.0000    Y=             -0.0000    Z=             -0.0000  Tot=              0.0000
 Quadrupole moment (field-independent basis, Debye-Ang):
   XX=            -18.8596   YY=            -32.5841   ZZ=            -32.5841
   XY=              0.0003   XZ=             -0.0000   YZ=             -0.0000

 Normal termination of Gaussian 16 at Mon Apr 21 21:22:46 2025.
