 Gaussian 16, Revision A.03,
 Gaussian 16:  ES64L-G16RevA.03 25-Dec-2016

 ---------------------------------------------------------
 #p opt UM062X/6-311+G** nosymm int=superfine SCF=NoVarAcc
 ---------------------------------------------------------

 -------------------
 Title Card Required
 -------------------
 Symbolic Z-matrix:
 Charge =  1 Multiplicity = 2

 SCF Done:  E(UM062X) =  -77.9070906411     A.U. after   10 cycles
 SCF Done:  E(UM062X) =  -77.9110688110     A.U. after    9 cycles
 SCF Done:  E(UM062X) =  -77.9135969036     A.U. after    9 cycles
 SCF Done:  E(UM062X) =  -77.9136002597     A.U. after    8 cycles
 Optimization completed.
    -- Stationary point found.

                          Input orientation:
 ---------------------------------------------------------------------
 Center     Atomic      Atomic             Coordinates (Angstroms)
 Number     Number       Type             X           Y           Z
 ---------------------------------------------------------------------
      1          6           0       -1.831027    0.000000    0.000000
      2          6           0        1.831027    0.000000    0.000000
      3          1           0       -2.388887   -0.942626    0.000000
      4          1           0       -2.388832    0.942658    0.000000
      5          1           0        2.388887    0.942626    0.000000
      6          1           0        2.388832   -0.942658    0.000000
 ---------------------------------------------------------------------

 Alpha  occ. eigenvalues --  -10.88832 -10.88832  -1.00115  -0.99991  -0.74785
 Alpha  occ. eigenvalues --   -0.74721  -0.58794  -0.56596
 Alpha virt. eigenvalues --   -0.32115  -0.31591  -0.12863  -0.10901  -0.09300
 Alpha virt. eigenvalues --   -0.07323  -0.06570  -0.05421  -0.04340  -0.01692
 Alpha virt. eigenvalues --   -0.00605   0.00103   0.02111   0.06099   0.26912

  Beta  occ. eigenvalues --  -10.88012 -10.88011  -0.97919  -0.97658  -0.73753
  Beta  occ. eigenvalues --   -0.73673  -0.47962
  Beta virt. eigenvalues --   -0.35495  -0.30261  -0.29590  -0.12655  -0.10993
  Beta virt. eigenvalues --   -0.09130  -0.07104  -0.06609  -0.04549  -0.03792
  Beta virt. eigenvalues --   -0.01417   0.00045   0.00505   0.02197   0.06855

 Mulliken charges and spin densities:
               1          2
     1  C    0.020470   0.486225
     2  C    0.020470   0.486225
     3  H    0.239765   0.006888
     4  H    0.239764   0.006887
     5  H    0.239765   0.006888
     6  H    0.239764   0.006887
 Sum of Mulliken charges =   1.00000   1.00000

 Dipole moment (field-independent basis, Debye):
    X=             -0.0000    Y=              0.0000    Z=              0.0000  Tot=              0.0000
 Quadrupole moment (field-independent basis, Debye-Ang):
   XX=             15.9239   YY=             -9.4259   ZZ=            -10.7413
   XY=             -0.0000   XZ=              0.0000   YZ=             -0.0000

 Normal termination of Gaussian 16 at Tue Dec  3 13:31:02 2024.
