 Gaussian 16, Revision A.03,
 Gaussian 16:  ES64L-G16RevA.03 25-Dec-2016

 --------------------------------------------
 #p opt UM062X/6-311+G** nosymm int=superfine
 --------------------------------------------

 -------------------
 Title Card Required
 -------------------
 Symbolic Z-matrix:
 Charge =  0 Multiplicity = 1

 SCF Done:  E(UM062X) =  -582.440648904     A.U. after    9 cycles
 SCF Done:  E(UM062X) =  -582.442031473     A.U. after    8 cycles
 SCF Done:  E(UM062X) =  -582.442274187     A.U. after    8 cycles
 Optimization completed.
    -- Stationary point found.

                          Input orientation:
 ---------------------------------------------------------------------
 Center     Atomic      Atomic             Coordinates (Angstroms)
 Number     Number       Type             X           Y           Z
 ---------------------------------------------------------------------
      1         14           0       -1.744819    0.000000    0.000000
      2         14           0        1.744819    0.000000    0.000000
      3          1           0        2.182160   -1.410036   -0.000057
      4          1           0       -2.182192   -0.704881    1.221206
      5          1           0        2.182291    0.705053   -1.221071
      6          1           0        2.182199    0.704933    1.221173
      7          1           0       -2.182162    1.410035   -0.000116
      8          1           0       -2.182295   -0.705106   -1.221038
 ---------------------------------------------------------------------

 Alpha  occ. eigenvalues --  -67.01303 -67.01302  -5.56133  -5.56132  -3.87341
 Alpha  occ. eigenvalues --   -3.87340  -3.87169  -3.87169  -3.87169  -3.87169
 Alpha  occ. eigenvalues --   -0.61139  -0.59998  -0.41677  -0.41677  -0.41281
 Alpha  occ. eigenvalues --   -0.41281  -0.25692
 Alpha virt. eigenvalues --   -0.06022   0.02170   0.02921   0.02921   0.03726
 Alpha virt. eigenvalues --    0.05063   0.05410   0.05410   0.07008   0.07009
 Alpha virt. eigenvalues --    0.07508   0.09107   0.09107   0.14265   0.16932

  Beta  occ. eigenvalues --  -67.01303 -67.01302  -5.56133  -5.56132  -3.87341
  Beta  occ. eigenvalues --   -3.87340  -3.87169  -3.87169  -3.87169  -3.87169
  Beta  occ. eigenvalues --   -0.61139  -0.59998  -0.41677  -0.41677  -0.41281
  Beta  occ. eigenvalues --   -0.41281  -0.25692
  Beta virt. eigenvalues --   -0.06022   0.02170   0.02921   0.02921   0.03726
  Beta virt. eigenvalues --    0.05063   0.05410   0.05410   0.07008   0.07009
  Beta virt. eigenvalues --    0.07508   0.09107   0.09107   0.14265   0.16932

 Mulliken charges and spin densities:
               1          2
     1  Si   0.284518   0.000000
     2  Si   0.284518   0.000000
     3  H   -0.094840  -0.000000
     4  H   -0.094839  -0.000000
     5  H   -0.094839  -0.000000
     6  H   -0.094839  -0.000000
     7  H   -0.094840  -0.000000
     8  H   -0.094839  -0.000000
 Sum of Mulliken charges =  -0.00000   0.00000

 Dipole moment (field-independent basis, Debye):
    X=             -0.0000    Y=             -0.0000    Z=              0.0000  Tot=              0.0000
 Quadrupole moment (field-independent basis, Debye-Ang):
   XX=            -29.9075   YY=            -31.8734   ZZ=            -31.8733
   XY=              0.0002   XZ=              0.0000   YZ=              0.0000

 Normal termination of Gaussian 16 at Mon Apr 21 20:14:22 2025.
