 Gaussian 16, Revision A.03,
 Gaussian 16:  ES64L-G16RevA.03 25-Dec-2016

 ---------------------------------------
 #p UM062X/6-311+G** force int=superfine
 ---------------------------------------

 -------------------
 Title Card Required
 -------------------
 Symbolic Z-matrix:
 Charge =  1 Multiplicity = 2

                         Standard orientation:
 ---------------------------------------------------------------------
 Center     Atomic      Atomic             Coordinates (Angstroms)
 Number     Number       Type             X           Y           Z
 ---------------------------------------------------------------------
      1          6           0       -0.594722   -0.073135   -0.000083
      2          6           0        0.594723    0.073134    0.000045
      3          1           0        1.046660    1.064445   -0.000076
      4          1           0       -1.170045    0.587425    0.740980
      5          1           0        1.170094   -0.587583   -0.740805
      6          1           0        1.170078   -0.587607    0.740777
      7          1           0       -1.046661   -1.064446   -0.000056
      8          1           0       -1.170132    0.587776   -0.740592
 ---------------------------------------------------------------------

 SCF Done:  E(UM062X) =  -79.3068528698     A.U. after   10 cycles

 The electronic state is 2-A.
 Alpha  occ. eigenvalues --  -10.80966 -10.80703  -1.22797  -0.99680  -0.84653
 Alpha  occ. eigenvalues --   -0.81530  -0.80069  -0.67894  -0.61789
 Alpha virt. eigenvalues --   -0.16193  -0.14271  -0.13490  -0.12165  -0.08745
 Alpha virt. eigenvalues --   -0.07163  -0.06964  -0.06611  -0.04594  -0.02731
 Alpha virt. eigenvalues --   -0.00946  -0.00719   0.06398   0.06428   0.14103

  Beta  occ. eigenvalues --  -10.80907 -10.80632  -1.21330  -0.95877  -0.83816
  Beta  occ. eigenvalues --   -0.79612  -0.74927  -0.66380
  Beta virt. eigenvalues --   -0.41792  -0.16276  -0.14295  -0.13040  -0.12236
  Beta virt. eigenvalues --   -0.08782  -0.06878  -0.06587  -0.04960  -0.04486
  Beta virt. eigenvalues --   -0.02226  -0.00827  -0.00530   0.06501   0.07011

 Mulliken charges and spin densities:
               1          2
     1  C   -0.395549   0.146266
     2  C   -0.395562   0.146257
     3  H    0.251504  -0.009358
     4  H    0.322052   0.181687
     5  H    0.322044   0.181623
     6  H    0.322007   0.181472
     7  H    0.251505  -0.009358
     8  H    0.321998   0.181410
 Sum of Mulliken charges =   1.00000   1.00000

 Dipole moment (field-independent basis, Debye):
    X=             -0.0000    Y=              0.0000    Z=              0.0004  Tot=              0.0004
 Quadrupole moment (field-independent basis, Debye-Ang):
   XX=             -6.5223   YY=            -10.0425   ZZ=            -11.1531
   XY=             -1.7478   XZ=             -0.0013   YZ=              0.0003

 Normal termination of Gaussian 16 at Tue Nov 19 08:40:54 2024.
