 Gaussian 16, Revision A.03,
 Gaussian 16:  ES64L-G16RevA.03 25-Dec-2016

 --------------------------------------------
 #p opt UM062X/6-311+G** nosymm int=superfine
 --------------------------------------------

 -------------------
 Title Card Required
 -------------------
 Symbolic Z-matrix:
 Charge =  0 Multiplicity = 1

 SCF Done:  E(UM062X) =  -80.5429878548     A.U. after   18 cycles
 SCF Done:  E(UM062X) =  -80.5454478642     A.U. after   13 cycles
 SCF Done:  E(UM062X) =  -80.5467525177     A.U. after   13 cycles
 SCF Done:  E(UM062X) =  -80.5468337394     A.U. after   12 cycles
 SCF Done:  E(UM062X) =  -80.5468499991     A.U. after   11 cycles
 SCF Done:  E(UM062X) =  -80.5468686040     A.U. after   11 cycles
 SCF Done:  E(UM062X) =  -80.5469375944     A.U. after   15 cycles
 SCF Done:  E(UM062X) =  -80.5473376570     A.U. after   12 cycles
 SCF Done:  E(UM062X) =  -80.5474417332     A.U. after   12 cycles
 SCF Done:  E(UM062X) =  -80.5474594073     A.U. after   12 cycles
 SCF Done:  E(UM062X) =  -80.5474724694     A.U. after   12 cycles
 SCF Done:  E(UM062X) =  -80.5474768894     A.U. after   11 cycles
 SCF Done:  E(UM062X) =  -80.5474770676     A.U. after   10 cycles
 Optimization completed.
    -- Stationary point found.

                          Input orientation:
 ---------------------------------------------------------------------
 Center     Atomic      Atomic             Coordinates (Angstroms)
 Number     Number       Type             X           Y           Z
 ---------------------------------------------------------------------
      1          5           0       -1.017220   -0.000379   -0.000000
      2          7           0        1.016962    0.000220    0.000000
      3          1           0       -2.187326   -0.113870   -0.159297
      4          1           0        1.070482    0.598609    0.843795
 ---------------------------------------------------------------------

 Alpha  occ. eigenvalues --  -14.77478  -7.20356  -0.85198  -0.60684  -0.42622
 Alpha  occ. eigenvalues --   -0.35788  -0.27930
 Alpha virt. eigenvalues --   -0.07785  -0.06691  -0.01535   0.00756   0.04123
 Alpha virt. eigenvalues --    0.04813   0.05981   0.13450   0.16049   0.18555
 Alpha virt. eigenvalues --    0.20197   0.22524   0.25595   0.36626   0.38486

  Beta  occ. eigenvalues --  -14.77478  -7.20356  -0.85198  -0.60684  -0.42622
  Beta  occ. eigenvalues --   -0.35788  -0.27930
  Beta virt. eigenvalues --   -0.07785  -0.06691  -0.01535   0.00756   0.04123
  Beta virt. eigenvalues --    0.04813   0.05981   0.13450   0.16049   0.18555
  Beta virt. eigenvalues --    0.20197   0.22524   0.25595   0.36626   0.38486

 Mulliken charges and spin densities:
               1          2
     1  B    0.168504   0.000004
     2  N   -0.428374  -0.000005
     3  H    0.073851   0.000000
     4  H    0.186019   0.000000
 Sum of Mulliken charges =  -0.00000   0.00000

 Dipole moment (field-independent basis, Debye):
    X=             -4.0638    Y=              0.7059    Z=              0.9974  Tot=              4.2435
 Quadrupole moment (field-independent basis, Debye-Ang):
   XX=            -11.2392   YY=            -14.3278   ZZ=            -13.1661
   XY=              1.1241   XZ=              1.5829   YZ=              1.6584

 Normal termination of Gaussian 16 at Mon Apr 21 21:06:15 2025.
