 Gaussian 16, Revision A.03,
 Gaussian 16:  ES64L-G16RevA.03 25-Dec-2016

 --------------------------------------------
 #p opt UM062X/6-311+G** nosymm int=superfine
 --------------------------------------------

 -------------------
 Title Card Required
 -------------------
 Symbolic Z-matrix:
 Charge =  1 Multiplicity = 2

 SCF Done:  E(UM062X) =  -92.7159710015     A.U. after   24 cycles
 SCF Done:  E(UM062X) =  -92.7162227091     A.U. after   14 cycles
 SCF Done:  E(UM062X) =  -92.7162230415     A.U. after   13 cycles
 Optimization completed.
    -- Stationary point found.

                          Input orientation:
 ---------------------------------------------------------------------
 Center     Atomic      Atomic             Coordinates (Angstroms)
 Number     Number       Type             X           Y           Z
 ---------------------------------------------------------------------
      1          6           0       -0.876540    0.000000    0.000000
      2          7           0        0.876540    0.000000    0.000000
      3          1           0       -1.991621    0.000000   -0.000000
 ---------------------------------------------------------------------

 Alpha  occ. eigenvalues --  -15.24374 -11.09209  -1.23321  -1.06813  -0.80196
 Alpha  occ. eigenvalues --   -0.72446  -0.66959
 Alpha virt. eigenvalues --   -0.43994  -0.41933  -0.33067  -0.16202  -0.11136
 Alpha virt. eigenvalues --   -0.10631  -0.10155  -0.05314  -0.01825  -0.01422
 Alpha virt. eigenvalues --    0.01896   0.07589   0.24563   0.29128   0.29299

  Beta  occ. eigenvalues --  -15.23661 -11.09049  -1.18337  -1.04912  -0.78451
  Beta  occ. eigenvalues --   -0.66130
  Beta virt. eigenvalues --   -0.46042  -0.40529  -0.34520  -0.30984  -0.16788
  Beta virt. eigenvalues --   -0.11462  -0.10564  -0.10511  -0.05649  -0.02356
  Beta virt. eigenvalues --   -0.01913   0.01998   0.06128   0.24542   0.28107

 Mulliken charges and spin densities:
               1          2
     1  C    0.261562   0.334013
     2  N    0.374527   0.682270
     3  H    0.363911  -0.016283
 Sum of Mulliken charges =   1.00000   1.00000

 Dipole moment (field-independent basis, Debye):
    X=             -4.1130    Y=              0.0000    Z=             -0.0000  Tot=              4.1130
 Quadrupole moment (field-independent basis, Debye-Ang):
   XX=             -0.3997   YY=            -10.9095   ZZ=             -9.4693
   XY=             -0.0000   XZ=              0.0000   YZ=              0.6057

 Normal termination of Gaussian 16 at Mon Apr 21 18:32:54 2025.
