 Gaussian 16, Revision A.03,
 Gaussian 16:  ES64L-G16RevA.03 25-Dec-2016

 --------------------------------------------
 #p opt UM062X/6-311+G** nosymm int=superfine
 --------------------------------------------

 -------------------
 Title Card Required
 -------------------
 Symbolic Z-matrix:
 Charge =  1 Multiplicity = 2

 SCF Done:  E(UM062X) =  -92.5761610128     A.U. after   24 cycles
 SCF Done:  E(UM062X) =  -92.5764562191     A.U. after   14 cycles
 Optimization completed.
    -- Stationary point found.

                          Input orientation:
 ---------------------------------------------------------------------
 Center     Atomic      Atomic             Coordinates (Angstroms)
 Number     Number       Type             X           Y           Z
 ---------------------------------------------------------------------
      1          6           0       -1.726540    0.000000    0.000000
      2          7           0        1.726540    0.000000    0.000000
      3          1           0       -2.842622    0.000000    0.000000
 ---------------------------------------------------------------------

 Alpha  occ. eigenvalues --  -15.22947 -10.97709  -1.18203  -0.98859  -0.73189
 Alpha  occ. eigenvalues --   -0.70332  -0.65688
 Alpha virt. eigenvalues --   -0.43400  -0.34338  -0.32729  -0.13789  -0.09830
 Alpha virt. eigenvalues --   -0.08037  -0.07351  -0.04459  -0.02459  -0.01917
 Alpha virt. eigenvalues --   -0.01327   0.07505   0.25398   0.34886   0.35086

  Beta  occ. eigenvalues --  -15.20280 -10.98118  -1.06047  -1.01188  -0.67043
  Beta  occ. eigenvalues --   -0.51544
  Beta virt. eigenvalues --   -0.43064  -0.39744  -0.36341  -0.35017  -0.13591
  Beta virt. eigenvalues --   -0.10423  -0.08523  -0.08037  -0.04878  -0.02553
  Beta virt. eigenvalues --   -0.02233  -0.01987   0.05714   0.25962   0.34415

 Mulliken charges and spin densities:
               1          2
     1  C    0.263473  -0.504482
     2  N    0.482399   1.488199
     3  H    0.254127   0.016283
 Sum of Mulliken charges =   1.00000   1.00000

 Dipole moment (field-independent basis, Debye):
    X=             -2.5939    Y=              0.0000    Z=              0.0000  Tot=              2.5939
 Quadrupole moment (field-independent basis, Debye-Ang):
   XX=             13.6150   YY=            -11.0299   ZZ=             -9.6839
   XY=             -0.0000   XZ=             -0.0000   YZ=              0.6278

 Normal termination of Gaussian 16 at Mon Apr 21 18:34:24 2025.
