 Gaussian 16, Revision A.03,
 Gaussian 16:  ES64L-G16RevA.03 25-Dec-2016

 --------------------------------------------
 #p opt UM062X/6-311+G** nosymm int=superfine
 --------------------------------------------

 -------------------
 Title Card Required
 -------------------
 Symbolic Z-matrix:
 Charge =  0 Multiplicity = 1

 SCF Done:  E(UM062X) =  -78.2724472922     A.U. after    8 cycles
 SCF Done:  E(UM062X) =  -78.3183529054     A.U. after    8 cycles
 SCF Done:  E(UM062X) =  -78.3663571501     A.U. after   10 cycles
 SCF Done:  E(UM062X) =  -78.3766810181     A.U. after    8 cycles
 SCF Done:  E(UM062X) =  -78.3780371731     A.U. after    9 cycles
 SCF Done:  E(UM062X) =  -78.3780547070     A.U. after    8 cycles
 SCF Done:  E(UM062X) =  -78.3780561272     A.U. after    7 cycles
 Optimization completed.
    -- Stationary point found.

                          Input orientation:
 ---------------------------------------------------------------------
 Center     Atomic      Atomic             Coordinates (Angstroms)
 Number     Number       Type             X           Y           Z
 ---------------------------------------------------------------------
      1          6           0       -1.000937    0.000000    0.000000
      2          6           0        1.000937    0.000000    0.000000
      3          1           0       -1.467172   -0.972092   -0.000000
      4          1           0       -1.467164    0.972100   -0.000000
      5          1           0        1.467172    0.972092   -0.000000
      6          1           0        1.467164   -0.972100   -0.000000
 ---------------------------------------------------------------------

 Alpha  occ. eigenvalues --  -10.60990 -10.60976  -0.77559  -0.71408  -0.52985
 Alpha  occ. eigenvalues --   -0.49736  -0.38065  -0.26202
 Alpha virt. eigenvalues --   -0.06455   0.01866   0.03362   0.05390   0.07341
 Alpha virt. eigenvalues --    0.09084   0.09663   0.09874   0.11407   0.15357
 Alpha virt. eigenvalues --    0.16463   0.20729   0.21261   0.28175   0.39730

  Beta  occ. eigenvalues --  -10.60990 -10.60976  -0.77559  -0.71408  -0.52985
  Beta  occ. eigenvalues --   -0.49736  -0.38065  -0.26202
  Beta virt. eigenvalues --   -0.06455   0.01866   0.03362   0.05390   0.07341
  Beta virt. eigenvalues --    0.09084   0.09663   0.09874   0.11407   0.15357
  Beta virt. eigenvalues --    0.16463   0.20729   0.21261   0.28175   0.39730

 Mulliken charges and spin densities:
               1          2
     1  C   -0.359681  -0.000000
     2  C   -0.359681   0.000000
     3  H    0.179841   0.000000
     4  H    0.179841   0.000000
     5  H    0.179841   0.000000
     6  H    0.179841   0.000000
 Sum of Mulliken charges =  -0.00000  -0.00000

 Dipole moment (field-independent basis, Debye):
    X=             -0.0000    Y=              0.0000    Z=             -0.0000  Tot=              0.0000
 Quadrupole moment (field-independent basis, Debye-Ang):
   XX=            -11.2586   YY=            -12.0939   ZZ=            -18.1409
   XY=              0.0000   XZ=              0.0000   YZ=              0.0000

 Normal termination of Gaussian 16 at Tue Nov 19 11:03:39 2024.
