 Gaussian 16, Revision A.03,
 Gaussian 16:  ES64L-G16RevA.03 25-Dec-2016

 --------------------------------------------
 #p opt UM062X/6-311+G** nosymm int=superfine
 --------------------------------------------

 -------------------
 Title Card Required
 -------------------
 Symbolic Z-matrix:
 Charge =  0 Multiplicity = 1

 SCF Done:  E(UM062X) =  -797.436506307     A.U. after   13 cycles
 SCF Done:  E(UM062X) =  -797.437467057     A.U. after   12 cycles
 SCF Done:  E(UM062X) =  -797.438452781     A.U. after   13 cycles
 SCF Done:  E(UM062X) =  -797.438464754     A.U. after   12 cycles
 SCF Done:  E(UM062X) =  -797.438464788     A.U. after   12 cycles
 Optimization completed.
    -- Stationary point found.

                          Input orientation:
 ---------------------------------------------------------------------
 Center     Atomic      Atomic             Coordinates (Angstroms)
 Number     Number       Type             X           Y           Z
 ---------------------------------------------------------------------
      1         16           0       -1.693191    0.000000    0.000000
      2         16           0        1.693191    0.000000    0.000000
      3          1           0       -1.612027   -1.331863   -0.177753
      4          1           0        1.612248    0.206791    1.327719
 ---------------------------------------------------------------------

 Alpha  occ. eigenvalues --  -89.94794 -89.94794  -8.30954  -8.30953  -6.23115
 Alpha  occ. eigenvalues --   -6.23114  -6.22845  -6.22845  -6.22285  -6.22284
 Alpha  occ. eigenvalues --   -0.82014  -0.80698  -0.47364  -0.47323  -0.33823
 Alpha  occ. eigenvalues --   -0.33469  -0.33178
 Alpha virt. eigenvalues --   -0.18842   0.01967   0.03128   0.04555   0.05006
 Alpha virt. eigenvalues --    0.06349   0.07116   0.07358   0.07492   0.10703
 Alpha virt. eigenvalues --    0.13140   0.30409   0.31171   0.32945   0.35356

  Beta  occ. eigenvalues --  -89.94794 -89.94794  -8.30954  -8.30953  -6.23115
  Beta  occ. eigenvalues --   -6.23114  -6.22845  -6.22845  -6.22285  -6.22284
  Beta  occ. eigenvalues --   -0.82014  -0.80698  -0.47364  -0.47323  -0.33823
  Beta  occ. eigenvalues --   -0.33469  -0.33178
  Beta virt. eigenvalues --   -0.18842   0.01967   0.03128   0.04555   0.05006
  Beta virt. eigenvalues --    0.06349   0.07116   0.07358   0.07492   0.10703
  Beta virt. eigenvalues --    0.13140   0.30409   0.31171   0.32945   0.35356

 Mulliken charges and spin densities:
               1          2
     1  S   -0.087066   0.000000
     2  S   -0.087076  -0.000000
     3  H    0.087068  -0.000000
     4  H    0.087073   0.000000
 Sum of Mulliken charges =   0.00000   0.00000

 Dipole moment (field-independent basis, Debye):
    X=              0.0002    Y=             -0.9148    Z=              0.9349  Tot=              1.3080
 Quadrupole moment (field-independent basis, Debye-Ang):
   XX=            -25.1112   YY=            -28.0138   ZZ=            -28.0643
   XY=              2.2552   XZ=              2.2070   YZ=              1.1576

 Normal termination of Gaussian 16 at Mon Apr 21 21:16:49 2025.
