 Gaussian 16, Revision A.03,
 Gaussian 16:  ES64L-G16RevA.03 25-Dec-2016

 --------------------------------------------
 #p opt UM062X/6-311+G** nosymm int=superfine
 --------------------------------------------

 -------------------
 Title Card Required
 -------------------
 Symbolic Z-matrix:
 Charge =  0 Multiplicity = 1

 SCF Done:  E(UM062X) =  -581.135773194     A.U. after   10 cycles
 SCF Done:  E(UM062X) =  -581.136531530     A.U. after    8 cycles
 SCF Done:  E(UM062X) =  -581.136792471     A.U. after    8 cycles
 SCF Done:  E(UM062X) =  -581.136792451     A.U. after   10 cycles
 SCF Done:  E(UM062X) =  -581.136825600     A.U. after   11 cycles
 SCF Done:  E(UM062X) =  -581.146551148     A.U. after   20 cycles
 SCF Done:  E(UM062X) =  -581.167549874     A.U. after   13 cycles
 SCF Done:  E(UM062X) =  -581.190990514     A.U. after   12 cycles
 SCF Done:  E(UM062X) =  -581.200041038     A.U. after   11 cycles
 SCF Done:  E(UM062X) =  -581.201019325     A.U. after   11 cycles
 SCF Done:  E(UM062X) =  -581.202212960     A.U. after   11 cycles
 SCF Done:  E(UM062X) =  -581.202225324     A.U. after    9 cycles
 Optimization completed.
    -- Stationary point found.

                          Input orientation:
 ---------------------------------------------------------------------
 Center     Atomic      Atomic             Coordinates (Angstroms)
 Number     Number       Type             X           Y           Z
 ---------------------------------------------------------------------
      1         14           0       -1.587518    0.000000    0.000000
      2         14           0        1.587518    0.000000    0.000000
      3          1           0       -2.128161   -1.126375    0.837902
      4          1           0        2.099275    1.125885   -0.857121
      5          1           0       -2.129855    1.126834    0.836176
      6          1           0        2.097793   -1.126750   -0.856887
 ---------------------------------------------------------------------

 Alpha  occ. eigenvalues --  -67.02603 -67.02429  -5.57238  -5.57064  -3.88513
 Alpha  occ. eigenvalues --   -3.88336  -3.88014  -3.87905  -3.87841  -3.87733
 Alpha  occ. eigenvalues --   -0.59176  -0.57266  -0.39976  -0.39306  -0.31951
 Alpha  occ. eigenvalues --   -0.26438
 Alpha virt. eigenvalues --   -0.10366  -0.03326   0.02226   0.02705   0.03896
 Alpha virt. eigenvalues --    0.04878   0.05538   0.05569   0.05706   0.06375
 Alpha virt. eigenvalues --    0.08557   0.08602   0.12447   0.15882   0.27708

  Beta  occ. eigenvalues --  -67.02603 -67.02429  -5.57238  -5.57064  -3.88513
  Beta  occ. eigenvalues --   -3.88336  -3.88014  -3.87905  -3.87841  -3.87733
  Beta  occ. eigenvalues --   -0.59176  -0.57266  -0.39976  -0.39306  -0.31951
  Beta  occ. eigenvalues --   -0.26438
  Beta virt. eigenvalues --   -0.10366  -0.03326   0.02226   0.02705   0.03896
  Beta virt. eigenvalues --    0.04878   0.05538   0.05569   0.05706   0.06375
  Beta virt. eigenvalues --    0.08557   0.08602   0.12447   0.15882   0.27708

 Mulliken charges and spin densities:
               1          2
     1  Si   0.245620   0.000000
     2  Si   0.240132  -0.000000
     3  H   -0.121240   0.000000
     4  H   -0.121637  -0.000000
     5  H   -0.121246   0.000000
     6  H   -0.121629  -0.000000
 Sum of Mulliken charges =  -0.00000   0.00000

 Dipole moment (field-independent basis, Debye):
    X=             -0.0684    Y=             -0.0001    Z=             -0.0062  Tot=              0.0686
 Quadrupole moment (field-independent basis, Debye-Ang):
   XX=            -25.2544   YY=            -31.7236   ZZ=            -33.3511
   XY=              0.0013   XZ=              2.7218   YZ=             -0.0004

 Normal termination of Gaussian 16 at Mon Apr 21 20:33:16 2025.
