 Gaussian 16, Revision A.03,
 Gaussian 16:  ES64L-G16RevA.03 25-Dec-2016

 --------------------------------------------
 #p opt UM062X/6-311+G** nosymm int=superfine
 --------------------------------------------

 -------------------
 Title Card Required
 -------------------
 Symbolic Z-matrix:
 Charge =  0 Multiplicity = 1

 SCF Done:  E(UM062X) =  -94.2605479634     A.U. after   23 cycles
 SCF Done:  E(UM062X) =  -94.2605479965     A.U. after    9 cycles
 SCF Done:  E(UM062X) =  -94.2605480863     A.U. after    9 cycles
 Optimization completed.
    -- Stationary point found.

                          Input orientation:
 ---------------------------------------------------------------------
 Center     Atomic      Atomic             Coordinates (Angstroms)
 Number     Number       Type             X           Y           Z
 ---------------------------------------------------------------------
      1          6           0       -1.831752    0.000000    0.000000
      2          7           0        1.831752    0.000000    0.000000
      3          1           0       -2.522023   -0.847804   -0.170249
      4          1           0        0.789682    0.000725   -0.003037
      5          1           0       -2.519503    0.849090    0.173934
 ---------------------------------------------------------------------

 Alpha  occ. eigenvalues --  -14.81013 -10.62918  -0.87397  -0.77597  -0.49733
 Alpha  occ. eigenvalues --   -0.44511  -0.33736  -0.31983
 Alpha virt. eigenvalues --   -0.10959  -0.10186   0.01120   0.05281   0.06663
 Alpha virt. eigenvalues --    0.07380   0.13583   0.14003   0.15807   0.17573
 Alpha virt. eigenvalues --    0.17953   0.18412   0.22948   0.42850   0.46829

  Beta  occ. eigenvalues --  -14.81013 -10.62918  -0.87397  -0.77597  -0.49733
  Beta  occ. eigenvalues --   -0.44511  -0.33736  -0.31983
  Beta virt. eigenvalues --   -0.10959  -0.10186   0.01120   0.05281   0.06663
  Beta virt. eigenvalues --    0.07380   0.13583   0.14003   0.15807   0.17573
  Beta virt. eigenvalues --    0.17953   0.18412   0.22948   0.42850   0.46829

 Mulliken charges and spin densities:
               1          2
     1  C   -0.311991   0.000000
     2  N   -0.253487  -0.000000
     3  H    0.147223   0.000000
     4  H    0.271099   0.000000
     5  H    0.147157  -0.000000
 Sum of Mulliken charges =  -0.00000  -0.00000

 Dipole moment (field-independent basis, Debye):
    X=             -4.2052    Y=              0.0030    Z=              0.0005  Tot=              4.2052
 Quadrupole moment (field-independent basis, Debye-Ang):
   XX=            -13.7101   YY=            -12.3180   ZZ=            -14.8189
   XY=             -0.0008   XZ=             -0.0056   YZ=              0.4982

 Normal termination of Gaussian 16 at Mon Apr 21 22:35:41 2025.
