 Gaussian 16, Revision A.03,
 Gaussian 16:  ES64L-G16RevA.03 25-Dec-2016

 --------------------------------------------
 #p opt UM062X/6-311+G** nosymm int=superfine
 --------------------------------------------

 -------------------
 Title Card Required
 -------------------
 Symbolic Z-matrix:
 Charge =  1 Multiplicity = 2

 SCF Done:  E(UM062X) =  -79.3517151647     A.U. after   10 cycles
 SCF Done:  E(UM062X) =  -79.3518217867     A.U. after    9 cycles
 Optimization completed.
    -- Stationary point found.

                          Input orientation:
 ---------------------------------------------------------------------
 Center     Atomic      Atomic             Coordinates (Angstroms)
 Number     Number       Type             X           Y           Z
 ---------------------------------------------------------------------
      1          6           0       -1.326805    0.000000    0.000000
      2          6           0        1.326805    0.000000    0.000000
      3          1           0        1.397710   -0.936147    0.541798
      4          1           0       -1.396665   -0.937264   -0.539998
      5          1           0        1.397283    0.937347    0.539775
      6          1           0        1.396659   -0.001142   -1.081693
      7          1           0       -1.397742    0.936222   -0.541665
      8          1           0       -1.397242    0.000918    1.081656
 ---------------------------------------------------------------------

 Alpha  occ. eigenvalues --  -10.85520 -10.85516  -1.05644  -1.02602  -0.75829
 Alpha  occ. eigenvalues --   -0.75828  -0.74247  -0.74246  -0.55736
 Alpha virt. eigenvalues --   -0.32968  -0.14914  -0.10509  -0.10509  -0.10036
 Alpha virt. eigenvalues --   -0.06206  -0.06206  -0.06041  -0.03414  -0.03411
 Alpha virt. eigenvalues --   -0.02979   0.01536   0.01539   0.05449   0.07436

  Beta  occ. eigenvalues --  -10.85324 -10.85324  -1.02474  -1.00195  -0.75151
  Beta  occ. eigenvalues --   -0.75150  -0.73710  -0.73709
  Beta virt. eigenvalues --   -0.33694  -0.23814  -0.15540  -0.11111  -0.11110
  Beta virt. eigenvalues --   -0.09652  -0.06542  -0.06542  -0.06017  -0.03381
  Beta virt. eigenvalues --   -0.03378  -0.02216   0.01921   0.01923   0.05987

 Mulliken charges and spin densities:
               1          2
     1  C   -0.280794   0.574076
     2  C   -0.280795   0.574076
     3  H    0.260283  -0.024701
     4  H    0.260237  -0.024692
     5  H    0.260263  -0.024698
     6  H    0.260249  -0.024676
     7  H    0.260284  -0.024702
     8  H    0.260273  -0.024683
 Sum of Mulliken charges =   1.00000   1.00000

 Dipole moment (field-independent basis, Debye):
    X=              0.0000    Y=             -0.0000    Z=             -0.0001  Tot=              0.0001
 Quadrupole moment (field-independent basis, Debye-Ang):
   XX=             -2.8026   YY=            -10.9637   ZZ=            -10.9638
   XY=             -0.0012   XZ=              0.0006   YZ=             -0.0001

 Normal termination of Gaussian 16 at Wed Nov 13 12:43:22 2024.
