 Gaussian 16, Revision A.03,
 Gaussian 16:  ES64L-G16RevA.03 25-Dec-2016

 --------------------------------------------
 #p opt UM062X/6-311+G** nosymm int=superfine
 --------------------------------------------

 -------------------
 Title Card Required
 -------------------
 Symbolic Z-matrix:
 Charge =  0 Multiplicity = 1

 SCF Done:  E(UM062X) =  -474.377334078     A.U. after   21 cycles
 SCF Done:  E(UM062X) =  -474.378318909     A.U. after   17 cycles
 SCF Done:  E(UM062X) =  -474.379806319     A.U. after   25 cycles
 SCF Done:  E(UM062X) =  -474.380450437     A.U. after   23 cycles
 SCF Done:  E(UM062X) =  -474.380654700     A.U. after   22 cycles
 SCF Done:  E(UM062X) =  -474.380707587     A.U. after   29 cycles
 SCF Done:  E(UM062X) =  -474.380717507     A.U. after   18 cycles
 SCF Done:  E(UM062X) =  -474.380723526     A.U. after   17 cycles
 SCF Done:  E(UM062X) =  -474.380724177     A.U. after   32 cycles
 SCF Done:  E(UM062X) =  -474.380722621     A.U. after   18 cycles
 SCF Done:  E(UM062X) =  -474.380726035     A.U. after   31 cycles
 SCF Done:  E(UM062X) =  -474.380726206     A.U. after   16 cycles
 SCF Done:  E(UM062X) =  -474.380726261     A.U. after   18 cycles
 SCF Done:  E(UM062X) =  -474.380726264     A.U. after   18 cycles
 Optimization completed.
    -- Stationary point found.

                          Input orientation:
 ---------------------------------------------------------------------
 Center     Atomic      Atomic             Coordinates (Angstroms)
 Number     Number       Type             X           Y           Z
 ---------------------------------------------------------------------
      1          8           0       -1.689392    0.000000    0.000000
      2         16           0        1.689392    0.000000    0.000000
      3          1           0       -1.662024   -0.804599   -0.541433
      4          1           0        1.461532    0.671328    1.145299
 ---------------------------------------------------------------------

 Alpha  occ. eigenvalues --  -89.97853 -19.67296  -8.34001  -6.26214  -6.25846
 Alpha  occ. eigenvalues --   -6.25279  -1.08464  -0.83815  -0.52549  -0.49676
 Alpha  occ. eigenvalues --   -0.39775  -0.35714  -0.34388
 Alpha virt. eigenvalues --   -0.22142   0.01603   0.03883   0.04689   0.05443
 Alpha virt. eigenvalues --    0.06934   0.13545   0.19282   0.19894   0.21160
 Alpha virt. eigenvalues --    0.25499   0.30830   0.33972   0.34479   0.39133

  Beta  occ. eigenvalues --  -89.97853 -19.67296  -8.34001  -6.26214  -6.25846
  Beta  occ. eigenvalues --   -6.25279  -1.08464  -0.83815  -0.52549  -0.49676
  Beta  occ. eigenvalues --   -0.39775  -0.35714  -0.34388
  Beta virt. eigenvalues --   -0.22142   0.01603   0.03883   0.04689   0.05443
  Beta virt. eigenvalues --    0.06934   0.13545   0.19282   0.19894   0.21160
  Beta virt. eigenvalues --    0.25499   0.30830   0.33972   0.34479   0.39133

 Mulliken charges and spin densities:
               1          2
     1  O   -0.397161  -0.000000
     2  S    0.040394   0.000000
     3  H    0.245993  -0.000000
     4  H    0.110774  -0.000000
 Sum of Mulliken charges =  -0.00000   0.00000

 Dipole moment (field-independent basis, Debye):
    X=              2.2658    Y=             -0.8508    Z=              0.0533  Tot=              2.4209
 Quadrupole moment (field-independent basis, Debye-Ang):
   XX=            -18.3910   YY=            -19.9506   ZZ=            -18.8751
   XY=              3.5394   XZ=              3.4040   YZ=              2.9562

 Normal termination of Gaussian 16 at Thu May 15 13:16:31 2025.
