 Gaussian 16, Revision A.03,
 Gaussian 16:  ES64L-G16RevA.03 25-Dec-2016

 ---------------------------------------------------
 #p UM062X/6-311+G** force int=superfine pop=saveNBO
 ---------------------------------------------------

 -------------------
 Title Card Required
 -------------------
 Symbolic Z-matrix:
 Charge =  0 Multiplicity = 1

                         Standard orientation:
 ---------------------------------------------------------------------
 Center     Atomic      Atomic             Coordinates (Angstroms)
 Number     Number       Type             X           Y           Z
 ---------------------------------------------------------------------
      1          6           0        0.000000    0.000000   -1.384094
      2          8           0        0.000000    0.000000    1.038070
 ---------------------------------------------------------------------

 SCF Done:  E(UM062X) =  -112.807695453     A.U. after   21 cycles

 The electronic state is 1-SG.
 Alpha  occ. eigenvalues --  -19.67602 -10.82209  -0.98773  -0.71631  -0.36465
 Alpha  occ. eigenvalues --   -0.36465  -0.35873
 Alpha virt. eigenvalues --   -0.17271  -0.17271  -0.11788   0.02964   0.06128
 Alpha virt. eigenvalues --    0.06128   0.06983   0.19774   0.22388   0.22388
 Alpha virt. eigenvalues --    0.31531   0.51896   0.51896   0.54860   0.65207

  Beta  occ. eigenvalues --  -19.67602 -10.82209  -0.98773  -0.71631  -0.36465
  Beta  occ. eigenvalues --   -0.36465  -0.35873
  Beta virt. eigenvalues --   -0.17271  -0.17271  -0.11788   0.02964   0.06128
  Beta virt. eigenvalues --    0.06128   0.06983   0.19774   0.22388   0.22388
  Beta virt. eigenvalues --    0.31531   0.51896   0.51896   0.54860   0.65207

 Mulliken charges and spin densities:
               1          2
     1  C    0.304952  -0.000000
     2  O   -0.304952  -0.000000
 Sum of Mulliken charges =  -0.00000  -0.00000

 Dipole moment (field-independent basis, Debye):
    X=              0.0000    Y=              0.0000    Z=             -3.6722  Tot=              3.6722
 Quadrupole moment (field-independent basis, Debye-Ang):
   XX=            -11.3237   YY=            -11.3237   ZZ=            -10.9479
   XY=              0.0000   XZ=              0.0000   YZ=              0.0000

 Summary of Natural Population Analysis:

                                       Natural Population
                Natural  -----------------------------------------------
    Atom  No    Charge         Core      Valence    Rydberg      Total
 -----------------------------------------------------------------------
      C    1    0.22850      1.00000     1.77093    0.00057     2.77150
      O    2   -0.22850      1.00000     3.22798    0.00052     4.22850
 =======================================================================
   * Total *   -0.00000      2.00000     4.99891    0.00109     7.00000

 Normal termination of Gaussian 16 at Mon Apr 21 19:30:49 2025.
