 Gaussian 16, Revision A.03,
 Gaussian 16:  ES64L-G16RevA.03 25-Dec-2016

 ---------------------------------------
 #p UM062X/6-311+G** force int=superfine
 ---------------------------------------

 -------------------
 Title Card Required
 -------------------
 Symbolic Z-matrix:
 Charge =  1 Multiplicity = 2

                         Standard orientation:
 ---------------------------------------------------------------------
 Center     Atomic      Atomic             Coordinates (Angstroms)
 Number     Number       Type             X           Y           Z
 ---------------------------------------------------------------------
      1          6           0        0.000000    0.000000    0.559208
      2          6           0        0.000000    0.000000   -0.559208
      3          1           0        0.000000    0.000000    1.636680
      4          1           0        0.000000    0.000000   -1.636680
 ---------------------------------------------------------------------

 SCF Done:  E(UM062X) =  -76.8673194550     A.U. after    9 cycles

 Unable to determine electronic state:  an orbital has unidentified symmetry.
 Alpha  occ. eigenvalues --  -10.92093 -10.91558  -1.27545  -0.96237  -0.90503
 Alpha  occ. eigenvalues --   -0.76924  -0.73891
 Alpha virt. eigenvalues --   -0.23778  -0.21839  -0.14601  -0.14463  -0.11788
 Alpha virt. eigenvalues --   -0.10808  -0.10541  -0.04323  -0.04176  -0.03787
 Alpha virt. eigenvalues --    0.02356   0.04511   0.17751   0.18399   0.27693

  Beta  occ. eigenvalues --  -10.91812 -10.91312  -1.22324  -0.94686  -0.89855
  Beta  occ. eigenvalues --   -0.71298
  Beta virt. eigenvalues --   -0.48667  -0.20405  -0.18333  -0.15636  -0.13885
  Beta virt. eigenvalues --   -0.11811  -0.11042  -0.10689  -0.03612  -0.03477
  Beta virt. eigenvalues --   -0.02668   0.02344   0.04836   0.18482   0.18848

 Mulliken charges and spin densities:
               1          2
     1  C    0.212021   0.519583
     2  C    0.212021   0.519583
     3  H    0.287979  -0.019583
     4  H    0.287979  -0.019583
 Sum of Mulliken charges =   1.00000   1.00000

 Dipole moment (field-independent basis, Debye):
    X=              0.0000    Y=              0.0000    Z=              0.0000  Tot=              0.0000
 Quadrupole moment (field-independent basis, Debye-Ang):
   XX=             -9.2514   YY=            -10.9410   ZZ=             -1.3377
   XY=              0.0000   XZ=             -0.0000   YZ=              0.0000

 Normal termination of Gaussian 16 at Tue Nov 19 13:28:45 2024.
