 Gaussian 16, Revision A.03,
 Gaussian 16:  ES64L-G16RevA.03 25-Dec-2016

 --------------------------------------------
 #p opt UM062X/6-311+G** nosymm int=superfine
 --------------------------------------------

 -------------------
 Title Card Required
 -------------------
 Symbolic Z-matrix:
 Charge =  0 Multiplicity = 1

 SCF Done:  E(UM062X) =  -95.7185448795     A.U. after   11 cycles
 SCF Done:  E(UM062X) =  -95.7332225351     A.U. after   11 cycles
 SCF Done:  E(UM062X) =  -95.7371532753     A.U. after   11 cycles
 SCF Done:  E(UM062X) =  -95.7372012754     A.U. after   10 cycles
 SCF Done:  E(UM062X) =  -95.7372059762     A.U. after    9 cycles
 SCF Done:  E(UM062X) =  -95.7372069650     A.U. after    8 cycles
 Optimization completed.
    -- Stationary point found.

                          Input orientation:
 ---------------------------------------------------------------------
 Center     Atomic      Atomic             Coordinates (Angstroms)
 Number     Number       Type             X           Y           Z
 ---------------------------------------------------------------------
      1          6           0       -1.105542    0.000000    0.000000
      2          7           0        1.105542    0.000000    0.000000
      3          1           0        1.200768   -1.010505    0.125865
      4          1           0       -1.276664    1.067504   -0.001937
      5          1           0        1.200811    0.376504    0.946154
      6          1           0       -1.276563   -0.509505   -0.938081
      7          1           0       -1.369655   -0.535788    0.902582
 ---------------------------------------------------------------------

 Alpha  occ. eigenvalues --  -14.74814 -10.59212  -0.91066  -0.78138  -0.52130
 Alpha  occ. eigenvalues --   -0.50269  -0.48815  -0.36874  -0.31739
 Alpha virt. eigenvalues --   -0.02630   0.01492   0.05105   0.05782   0.07356
 Alpha virt. eigenvalues --    0.10969   0.13641   0.16017   0.16630   0.18291
 Alpha virt. eigenvalues --    0.21000   0.22273   0.22422   0.31788   0.41788

  Beta  occ. eigenvalues --  -14.74814 -10.59212  -0.91066  -0.78138  -0.52130
  Beta  occ. eigenvalues --   -0.50269  -0.48815  -0.36874  -0.31739
  Beta virt. eigenvalues --   -0.02630   0.01492   0.05105   0.05782   0.07356
  Beta virt. eigenvalues --    0.10969   0.13641   0.16017   0.16630   0.18291
  Beta virt. eigenvalues --    0.21000   0.22273   0.22422   0.31788   0.41788

 Mulliken charges and spin densities:
               1          2
     1  C   -0.429284   0.000000
     2  N   -0.580297  -0.000000
     3  H    0.233714   0.000000
     4  H    0.185765   0.000000
     5  H    0.233707   0.000000
     6  H    0.185821   0.000000
     7  H    0.170573  -0.000000
 Sum of Mulliken charges =  -0.00000   0.00000

 Dipole moment (field-independent basis, Debye):
    X=             -1.8437    Y=             -0.8962    Z=              1.5154  Tot=              2.5493
 Quadrupole moment (field-independent basis, Debye-Ang):
   XX=            -15.1920   YY=            -13.2868   ZZ=            -14.1544
   XY=             -1.3278   XZ=              2.2453   YZ=              0.7892

 Normal termination of Gaussian 16 at Mon Apr 21 18:11:22 2025.
