 Gaussian 16, Revision A.03,
 Gaussian 16:  ES64L-G16RevA.03 25-Dec-2016

 ---------------------------------------
 #p UM062X/6-311+G** force int=superfine
 ---------------------------------------

 -------------------
 Title Card Required
 -------------------
 Symbolic Z-matrix:
 Charge =  1 Multiplicity = 2

                         Standard orientation:
 ---------------------------------------------------------------------
 Center     Atomic      Atomic             Coordinates (Angstroms)
 Number     Number       Type             X           Y           Z
 ---------------------------------------------------------------------
      1          6           0       -0.000000    0.692754    0.000000
      2          6           0       -0.000000   -0.692754    0.000000
      3          1           0        0.932590    1.251095   -0.000000
      4          1           0       -0.932425    1.251240    0.000000
      5          1           0       -0.932590   -1.251095   -0.000000
      6          1           0        0.932425   -1.251240    0.000000
 ---------------------------------------------------------------------

 SCF Done:  E(UM062X) =  -78.1834686337     A.U. after    9 cycles

 The electronic state is 2-AU.
 Alpha  occ. eigenvalues --  -10.89400 -10.89310  -1.19388  -0.97593  -0.85098
 Alpha  occ. eigenvalues --   -0.80052  -0.72490  -0.67433
 Alpha virt. eigenvalues --   -0.28948  -0.14713  -0.12599  -0.12575  -0.09807
 Alpha virt. eigenvalues --   -0.07809  -0.06843  -0.04845  -0.04437  -0.02601
 Alpha virt. eigenvalues --   -0.00466   0.02213   0.08601   0.10921   0.20520

  Beta  occ. eigenvalues --  -10.89167 -10.89092  -1.15343  -0.95680  -0.83950
  Beta  occ. eigenvalues --   -0.79119  -0.72177
  Beta virt. eigenvalues --   -0.42575  -0.21982  -0.16461  -0.12692  -0.12537
  Beta virt. eigenvalues --   -0.10339  -0.08692  -0.06904  -0.04790  -0.03596
  Beta virt. eigenvalues --   -0.02123  -0.00764   0.02407   0.09931   0.11377

 Mulliken charges and spin densities:
               1          2
     1  C   -0.050981   0.537548
     2  C   -0.050981   0.537548
     3  H    0.275485  -0.018776
     4  H    0.275496  -0.018772
     5  H    0.275485  -0.018776
     6  H    0.275496  -0.018772
 Sum of Mulliken charges =   1.00000   1.00000

 Dipole moment (field-independent basis, Debye):
    X=             -0.0000    Y=              0.0000    Z=             -0.0000  Tot=              0.0000
 Quadrupole moment (field-independent basis, Debye-Ang):
   XX=             -8.4694   YY=             -5.6641   ZZ=            -11.4345
   XY=             -0.0002   XZ=              0.0000   YZ=             -0.0000

 Normal termination of Gaussian 16 at Tue Nov 19 11:53:59 2024.
