 Gaussian 16, Revision A.03,
 Gaussian 16:  ES64L-G16RevA.03 25-Dec-2016

 --------------------------------------------
 #p opt UM062X/6-311+G** nosymm int=superfine
 --------------------------------------------

 -------------------
 Title Card Required
 -------------------
 Symbolic Z-matrix:
 Charge =  0 Multiplicity = 1

 SCF Done:  E(UM062X) =  -582.361218880     A.U. after   10 cycles
 SCF Done:  E(UM062X) =  -582.363556338     A.U. after    9 cycles
 SCF Done:  E(UM062X) =  -582.364265255     A.U. after    9 cycles
 SCF Done:  E(UM062X) =  -582.364265722     A.U. after    7 cycles
 Optimization completed.
    -- Stationary point found.

                          Input orientation:
 ---------------------------------------------------------------------
 Center     Atomic      Atomic             Coordinates (Angstroms)
 Number     Number       Type             X           Y           Z
 ---------------------------------------------------------------------
      1         14           0       -2.519819    0.000000    0.000000
      2         14           0        2.519819    0.000000    0.000000
      3          1           0        2.918206   -1.421272   -0.000054
      4          1           0       -2.917975   -0.710614    1.230949
      5          1           0        2.918113    0.710790   -1.230803
      6          1           0        2.917984    0.710667    1.230916
      7          1           0       -2.918209    1.421271   -0.000111
      8          1           0       -2.918119   -0.710844   -1.230769
 ---------------------------------------------------------------------

 Alpha  occ. eigenvalues --  -67.01911 -67.01911  -5.56836  -5.56836  -3.88072
 Alpha  occ. eigenvalues --   -3.88072  -3.87823  -3.87823  -3.87823  -3.87823
 Alpha  occ. eigenvalues --   -0.61195  -0.61006  -0.42201  -0.42200  -0.42172
 Alpha  occ. eigenvalues --   -0.42171  -0.21010
 Alpha virt. eigenvalues --   -0.11880   0.01948   0.02975   0.02975   0.03196
 Alpha virt. eigenvalues --    0.04928   0.04928   0.06345   0.06640   0.07599
 Alpha virt. eigenvalues --    0.07600   0.08371   0.08371   0.11026   0.15343

  Beta  occ. eigenvalues --  -67.01911 -67.01911  -5.56836  -5.56836  -3.88072
  Beta  occ. eigenvalues --   -3.88072  -3.87823  -3.87823  -3.87823  -3.87823
  Beta  occ. eigenvalues --   -0.61195  -0.61006  -0.42201  -0.42200  -0.42172
  Beta  occ. eigenvalues --   -0.42171  -0.21010
  Beta virt. eigenvalues --   -0.11880   0.01948   0.02975   0.02975   0.03196
  Beta virt. eigenvalues --    0.04928   0.04928   0.06345   0.06640   0.07599
  Beta virt. eigenvalues --    0.07600   0.08371   0.08371   0.11026   0.15343

 Mulliken charges and spin densities:
               1          2
     1  Si   0.263201  -0.000000
     2  Si   0.263201   0.000000
     3  H   -0.087732   0.000000
     4  H   -0.087734  -0.000000
     5  H   -0.087735   0.000000
     6  H   -0.087734   0.000000
     7  H   -0.087732  -0.000000
     8  H   -0.087735  -0.000000
 Sum of Mulliken charges =  -0.00000  -0.00000

 Dipole moment (field-independent basis, Debye):
    X=              0.0000    Y=             -0.0000    Z=              0.0000  Tot=              0.0000
 Quadrupole moment (field-independent basis, Debye-Ang):
   XX=            -27.8122   YY=            -32.2265   ZZ=            -32.2267
   XY=             -0.0008   XZ=              0.0000   YZ=              0.0000

 Normal termination of Gaussian 16 at Mon Apr 21 20:21:11 2025.
