 Gaussian 16, Revision A.03,
 Gaussian 16:  ES64L-G16RevA.03 25-Dec-2016

 ---------------------------------------------------
 #p UM062X/6-311+G** force int=superfine pop=saveNBO
 ---------------------------------------------------

 -------------------
 Title Card Required
 -------------------
 Symbolic Z-matrix:
 Charge =  0 Multiplicity = 1

                         Standard orientation:
 ---------------------------------------------------------------------
 Center     Atomic      Atomic             Coordinates (Angstroms)
 Number     Number       Type             X           Y           Z
 ---------------------------------------------------------------------
      1         16           0        0.000000    0.000000    2.075200
      2         16           0        0.000000    0.000000   -2.075200
 ---------------------------------------------------------------------

 SCF Done:  E(UM062X) =  -796.025538404     A.U. after    9 cycles

 Unable to determine electronic state:  partially filled degenerate orbitals.
 Alpha  occ. eigenvalues --  -89.98661 -89.98661  -8.34476  -8.34476  -6.26502
 Alpha  occ. eigenvalues --   -6.26502  -6.26485  -6.26485  -6.25662  -6.25662
 Alpha  occ. eigenvalues --   -0.78019  -0.77448  -0.34822  -0.34468  -0.32045
 Alpha  occ. eigenvalues --   -0.30942
 Alpha virt. eigenvalues --   -0.23908  -0.22732   0.02927   0.03847   0.04680
 Alpha virt. eigenvalues --    0.05100   0.07017   0.07120   0.07448   0.12122
 Alpha virt. eigenvalues --    0.30430   0.32608   0.33444   0.35606   0.36479

  Beta  occ. eigenvalues --  -89.98661 -89.98661  -8.34476  -8.34476  -6.26502
  Beta  occ. eigenvalues --   -6.26502  -6.26485  -6.26485  -6.25662  -6.25662
  Beta  occ. eigenvalues --   -0.78019  -0.77448  -0.34822  -0.34468  -0.32045
  Beta  occ. eigenvalues --   -0.30942
  Beta virt. eigenvalues --   -0.23908  -0.22732   0.02927   0.03847   0.04680
  Beta virt. eigenvalues --    0.05100   0.07017   0.07120   0.07448   0.12122
  Beta virt. eigenvalues --    0.30430   0.32608   0.33444   0.35606   0.36479

 Mulliken charges and spin densities:
               1          2
     1  S   -0.000000   0.000000
     2  S   -0.000000   0.000000
 Sum of Mulliken charges =  -0.00000   0.00000

 Dipole moment (field-independent basis, Debye):
    X=              0.0000    Y=             -0.0000    Z=             -0.0000  Tot=              0.0000
 Quadrupole moment (field-independent basis, Debye-Ang):
   XX=            -25.3705   YY=            -30.4070   ZZ=            -22.7416
   XY=              0.0000   XZ=             -0.0000   YZ=              0.0000

 Summary of Natural Population Analysis:

                                       Natural Population
                Natural  -----------------------------------------------
    Atom  No    Charge         Core      Valence    Rydberg      Total
 -----------------------------------------------------------------------
      S    1    0.00000      5.00000     2.99942    0.00058     8.00000
      S    2    0.00000      5.00000     2.99942    0.00058     8.00000
 =======================================================================
   * Total *    0.00000      9.99999     5.99884    0.00116    16.00000

 Normal termination of Gaussian 16 at Mon Apr 21 20:08:42 2025.
