 Gaussian 16, Revision A.03,
 Gaussian 16:  ES64L-G16RevA.03 25-Dec-2016

 --------------------------------------------
 #p opt UM062X/6-311+G** nosymm int=superfine
 --------------------------------------------

 -------------------
 Title Card Required
 -------------------
 Symbolic Z-matrix:
 Charge =  0 Multiplicity = 1

 SCF Done:  E(UM062X) =  -93.2019322824     A.U. after   10 cycles
 SCF Done:  E(UM062X) =  -93.2021412654     A.U. after    9 cycles
 SCF Done:  E(UM062X) =  -93.2021415456     A.U. after    7 cycles
 Optimization completed.
    -- Stationary point found.

                          Input orientation:
 ---------------------------------------------------------------------
 Center     Atomic      Atomic             Coordinates (Angstroms)
 Number     Number       Type             X           Y           Z
 ---------------------------------------------------------------------
      1          6           0       -0.797395    0.000000    0.000000
      2          7           0        0.797395    0.000000    0.000000
      3          1           0       -1.882523    0.000000    0.000000
 ---------------------------------------------------------------------

 Alpha  occ. eigenvalues --  -14.87715 -10.69765  -0.90088  -0.73135  -0.47377
 Alpha  occ. eigenvalues --   -0.36042  -0.36042
 Alpha virt. eigenvalues --   -0.07136  -0.07136   0.00654   0.02410   0.07094
 Alpha virt. eigenvalues --    0.07094   0.09588   0.14444   0.17457   0.17457
 Alpha virt. eigenvalues --    0.24111   0.28800   0.53270   0.55689   0.55689

  Beta  occ. eigenvalues --  -14.87715 -10.69765  -0.90088  -0.73135  -0.47377
  Beta  occ. eigenvalues --   -0.36042  -0.36042
  Beta virt. eigenvalues --   -0.07136  -0.07136   0.00654   0.02410   0.07094
  Beta virt. eigenvalues --    0.07094   0.09588   0.14444   0.17457   0.17457
  Beta virt. eigenvalues --    0.24111   0.28800   0.53270   0.55689   0.55689

 Mulliken charges and spin densities:
               1          2
     1  C   -0.150693   0.000000
     2  N   -0.088418  -0.000000
     3  H    0.239110  -0.000000
 Sum of Mulliken charges =  -0.00000  -0.00000

 Dipole moment (field-independent basis, Debye):
    X=             -3.1095    Y=              0.0000    Z=              0.0000  Tot=              3.1095
 Quadrupole moment (field-independent basis, Debye-Ang):
   XX=             -8.3437   YY=            -13.3191   ZZ=            -13.3191
   XY=             -0.0000   XZ=             -0.0000   YZ=             -0.0000

 Normal termination of Gaussian 16 at Mon Apr 21 17:58:45 2025.
