 Gaussian 16, Revision A.03,
 Gaussian 16:  ES64L-G16RevA.03 25-Dec-2016

 ---------------------------------------
 #p UM062X/6-311+G** force int=superfine
 ---------------------------------------

 -------------------
 Title Card Required
 -------------------
 Symbolic Z-matrix:
 Charge =  1 Multiplicity = 2

                         Standard orientation:
 ---------------------------------------------------------------------
 Center     Atomic      Atomic             Coordinates (Angstroms)
 Number     Number       Type             X           Y           Z
 ---------------------------------------------------------------------
      1          6           0        0.000000    0.000000    0.447367
      2          6           0        0.000000    0.000000   -0.447367
      3          1           0        0.000000    0.000000    1.517280
      4          1           0        0.000000    0.000000   -1.517280
 ---------------------------------------------------------------------

 SCF Done:  E(UM062X) =  -76.4747512620     A.U. after    9 cycles

 Unable to determine electronic state:  an orbital has unidentified symmetry.
 Alpha  occ. eigenvalues --  -10.91320 -10.87903  -1.33865  -0.94365  -0.91813
 Alpha  occ. eigenvalues --   -0.86709  -0.82879
 Alpha virt. eigenvalues --   -0.16786  -0.15264  -0.14838  -0.13519  -0.11968
 Alpha virt. eigenvalues --   -0.11845  -0.11483  -0.02570  -0.01685  -0.01265
 Alpha virt. eigenvalues --    0.02555   0.03961   0.16920   0.22260   0.24223

  Beta  occ. eigenvalues --  -10.90872 -10.87585  -1.27340  -0.92859  -0.90824
  Beta  occ. eigenvalues --   -0.80193
  Beta virt. eigenvalues --   -0.54756  -0.15479  -0.14415  -0.13661  -0.13179
  Beta virt. eigenvalues --   -0.11968  -0.11864  -0.11523  -0.01115  -0.00894
  Beta virt. eigenvalues --    0.00000   0.02930   0.04462   0.17384   0.22644

 Mulliken charges and spin densities:
               1          2
     1  C    0.252404   0.522592
     2  C    0.252404   0.522592
     3  H    0.247596  -0.022592
     4  H    0.247596  -0.022592
 Sum of Mulliken charges =   1.00000   1.00000

 Dipole moment (field-independent basis, Debye):
    X=              0.0000    Y=             -0.0000    Z=             -0.0000  Tot=              0.0000
 Quadrupole moment (field-independent basis, Debye-Ang):
   XX=             -9.9786   YY=             -8.5389   ZZ=             -2.5700
   XY=             -0.0000   XZ=             -0.0000   YZ=             -0.0000

 Normal termination of Gaussian 16 at Tue Nov 19 13:25:30 2024.
