 Gaussian 16, Revision A.03,
 Gaussian 16:  ES64L-G16RevA.03 25-Dec-2016

 --------------------------------------------
 #p opt UM062X/6-311+G** nosymm int=superfine
 --------------------------------------------

 -------------------
 Title Card Required
 -------------------
 Symbolic Z-matrix:
 Charge =  1 Multiplicity = 2

 SCF Done:  E(UM062X) =  -379.296761095     A.U. after   28 cycles
 SCF Done:  E(UM062X) =  -379.297525430     A.U. after   13 cycles
 SCF Done:  E(UM062X) =  -379.297526905     A.U. after   21 cycles
 Optimization completed.
    -- Stationary point found.

                          Input orientation:
 ---------------------------------------------------------------------
 Center     Atomic      Atomic             Coordinates (Angstroms)
 Number     Number       Type             X           Y           Z
 ---------------------------------------------------------------------
      1          6           0       -2.019427    0.000000    0.000000
      2         15           0        2.019427    0.000000    0.000000
      3          1           0       -3.140346    0.000000   -0.000004
 ---------------------------------------------------------------------

 Alpha  occ. eigenvalues --  -78.31939 -10.97316  -7.13488  -5.25631  -5.25279
 Alpha  occ. eigenvalues --   -5.24235  -0.99324  -0.85396  -0.65323  -0.51036
 Alpha  occ. eigenvalues --   -0.45438
 Alpha virt. eigenvalues --   -0.38213  -0.34800  -0.33704  -0.13249  -0.09597
 Alpha virt. eigenvalues --   -0.08495  -0.08154  -0.06537  -0.05458  -0.05080
 Alpha virt. eigenvalues --   -0.02494   0.00108   0.16581   0.17089   0.17331

  Beta  occ. eigenvalues --  -78.31186 -10.97275  -7.13261  -5.25065  -5.24092
  Beta  occ. eigenvalues --   -5.23346  -0.99109  -0.80215  -0.65151  -0.44432
  Beta virt. eigenvalues --   -0.37131  -0.34635  -0.32510  -0.28712  -0.13663
  Beta virt. eigenvalues --   -0.10715  -0.08345  -0.08144  -0.06420  -0.05114
  Beta virt. eigenvalues --   -0.04705  -0.02770  -0.00145   0.14621   0.15431

 Mulliken charges and spin densities:
               1          2
     1  C    0.263015   0.050485
     2  P    0.494996   0.951449
     3  H    0.241989  -0.001933
 Sum of Mulliken charges =   1.00000   1.00000

 Dipole moment (field-independent basis, Debye):
    X=             -2.2049    Y=              0.0000    Z=             -0.0000  Tot=              2.2049
 Quadrupole moment (field-independent basis, Debye-Ang):
   XX=             15.0056   YY=            -19.3926   ZZ=            -17.2420
   XY=             -0.0000   XZ=              0.0000   YZ=             -1.1624

 Normal termination of Gaussian 16 at Mon Apr 21 19:27:36 2025.
