 Gaussian 16, Revision A.03,
 Gaussian 16:  ES64L-G16RevA.03 25-Dec-2016

 --------------------------------------------
 #p opt UM062X/6-311+G** nosymm int=superfine
 --------------------------------------------

 -------------------
 Title Card Required
 -------------------
 Symbolic Z-matrix:
 Charge =  0 Multiplicity = 1

 SCF Done:  E(UM062X) =  -95.7726575290     A.U. after   11 cycles
 SCF Done:  E(UM062X) =  -95.7817219092     A.U. after   11 cycles
 SCF Done:  E(UM062X) =  -95.7825265010     A.U. after   10 cycles
 SCF Done:  E(UM062X) =  -95.7825352747     A.U. after    8 cycles
 SCF Done:  E(UM062X) =  -95.7825355394     A.U. after    8 cycles
 Optimization completed.
    -- Stationary point found.

                          Input orientation:
 ---------------------------------------------------------------------
 Center     Atomic      Atomic             Coordinates (Angstroms)
 Number     Number       Type             X           Y           Z
 ---------------------------------------------------------------------
      1          6           0       -0.955542    0.000000    0.000000
      2          7           0        0.955542    0.000000    0.000000
      3          1           0        1.134292   -0.998899    0.102096
      4          1           0       -1.194992    1.056268   -0.007114
      5          1           0        1.134290    0.391450    0.924662
      6          1           0       -1.194954   -0.500484   -0.930209
      7          1           0       -1.289447   -0.526418    0.887739
 ---------------------------------------------------------------------

 Alpha  occ. eigenvalues --  -14.74212 -10.57846  -0.92326  -0.77044  -0.53073
 Alpha  occ. eigenvalues --   -0.49454  -0.47118  -0.39527  -0.32593
 Alpha virt. eigenvalues --    0.01429   0.01772   0.05157   0.05916   0.09936
 Alpha virt. eigenvalues --    0.11781   0.13795   0.16058   0.16930   0.18744
 Alpha virt. eigenvalues --    0.21535   0.22509   0.22635   0.31052   0.42240

  Beta  occ. eigenvalues --  -14.74212 -10.57846  -0.92326  -0.77044  -0.53073
  Beta  occ. eigenvalues --   -0.49454  -0.47118  -0.39527  -0.32593
  Beta virt. eigenvalues --    0.01429   0.01772   0.05157   0.05916   0.09936
  Beta virt. eigenvalues --    0.11781   0.13795   0.16058   0.16930   0.18744
  Beta virt. eigenvalues --    0.21535   0.22509   0.22635   0.31052   0.42240

 Mulliken charges and spin densities:
               1          2
     1  C   -0.421866  -0.000000
     2  N   -0.565404  -0.000000
     3  H    0.237649   0.000000
     4  H    0.175086   0.000000
     5  H    0.237637   0.000000
     6  H    0.175122   0.000000
     7  H    0.161775   0.000000
 Sum of Mulliken charges =  -0.00000   0.00000

 Dipole moment (field-independent basis, Debye):
    X=             -1.4180    Y=             -0.8514    Z=              1.4392  Tot=              2.1925
 Quadrupole moment (field-independent basis, Debye-Ang):
   XX=            -15.0263   YY=            -13.2822   ZZ=            -14.2288
   XY=             -1.2659   XZ=              2.1396   YZ=              0.8616

 Normal termination of Gaussian 16 at Mon Apr 21 18:11:06 2025.
