 Gaussian 16, Revision A.03,
 Gaussian 16:  ES64L-G16RevA.03 25-Dec-2016

 ---------------------------------------------------
 #p UM062X/6-311+G** force int=superfine pop=saveNBO
 ---------------------------------------------------

 -------------------
 Title Card Required
 -------------------
 Symbolic Z-matrix:
 Charge =  0 Multiplicity = 1

                         Standard orientation:
 ---------------------------------------------------------------------
 Center     Atomic      Atomic             Coordinates (Angstroms)
 Number     Number       Type             X           Y           Z
 ---------------------------------------------------------------------
      1         15           0        0.000000    0.000000    1.313495
      2         15           0        0.000000    0.000000   -1.313495
 ---------------------------------------------------------------------

 SCF Done:  E(UM062X) =  -682.503739126     A.U. after    9 cycles

 The electronic state is 1-SGG.
 Alpha  occ. eigenvalues --  -78.10813 -78.10813  -6.92387  -6.92384  -5.03743
 Alpha  occ. eigenvalues --   -5.03743  -5.03742  -5.03742  -5.03628  -5.03623
 Alpha  occ. eigenvalues --   -0.67968  -0.59511  -0.32608  -0.28423  -0.28423
 Alpha virt. eigenvalues --   -0.13277  -0.13277  -0.05137   0.02487   0.03892
 Alpha virt. eigenvalues --    0.04531   0.04531   0.05986   0.06735   0.06735
 Alpha virt. eigenvalues --    0.12095   0.29608   0.30786   0.30786   0.31415

  Beta  occ. eigenvalues --  -78.10813 -78.10813  -6.92387  -6.92384  -5.03743
  Beta  occ. eigenvalues --   -5.03743  -5.03742  -5.03742  -5.03628  -5.03623
  Beta  occ. eigenvalues --   -0.67968  -0.59511  -0.32608  -0.28423  -0.28423
  Beta virt. eigenvalues --   -0.13277  -0.13277  -0.05137   0.02487   0.03892
  Beta virt. eigenvalues --    0.04531   0.04531   0.05986   0.06735   0.06735
  Beta virt. eigenvalues --    0.12095   0.29608   0.30786   0.30786   0.31415

 Mulliken charges and spin densities:
               1          2
     1  P   -0.000000  -0.000000
     2  P   -0.000000  -0.000000
 Sum of Mulliken charges =  -0.00000  -0.00000

 Dipole moment (field-independent basis, Debye):
    X=             -0.0000    Y=              0.0000    Z=             -0.0000  Tot=              0.0000
 Quadrupole moment (field-independent basis, Debye-Ang):
   XX=            -28.6114   YY=            -28.6114   ZZ=            -25.3516
   XY=              0.0000   XZ=             -0.0000   YZ=              0.0000

 Summary of Natural Population Analysis:

                                       Natural Population
                Natural  -----------------------------------------------
    Atom  No    Charge         Core      Valence    Rydberg      Total
 -----------------------------------------------------------------------
      P    1   -0.00000      4.99995     2.49600    0.00405     7.50000
      P    2   -0.00000      4.99995     2.49600    0.00405     7.50000
 =======================================================================
   * Total *   -0.00000      9.99991     4.99199    0.00810    15.00000

 Normal termination of Gaussian 16 at Mon Apr 21 21:20:43 2025.
