 Gaussian 16, Revision A.03,
 Gaussian 16:  ES64L-G16RevA.03 25-Dec-2016

 ---------------------------------------------------
 #p UM062X/6-311+G** force int=superfine pop=saveNBO
 ---------------------------------------------------

 -------------------
 Title Card Required
 -------------------
 Symbolic Z-matrix:
 Charge =  0 Multiplicity = 1

                         Standard orientation:
 ---------------------------------------------------------------------
 Center     Atomic      Atomic             Coordinates (Angstroms)
 Number     Number       Type             X           Y           Z
 ---------------------------------------------------------------------
      1          6           0        0.000000    0.000000   -0.641237
      2          8           0        0.000000    0.000000    0.480927
 ---------------------------------------------------------------------

 SCF Done:  E(UM062X) =  -113.309908482     A.U. after    9 cycles

 The electronic state is 1-SG.
 Alpha  occ. eigenvalues --  -19.73665 -10.66058  -1.30094  -0.67604  -0.56022
 Alpha  occ. eigenvalues --   -0.56022  -0.45189
 Alpha virt. eigenvalues --    0.01075   0.01075   0.03415   0.06563   0.08036
 Alpha virt. eigenvalues --    0.08036   0.19451   0.22578   0.22578   0.28768
 Alpha virt. eigenvalues --    0.42748   0.56598   0.56598   0.70870   0.90001

  Beta  occ. eigenvalues --  -19.73665 -10.66058  -1.30094  -0.67604  -0.56022
  Beta  occ. eigenvalues --   -0.56022  -0.45189
  Beta virt. eigenvalues --    0.01075   0.01075   0.03415   0.06563   0.08036
  Beta virt. eigenvalues --    0.08036   0.19451   0.22578   0.22578   0.28768
  Beta virt. eigenvalues --    0.42748   0.56598   0.56598   0.70870   0.90001

 Mulliken charges and spin densities:
               1          2
     1  C    0.018263   0.000000
     2  O   -0.018263  -0.000000
 Sum of Mulliken charges =   0.00000   0.00000

 Dipole moment (field-independent basis, Debye):
    X=              0.0000    Y=              0.0000    Z=              0.0157  Tot=              0.0157
 Quadrupole moment (field-independent basis, Debye-Ang):
   XX=            -10.2723   YY=            -10.2723   ZZ=            -12.3556
   XY=              0.0000   XZ=              0.0000   YZ=              0.0000

 Summary of Natural Population Analysis:

                                       Natural Population
                Natural  -----------------------------------------------
    Atom  No    Charge         Core      Valence    Rydberg      Total
 -----------------------------------------------------------------------
      C    1    0.24362      0.99990     1.72931    0.02716     2.75638
      O    2   -0.24362      0.99988     3.23516    0.00858     4.24362
 =======================================================================
   * Total *    0.00000      1.99979     4.96447    0.03574     7.00000

 Optimization completed.
    -- Stationary point found.
 Normal termination of Gaussian 16 at Wed Apr 16 03:11:07 2025.
