 Gaussian 16, Revision A.03,
 Gaussian 16:  ES64L-G16RevA.03 25-Dec-2016

 --------------------------------------------
 #p opt UM062X/6-311+G** nosymm int=superfine
 --------------------------------------------

 -------------------
 Title Card Required
 -------------------
 Symbolic Z-matrix:
 Charge =  0 Multiplicity = 1

 SCF Done:  E(UM062X) =  -81.9754054706     A.U. after   10 cycles
 SCF Done:  E(UM062X) =  -82.0154419652     A.U. after    9 cycles
 SCF Done:  E(UM062X) =  -82.0222701982     A.U. after    9 cycles
 SCF Done:  E(UM062X) =  -82.0223673684     A.U. after    8 cycles
 SCF Done:  E(UM062X) =  -82.0223716096     A.U. after    7 cycles
 Optimization completed.
    -- Stationary point found.

                          Input orientation:
 ---------------------------------------------------------------------
 Center     Atomic      Atomic             Coordinates (Angstroms)
 Number     Number       Type             X           Y           Z
 ---------------------------------------------------------------------
      1          5           0       -0.687513    0.000059   -0.000167
      2          7           0        0.703285   -0.000059   -0.000107
      3          1           0       -1.262622   -1.041723   -0.000354
      4          1           0        1.254720    0.843290    0.000160
      5          1           0       -1.262445    1.041937    0.000219
      6          1           0        1.254575   -0.843502   -0.000323
 ---------------------------------------------------------------------

 Alpha  occ. eigenvalues --  -14.74655  -7.02477  -0.97496  -0.60359  -0.58694
 Alpha  occ. eigenvalues --   -0.45854  -0.38068  -0.36799
 Alpha virt. eigenvalues --    0.00641   0.02271   0.03565   0.04022   0.07703
 Alpha virt. eigenvalues --    0.10642   0.12057   0.16588   0.17147   0.18390
 Alpha virt. eigenvalues --    0.20193   0.23088   0.29018   0.29421   0.44008

  Beta  occ. eigenvalues --  -14.74655  -7.02477  -0.97496  -0.60359  -0.58694
  Beta  occ. eigenvalues --   -0.45854  -0.38068  -0.36799
  Beta virt. eigenvalues --    0.00641   0.02271   0.03565   0.04022   0.07703
  Beta virt. eigenvalues --    0.10642   0.12057   0.16588   0.17147   0.18390
  Beta virt. eigenvalues --    0.20193   0.23088   0.29018   0.29421   0.44008

 Mulliken charges and spin densities:
               1          2
     1  B    0.060112   0.000000
     2  N   -0.526787  -0.000000
     3  H   -0.026568  -0.000000
     4  H    0.259906  -0.000000
     5  H   -0.026568  -0.000000
     6  H    0.259906   0.000000
 Sum of Mulliken charges =  -0.00000  -0.00000

 Dipole moment (field-independent basis, Debye):
    X=              1.7864    Y=             -0.0002    Z=             -0.0000  Tot=              1.7864
 Quadrupole moment (field-independent basis, Debye-Ang):
   XX=            -12.8701   YY=            -13.1860   ZZ=            -15.1241
   XY=             -0.0000   XZ=              0.0000   YZ=              0.0006

 Normal termination of Gaussian 16 at Wed Apr 16 00:57:53 2025.
