 Gaussian 16, Revision A.03,
 Gaussian 16:  ES64L-G16RevA.03 25-Dec-2016

 --------------------------------------------
 #p opt UM062X/6-311+G** nosymm int=superfine
 --------------------------------------------

 -------------------
 Title Card Required
 -------------------
 Symbolic Z-matrix:
 Charge =  1 Multiplicity = 2

 SCF Done:  E(UM062X) =  -79.3241286586     A.U. after   10 cycles
 SCF Done:  E(UM062X) =  -79.3247470758     A.U. after    9 cycles
 SCF Done:  E(UM062X) =  -79.3247488069     A.U. after    8 cycles
 Optimization completed.
    -- Stationary point found.

                          Input orientation:
 ---------------------------------------------------------------------
 Center     Atomic      Atomic             Coordinates (Angstroms)
 Number     Number       Type             X           Y           Z
 ---------------------------------------------------------------------
      1          6           0       -1.783340    0.000000    0.000000
      2          6           0        1.783340    0.000000    0.000000
      3          1           0        1.818017   -0.937650    0.542687
      4          1           0       -1.816537   -0.938752   -0.540868
      5          1           0        1.817396    0.938844    0.540657
      6          1           0        1.816648   -0.001164   -1.083408
      7          1           0       -1.818063    0.937749   -0.542514
      8          1           0       -1.817459    0.000939    1.083384
 ---------------------------------------------------------------------

 Alpha  occ. eigenvalues --  -10.84232 -10.84231  -1.02816  -1.02198  -0.73758
 Alpha  occ. eigenvalues --   -0.73758  -0.73504  -0.73504  -0.49387
 Alpha virt. eigenvalues --   -0.37025  -0.13221  -0.10215  -0.09842  -0.09842
 Alpha virt. eigenvalues --   -0.06243  -0.06243  -0.04552  -0.03189  -0.00856
 Alpha virt. eigenvalues --   -0.00853   0.01278   0.01279   0.03511   0.08184

  Beta  occ. eigenvalues --  -10.84023 -10.84023  -1.00129  -0.99720  -0.73252
  Beta  occ. eigenvalues --   -0.73251  -0.72981  -0.72980
  Beta virt. eigenvalues --   -0.32729  -0.26439  -0.15835  -0.11116  -0.11115
  Beta virt. eigenvalues --   -0.10150  -0.06296  -0.06295  -0.05000  -0.02261
  Beta virt. eigenvalues --   -0.01201  -0.01198   0.01558   0.01560   0.03709

 Mulliken charges and spin densities:
               1          2
     1  C   -0.262281   0.559776
     2  C   -0.262282   0.559775
     3  H    0.254123  -0.019910
     4  H    0.254081  -0.019917
     5  H    0.254104  -0.019915
     6  H    0.254054  -0.019949
     7  H    0.254124  -0.019911
     8  H    0.254076  -0.019949
 Sum of Mulliken charges =   1.00000   1.00000

 Dipole moment (field-independent basis, Debye):
    X=             -0.0000    Y=             -0.0000    Z=             -0.0001  Tot=              0.0001
 Quadrupole moment (field-independent basis, Debye-Ang):
   XX=              4.1344   YY=            -11.0905   ZZ=            -11.0908
   XY=             -0.0016   XZ=              0.0008   YZ=             -0.0000

 Normal termination of Gaussian 16 at Wed Nov 13 12:49:25 2024.
