 Gaussian 16, Revision A.03,
 Gaussian 16:  ES64L-G16RevA.03 25-Dec-2016

 --------------------------------------------
 #p opt UM062X/6-311+G** nosymm int=superfine
 --------------------------------------------

 -------------------
 Title Card Required
 -------------------
 Symbolic Z-matrix:
 Charge =  1 Multiplicity = 2

 SCF Done:  E(UM062X) =  -76.5836381971     A.U. after   52 cycles
 SCF Done:  E(UM062X) =  -76.5839703110     A.U. after   43 cycles
 Optimization completed.
    -- Stationary point found.

                          Input orientation:
 ---------------------------------------------------------------------
 Center     Atomic      Atomic             Coordinates (Angstroms)
 Number     Number       Type             X           Y           Z
 ---------------------------------------------------------------------
      1          6           0       -2.207160    0.000000    0.000000
      2          6           0        2.207160    0.000000    0.000000
      3          1           0       -3.324664   -0.000000   -0.000000
      4          1           0        3.324663   -0.000000   -0.000000
 ---------------------------------------------------------------------

 Alpha  occ. eigenvalues --  -10.93902 -10.93901  -0.97602  -0.97543  -0.63047
 Alpha  occ. eigenvalues --   -0.62591  -0.46988
 Alpha virt. eigenvalues --   -0.40623  -0.32684  -0.32542  -0.11850  -0.11083
 Alpha virt. eigenvalues --   -0.07374  -0.07058  -0.06041  -0.04589  -0.04287
 Alpha virt. eigenvalues --   -0.01574  -0.00146   0.05326   0.28238   0.28918

  Beta  occ. eigenvalues --  -10.93487 -10.93487  -0.95213  -0.95200  -0.61683
  Beta  occ. eigenvalues --   -0.61194
  Beta virt. eigenvalues --   -0.30815  -0.30632  -0.29201  -0.28984  -0.12265
  Beta virt. eigenvalues --   -0.11022  -0.06629  -0.06391  -0.05760  -0.03794
  Beta virt. eigenvalues --   -0.02841  -0.01847   0.01479   0.07091   0.27579

 Mulliken charges and spin densities:
               1          2
     1  C    0.277784   0.516305
     2  C    0.277784   0.516305
     3  H    0.222216  -0.016305
     4  H    0.222216  -0.016305
 Sum of Mulliken charges =   1.00000   1.00000

 Dipole moment (field-independent basis, Debye):
    X=             -0.0000    Y=             -0.0000    Z=             -0.0000  Tot=              0.0000
 Quadrupole moment (field-independent basis, Debye-Ang):
   XX=             30.5952   YY=             -9.4751   ZZ=            -11.4688
   XY=             -0.0000   XZ=             -0.0000   YZ=              0.0000

 Normal termination of Gaussian 16 at Tue Dec  3 11:36:13 2024.
