 Gaussian 16, Revision A.03,
 Gaussian 16:  ES64L-G16RevA.03 25-Dec-2016

 --------------------------------------------
 #p opt UM062X/6-311+G** nosymm int=superfine
 --------------------------------------------

 -------------------
 Title Card Required
 -------------------
 Symbolic Z-matrix:
 Charge =  1 Multiplicity = 2

 SCF Done:  E(UM062X) =  -1615.50870571     A.U. after   27 cycles
 SCF Done:  E(UM062X) =  -1615.55235315     A.U. after   25 cycles
 SCF Done:  E(UM062X) =  -1615.56135654     A.U. after   29 cycles
 SCF Done:  E(UM062X) =  -1615.56263845     A.U. after   27 cycles
 SCF Done:  E(UM062X) =  -1615.56290704     A.U. after   26 cycles
 SCF Done:  E(UM062X) =  -1615.56070978     A.U. after   31 cycles
 SCF Done:  E(UM062X) =  -1615.55901448     A.U. after   25 cycles
 SCF Done:  E(UM062X) =  -1615.56032382     A.U. after   29 cycles
 SCF Done:  E(UM062X) =  -1615.56298763     A.U. after   25 cycles
 SCF Done:  E(UM062X) =  -1615.56311840     A.U. after   28 cycles
 SCF Done:  E(UM062X) =  -1615.56307170     A.U. after   26 cycles
 SCF Done:  E(UM062X) =  -1615.56313685     A.U. after   28 cycles
 SCF Done:  E(UM062X) =  -1615.56314930     A.U. after   25 cycles
 SCF Done:  E(UM062X) =  -1615.56315391     A.U. after   24 cycles
 SCF Done:  E(UM062X) =  -1615.56315511     A.U. after   20 cycles
 SCF Done:  E(UM062X) =  -1615.56315564     A.U. after   23 cycles
 SCF Done:  E(UM062X) =  -1615.56315596     A.U. after   19 cycles
 SCF Done:  E(UM062X) =  -1615.56315609     A.U. after   16 cycles
 SCF Done:  E(UM062X) =  -1615.56315617     A.U. after   16 cycles
 SCF Done:  E(UM062X) =  -1615.56315619     A.U. after   16 cycles
 Optimization completed.
    -- Stationary point found.

                          Input orientation:
 ---------------------------------------------------------------------
 Center     Atomic      Atomic             Coordinates (Angstroms)
 Number     Number       Type             X           Y           Z
 ---------------------------------------------------------------------
      1          6           0       -1.754761    0.000000    0.000000
      2          6           0        1.754761    0.000000    0.000000
      3          6           0        0.000007   -2.024855   -0.002140
      4          6           0        0.000010   -3.432498   -0.003588
      5          6           0       -1.132067   -4.275895    0.175872
      6          6           0       -1.350224   -1.455704    0.142160
      7          6           0        0.665478   -5.668352   -0.115011
      8          1           0        1.302951   -6.534178   -0.223194
      9          6           0       -1.727276    0.750618    1.229540
     10          6           0       -0.665448   -5.668581    0.103210
     11          1           0       -1.302916   -6.534631    0.209610
     12          6           0        1.132088   -4.275516   -0.184808
     13          6           0        1.350238   -1.455398   -0.145239
     14          6           0        1.852425    2.176518   -1.369574
     15          6           0       -1.873230    0.425870   -1.368369
     16          6           0       -1.831214    2.741248    2.661311
     17          1           0       -1.941259    3.816243    2.744184
     18          6           0       -2.355916   -3.707829    0.377097
     19          1           0       -3.253432   -4.294604    0.533564
     20          6           0       -1.897982    1.780203   -1.843949
     21          6           0        2.428598   -2.294570   -0.349310
     22          1           0        3.404957   -1.831885   -0.455005
     23          6           0        1.873216    0.423005    1.369262
     24          6           0        1.897882    1.776343    1.847676
     25          6           0        2.355934   -3.707029   -0.384857
     26          1           0        3.253456   -4.293475   -0.542520
     27          6           0       -1.852469    2.173644    1.374125
     28          6           0       -1.519839    0.015966    2.436075
     29          1           0       -1.388764   -1.053849    2.385163
     30          6           0        1.904185   -0.599075    2.371011
     31          1           0        1.913723   -1.634831    2.068048
     32          6           0       -1.667730    1.985976    3.803802
     33          1           0       -1.663184    2.459954    4.777797
     34          6           0       -2.428582   -2.295298    0.344499
     35          1           0       -3.404938   -1.832837    0.451185
     36          6           0       -1.910477    2.022469   -3.231742
     37          1           0       -1.912813    3.053217   -3.566581
     38          6           0        1.727285    0.753192   -1.227968
     39          6           0       -1.932088    3.131490    0.303718
     40          1           0       -1.982296    4.161753    0.641956
     41          6           0       -1.933361    1.008520   -4.162416
     42          1           0       -1.956847    1.237462   -5.220970
     43          6           0       -1.921941    2.968007   -1.034404
     44          1           0       -1.956263    3.887402   -1.610755
     45          6           0        1.910353    2.015702    3.235968
     46          1           0        1.912611    3.045747    3.572965
     47          6           0       -1.495856    0.605707    3.679359
     48          1           0       -1.343136   -0.009558    4.557754
     49          6           0       -1.904125   -0.594113   -2.372260
     50          1           0       -1.913597   -1.630501   -2.071466
     51          6           0        1.933315    0.999806    4.164518
     52          1           0        1.956783    1.226536    5.223549
     53          6           0        1.831182    2.746806   -2.655572
     54          1           0        1.941193    3.821975   -2.736201
     55          6           0        1.948012   -0.326132    3.716236
     56          1           0        1.989425   -1.143934    4.425353
     57          6           0        1.667743    1.993911   -3.799641
     58          1           0        1.663202    2.469920   -4.772645
     59          6           0        1.931966    3.132128   -0.297160
     60          1           0        1.982127    4.163098   -0.633241
     61          6           0       -1.947958   -0.318356   -3.716909
     62          1           0       -1.989291   -1.134674   -4.427739
     63          6           0        1.921792    2.965841    1.040614
     64          1           0        1.956046    3.884027    1.618893
     65          6           0        1.519892    0.021049   -2.436029
     66          1           0        1.388855   -1.048875   -2.387334
     67          6           0        1.495909    0.613381   -3.678082
     68          1           0        1.343220   -0.000057   -4.557761
 ---------------------------------------------------------------------

 Alpha  occ. eigenvalues --  -10.70664 -10.70663 -10.68695 -10.68695 -10.68614
 Alpha  occ. eigenvalues --  -10.68614 -10.68265 -10.68265 -10.68233 -10.68233
 Alpha  occ. eigenvalues --  -10.68058 -10.67677 -10.67672 -10.66682 -10.66682
 Alpha  occ. eigenvalues --  -10.66579 -10.66578 -10.65897 -10.65897 -10.65882
 Alpha  occ. eigenvalues --  -10.65881 -10.65728 -10.65728 -10.65634 -10.65634
 Alpha  occ. eigenvalues --  -10.65600 -10.65600 -10.65541 -10.65541 -10.65359
 Alpha  occ. eigenvalues --  -10.65359 -10.65356 -10.65356 -10.65253 -10.65253
 Alpha  occ. eigenvalues --  -10.65101 -10.65101 -10.64787 -10.64786 -10.63974
 Alpha  occ. eigenvalues --  -10.63660 -10.63558  -1.11545  -1.10383  -1.09868
 Alpha  occ. eigenvalues --   -1.08184  -1.07829  -1.04991  -1.04985  -1.02413
 Alpha  occ. eigenvalues --   -1.02159  -1.01023  -1.00062  -0.97882  -0.97654
 Alpha  occ. eigenvalues --   -0.96619  -0.96303  -0.94764  -0.93533  -0.93425
 Alpha  occ. eigenvalues --   -0.92856  -0.91627  -0.87283  -0.87045  -0.84934
 Alpha  occ. eigenvalues --   -0.84801  -0.82948  -0.81522  -0.80543  -0.79701
 Alpha  occ. eigenvalues --   -0.79629  -0.79520  -0.77193  -0.76227  -0.76116
 Alpha  occ. eigenvalues --   -0.75884  -0.75225  -0.73178  -0.70044  -0.69552
 Alpha  occ. eigenvalues --   -0.68564  -0.68488  -0.67732  -0.67617  -0.66869
 Alpha  occ. eigenvalues --   -0.66849  -0.65711  -0.65318  -0.65209  -0.64592
 Alpha  occ. eigenvalues --   -0.63206  -0.62651  -0.62388  -0.62072  -0.60869
 Alpha  occ. eigenvalues --   -0.60866  -0.60493  -0.60100  -0.59972  -0.59807
 Alpha  occ. eigenvalues --   -0.59504  -0.58747  -0.58573  -0.58059  -0.57545
 Alpha  occ. eigenvalues --   -0.57400  -0.57072  -0.55873  -0.55624  -0.55619
 Alpha  occ. eigenvalues --   -0.54895  -0.54192  -0.52972  -0.52826  -0.52556
 Alpha  occ. eigenvalues --   -0.52411  -0.52335  -0.51914  -0.51011  -0.50972
 Alpha  occ. eigenvalues --   -0.50828  -0.50512  -0.49579  -0.49555  -0.49380
 Alpha  occ. eigenvalues --   -0.48290  -0.48069  -0.48046  -0.45754  -0.44636
 Alpha  occ. eigenvalues --   -0.43658  -0.42835  -0.40699  -0.40394  -0.39171
 Alpha  occ. eigenvalues --   -0.38102  -0.37585  -0.36949  -0.29859
 Alpha virt. eigenvalues --   -0.21758  -0.15901  -0.15500  -0.14392  -0.10718
 Alpha virt. eigenvalues --   -0.09899  -0.08899  -0.08560  -0.08313  -0.07604
 Alpha virt. eigenvalues --   -0.07521  -0.07472  -0.06613  -0.06261  -0.06240

  Beta  occ. eigenvalues --  -10.70496 -10.70495 -10.68743 -10.68743 -10.68660
  Beta  occ. eigenvalues --  -10.68659 -10.68220 -10.68219 -10.68193 -10.68193
  Beta  occ. eigenvalues --  -10.68029 -10.67696 -10.67691 -10.66678 -10.66677
  Beta  occ. eigenvalues --  -10.66572 -10.66572 -10.65862 -10.65861 -10.65841
  Beta  occ. eigenvalues --  -10.65841 -10.65695 -10.65695 -10.65620 -10.65620
  Beta  occ. eigenvalues --  -10.65595 -10.65594 -10.65560 -10.65560 -10.65376
  Beta  occ. eigenvalues --  -10.65376 -10.65375 -10.65375 -10.65250 -10.65249
  Beta  occ. eigenvalues --  -10.65089 -10.65089 -10.64787 -10.64785 -10.63971
  Beta  occ. eigenvalues --  -10.63660 -10.63558  -1.11402  -1.10212  -1.09798
  Beta  occ. eigenvalues --   -1.08081  -1.07741  -1.04835  -1.04818  -1.02304
  Beta  occ. eigenvalues --   -1.02065  -1.00842  -0.99901  -0.97780  -0.97560
  Beta  occ. eigenvalues --   -0.96514  -0.96215  -0.94722  -0.93463  -0.93329
  Beta  occ. eigenvalues --   -0.92792  -0.91543  -0.86979  -0.86688  -0.84870
  Beta  occ. eigenvalues --   -0.84741  -0.82874  -0.81427  -0.80452  -0.79622
  Beta  occ. eigenvalues --   -0.79561  -0.79450  -0.77091  -0.76094  -0.75946
  Beta  occ. eigenvalues --   -0.75723  -0.75182  -0.73064  -0.69928  -0.69408
  Beta  occ. eigenvalues --   -0.68459  -0.68373  -0.67689  -0.67574  -0.66750
  Beta  occ. eigenvalues --   -0.66734  -0.65616  -0.65165  -0.65065  -0.64499
  Beta  occ. eigenvalues --   -0.63040  -0.62597  -0.62308  -0.62007  -0.60739
  Beta  occ. eigenvalues --   -0.60652  -0.60375  -0.60019  -0.59918  -0.59559
  Beta  occ. eigenvalues --   -0.59352  -0.58649  -0.58439  -0.57979  -0.57456
  Beta  occ. eigenvalues --   -0.57193  -0.56636  -0.55660  -0.55576  -0.55573
  Beta  occ. eigenvalues --   -0.54857  -0.53901  -0.52875  -0.52741  -0.52505
  Beta  occ. eigenvalues --   -0.52308  -0.52218  -0.51893  -0.50949  -0.50831
  Beta  occ. eigenvalues --   -0.50759  -0.50100  -0.49430  -0.49415  -0.48833
  Beta  occ. eigenvalues --   -0.48189  -0.47832  -0.47325  -0.44970  -0.44171
  Beta  occ. eigenvalues --   -0.42952  -0.42476  -0.40438  -0.40335  -0.38551
  Beta  occ. eigenvalues --   -0.38041  -0.37191  -0.36939
  Beta virt. eigenvalues --   -0.20324  -0.18445  -0.15861  -0.15506  -0.14464
  Beta virt. eigenvalues --   -0.10369  -0.09504  -0.08552  -0.08523  -0.07976
  Beta virt. eigenvalues --   -0.07622  -0.07541  -0.07306  -0.06606  -0.06333

 Mulliken charges and spin densities:
               1          2
     1  C   -0.052944   0.320134
     2  C   -0.052955   0.320177
     3  C    0.376154   0.028189
     4  C    0.096108  -0.006845
     5  C    0.097567   0.008764
     6  C    0.334727  -0.027295
     7  C   -0.376083   0.000603
     8  H    0.176631   0.000008
     9  C   -0.095341  -0.058132
    10  C   -0.376071   0.000604
    11  H    0.176631   0.000008
    12  C    0.097583   0.008763
    13  C    0.334743  -0.027296
    14  C    0.617986   0.046079
    15  C    0.270733  -0.071809
    16  C   -0.428935  -0.038786
    17  H    0.163387   0.001110
    18  C   -0.348375  -0.001441
    19  H    0.174852   0.000044
    20  C    0.379425   0.114711
    21  C   -0.201619   0.033380
    22  H    0.178331  -0.000502
    23  C    0.270750  -0.071833
    24  C    0.379341   0.114728
    25  C   -0.348378  -0.001442
    26  H    0.174851   0.000044
    27  C    0.618038   0.046071
    28  C   -0.105498   0.091590
    29  H    0.215705  -0.005192
    30  C   -0.264359   0.037463
    31  H    0.223351  -0.004068
    32  C   -0.378132   0.067112
    33  H    0.181407  -0.003847
    34  C   -0.201665   0.033368
    35  H    0.178328  -0.000502
    36  C   -0.069364  -0.070126
    37  H    0.160053   0.001421
    38  C   -0.095352  -0.058143
    39  C   -0.393653   0.039125
    40  H    0.164280  -0.001523
    41  C   -0.204576   0.076966
    42  H    0.181612  -0.004087
    43  C   -0.393168   0.007456
    44  H    0.162109  -0.000511
    45  C   -0.069361  -0.070124
    46  H    0.160052   0.001421
    47  C    0.064206  -0.038975
    48  H    0.166084   0.000380
    49  C   -0.264361   0.037445
    50  H    0.223357  -0.004068
    51  C   -0.204594   0.076967
    52  H    0.181612  -0.004087
    53  C   -0.428922  -0.038791
    54  H    0.163385   0.001110
    55  C   -0.513066  -0.032235
    56  H    0.176502   0.001515
    57  C   -0.378085   0.067121
    58  H    0.181405  -0.003847
    59  C   -0.393640   0.039124
    60  H    0.164279  -0.001523
    61  C   -0.513049  -0.032228
    62  H    0.176503   0.001515
    63  C   -0.393109   0.007452
    64  H    0.162104  -0.000511
    65  C   -0.105507   0.091594
    66  H    0.215709  -0.005192
    67  C    0.064200  -0.038981
    68  H    0.166083   0.000380
 Sum of Mulliken charges =   1.00000   1.00000

 Dipole moment (field-independent basis, Debye):
    X=             -0.0003    Y=              2.6264    Z=              0.0028  Tot=              2.6264
 Quadrupole moment (field-independent basis, Debye-Ang):
   XX=           -221.2980   YY=           -174.5359   ZZ=           -176.6140
   XY=             -0.0046   XZ=              2.7181   YZ=              0.0020

 Normal termination of Gaussian 16 at Sat Nov 16 05:32:19 2024.
