 Gaussian 16, Revision A.03,
 Gaussian 16:  ES64L-G16RevA.03 25-Dec-2016

 --------------------------------------------
 #p opt UM062X/6-311+G** nosymm int=superfine
 --------------------------------------------

 -------------------
 Title Card Required
 -------------------
 Symbolic Z-matrix:
 Charge =  0 Multiplicity = 1

 SCF Done:  E(UM062X) =  -81.9436821641     A.U. after   10 cycles
 SCF Done:  E(UM062X) =  -81.9452428873     A.U. after    9 cycles
 SCF Done:  E(UM062X) =  -81.9455159697     A.U. after   10 cycles
 SCF Done:  E(UM062X) =  -81.9340479686     A.U. after   10 cycles
 SCF Done:  E(UM062X) =  -81.9457366569     A.U. after   10 cycles
 SCF Done:  E(UM062X) =  -81.9460465575     A.U. after   10 cycles
 SCF Done:  E(UM062X) =  -81.9422008100     A.U. after   11 cycles
 SCF Done:  E(UM062X) =  -81.9468857623     A.U. after   10 cycles
 SCF Done:  E(UM062X) =  -81.9468908400     A.U. after   10 cycles
 SCF Done:  E(UM062X) =  -81.9471446697     A.U. after    9 cycles
 SCF Done:  E(UM062X) =  -81.9472943725     A.U. after    9 cycles
 SCF Done:  E(UM062X) =  -81.9473953483     A.U. after    9 cycles
 SCF Done:  E(UM062X) =  -81.9473879261     A.U. after    9 cycles
 SCF Done:  E(UM062X) =  -81.9474451335     A.U. after    9 cycles
 SCF Done:  E(UM062X) =  -81.9474496970     A.U. after    8 cycles
 SCF Done:  E(UM062X) =  -81.9474500261     A.U. after    7 cycles
 Optimization completed.
    -- Stationary point found.

                          Input orientation:
 ---------------------------------------------------------------------
 Center     Atomic      Atomic             Coordinates (Angstroms)
 Number     Number       Type             X           Y           Z
 ---------------------------------------------------------------------
      1          5           0       -0.920399    0.000000    0.000000
      2          7           0        0.920399    0.000000    0.000000
      3          1           0       -1.416458   -1.069373   -0.039187
      4          1           0        1.306968    0.837109    0.415707
      5          1           0       -1.416387    1.069400   -0.039368
      6          1           0        1.307015   -0.836989    0.415903
 ---------------------------------------------------------------------

 Alpha  occ. eigenvalues --  -14.73316  -7.10431  -0.91351  -0.58252  -0.53821
 Alpha  occ. eigenvalues --   -0.43594  -0.41329  -0.31797
 Alpha virt. eigenvalues --   -0.02455   0.01331   0.02688   0.03581   0.06019
 Alpha virt. eigenvalues --    0.11204   0.13327   0.15194   0.16350   0.16435
 Alpha virt. eigenvalues --    0.20154   0.20669   0.23642   0.25170   0.36566

  Beta  occ. eigenvalues --  -14.73316  -7.10431  -0.91351  -0.58252  -0.53821
  Beta  occ. eigenvalues --   -0.43594  -0.41329  -0.31797
  Beta virt. eigenvalues --   -0.02455   0.01331   0.02688   0.03581   0.06019
  Beta virt. eigenvalues --    0.11204   0.13327   0.15194   0.16350   0.16435
  Beta virt. eigenvalues --    0.20154   0.20669   0.23642   0.25170   0.36566

 Mulliken charges and spin densities:
               1          2
     1  B    0.180510  -0.000000
     2  N   -0.706586   0.000000
     3  H    0.017700   0.000000
     4  H    0.245337  -0.000000
     5  H    0.017698  -0.000000
     6  H    0.245341  -0.000000
 Sum of Mulliken charges =   0.00000   0.00000

 Dipole moment (field-independent basis, Debye):
    X=             -0.5963    Y=              0.0001    Z=              1.1936  Tot=              1.3343
 Quadrupole moment (field-independent basis, Debye-Ang):
   XX=            -13.7995   YY=            -13.1322   ZZ=            -15.0710
   XY=              0.0002   XZ=              1.8838   YZ=             -0.0002

 Normal termination of Gaussian 16 at Mon Apr 21 17:40:57 2025.
