 Gaussian 16, Revision A.03,
 Gaussian 16:  ES64L-G16RevA.03 25-Dec-2016

 --------------------------------------------
 #p opt UM062X/6-311+G** nosymm int=superfine
 --------------------------------------------

 -------------------
 Title Card Required
 -------------------
 Symbolic Z-matrix:
 Charge = -1 Multiplicity = 2

 SCF Done:  E(UM062X) =  -50.5613259232     A.U. after   22 cycles
 SCF Done:  E(UM062X) =  -50.5648904405     A.U. after   15 cycles
 SCF Done:  E(UM062X) =  -50.5650904262     A.U. after   10 cycles
 Optimization completed.
    -- Stationary point found.

                          Input orientation:
 ---------------------------------------------------------------------
 Center     Atomic      Atomic             Coordinates (Angstroms)
 Number     Number       Type             X           Y           Z
 ---------------------------------------------------------------------
      1          5           0       -2.241404    0.000000    0.000000
      2          5           0        2.241404    0.000000    0.000000
      3          1           0       -3.500338   -0.000955    0.000000
      4          1           0        3.500338    0.000955   -0.000000
 ---------------------------------------------------------------------

 Alpha  occ. eigenvalues --   -6.91841  -6.91841  -0.35528  -0.35445  -0.09794
 Alpha  occ. eigenvalues --   -0.08162   0.02621
 Alpha virt. eigenvalues --    0.09198   0.12098   0.12892   0.15272   0.15939
 Alpha virt. eigenvalues --    0.21105   0.21441   0.21580   0.22328   0.22855
 Alpha virt. eigenvalues --    0.25186   0.31545   0.36482   0.49848   0.54879

  Beta  occ. eigenvalues --   -6.91744  -6.91744  -0.34440  -0.34413  -0.08701
  Beta  occ. eigenvalues --   -0.07113
  Beta virt. eigenvalues --    0.10567   0.11291   0.11849   0.12168   0.13351
  Beta virt. eigenvalues --    0.13525   0.19189   0.19981   0.20165   0.21017
  Beta virt. eigenvalues --    0.21488   0.21551   0.31296   0.36529   0.49385

 Mulliken charges and spin densities:
               1          2
     1  B   -0.411461   0.513271
     2  B   -0.411461   0.513271
     3  H   -0.088539  -0.013271
     4  H   -0.088539  -0.013271
 Sum of Mulliken charges =  -1.00000   1.00000

 Dipole moment (field-independent basis, Debye):
    X=             -0.0000    Y=              0.0000    Z=              0.0000  Tot=              0.0000
 Quadrupole moment (field-independent basis, Debye-Ang):
   XX=            -41.8452   YY=            -18.9256   ZZ=            -26.0738
   XY=             -0.0008   XZ=              0.0000   YZ=             -0.0000

 Normal termination of Gaussian 16 at Mon Apr 21 17:29:51 2025.
