 Gaussian 16, Revision A.03,
 Gaussian 16:  ES64L-G16RevA.03 25-Dec-2016

 ---------------------------------------
 #p UM062X/6-311+G** force int=superfine
 ---------------------------------------

 -------------------
 Title Card Required
 -------------------
 Symbolic Z-matrix:
 Charge =  0 Multiplicity = 1

                         Standard orientation:
 ---------------------------------------------------------------------
 Center     Atomic      Atomic             Coordinates (Angstroms)
 Number     Number       Type             X           Y           Z
 ---------------------------------------------------------------------
      1          7           0        0.000000    0.000000    0.695048
      2          7           0        0.000000    0.000000   -0.695048
 ---------------------------------------------------------------------

 SCF Done:  E(UM062X) =  -109.377169645     A.U. after    9 cycles

 The electronic state is 1-SGG.
 Alpha  occ. eigenvalues --  -14.92815 -14.92754  -1.09086  -0.72262  -0.49364
 Alpha  occ. eigenvalues --   -0.46083  -0.46083
 Alpha virt. eigenvalues --   -0.08313  -0.08313   0.07827   0.07912   0.10947
 Alpha virt. eigenvalues --    0.10947   0.15366   0.16635   0.16635   0.26390
 Alpha virt. eigenvalues --    0.27164   0.76722   0.77694   0.77694   0.79476

  Beta  occ. eigenvalues --  -14.92815 -14.92754  -1.09086  -0.72262  -0.49364
  Beta  occ. eigenvalues --   -0.46083  -0.46083
  Beta virt. eigenvalues --   -0.08313  -0.08313   0.07827   0.07912   0.10947
  Beta virt. eigenvalues --    0.10947   0.15366   0.16635   0.16635   0.26390
  Beta virt. eigenvalues --    0.27164   0.76722   0.77694   0.77694   0.79476

 Mulliken charges and spin densities:
               1          2
     1  N    0.000000  -0.000000
     2  N    0.000000  -0.000000
 Sum of Mulliken charges =   0.00000  -0.00000

 Dipole moment (field-independent basis, Debye):
    X=             -0.0000    Y=              0.0000    Z=             -0.0000  Tot=              0.0000
 Quadrupole moment (field-independent basis, Debye-Ang):
   XX=            -11.1661   YY=            -11.1661   ZZ=            -11.9739
   XY=              0.0000   XZ=              0.0000   YZ=             -0.0000

 Optimization completed.
    -- Stationary point found.
 Normal termination of Gaussian 16 at Wed Feb 26 13:45:19 2025.
