 Gaussian 16, Revision A.03,
 Gaussian 16:  ES64L-G16RevA.03 25-Dec-2016

 ---------------------------------------------------------
 #p opt UM062X/6-311+G** nosymm int=superfine SCF=NoVarAcc
 ---------------------------------------------------------

 -------------------
 Title Card Required
 -------------------
 Symbolic Z-matrix:
 Charge =  0 Multiplicity = 1

 SCF Done:  E(UM062X) =  -78.2051431539     A.U. after    9 cycles
 SCF Done:  E(UM062X) =  -78.2217309416     A.U. after    9 cycles
 SCF Done:  E(UM062X) =  -78.2362231569     A.U. after    8 cycles
 SCF Done:  E(UM062X) =  -78.2365083064     A.U. after    8 cycles
 SCF Done:  E(UM062X) =  -78.2365094339     A.U. after    7 cycles
 Optimization completed.
    -- Stationary point found.

                          Input orientation:
 ---------------------------------------------------------------------
 Center     Atomic      Atomic             Coordinates (Angstroms)
 Number     Number       Type             X           Y           Z
 ---------------------------------------------------------------------
      1          6           0       -3.035595    0.000000    0.000000
      2          6           0        3.035595    0.000000    0.000000
      3          1           0       -3.736464   -0.860516   -0.000000
      4          1           0       -3.736437    0.860539   -0.000000
      5          1           0        3.736464    0.860516   -0.000000
      6          1           0        3.736437   -0.860539   -0.000000
 ---------------------------------------------------------------------

 Alpha  occ. eigenvalues --  -10.60277 -10.60277  -0.75201  -0.75201  -0.47032
 Alpha  occ. eigenvalues --   -0.47032  -0.30881  -0.30794
 Alpha virt. eigenvalues --   -0.07741  -0.07691   0.02578   0.02633   0.06261
 Alpha virt. eigenvalues --    0.07913   0.08196   0.08311   0.09702   0.14747
 Alpha virt. eigenvalues --    0.17546   0.18791   0.19824   0.20021   0.43666

  Beta  occ. eigenvalues --  -10.60277 -10.60277  -0.75201  -0.75201  -0.47032
  Beta  occ. eigenvalues --   -0.47032  -0.30881  -0.30794
  Beta virt. eigenvalues --   -0.07741  -0.07691   0.02578   0.02633   0.06261
  Beta virt. eigenvalues --    0.07913   0.08196   0.08311   0.09702   0.14747
  Beta virt. eigenvalues --    0.17546   0.18791   0.19824   0.20021   0.43666

 Mulliken charges and spin densities:
               1          2
     1  C   -0.248196   0.000000
     2  C   -0.248196  -0.000000
     3  H    0.124098  -0.000000
     4  H    0.124098  -0.000000
     5  H    0.124098   0.000000
     6  H    0.124098   0.000000
 Sum of Mulliken charges =  -0.00000   0.00000

 Dipole moment (field-independent basis, Debye):
    X=              0.0000    Y=              0.0000    Z=             -0.0000  Tot=              0.0000
 Quadrupole moment (field-independent basis, Debye-Ang):
   XX=              6.6455   YY=            -14.5026   ZZ=            -12.8734
   XY=             -0.0001   XZ=              0.0000   YZ=              0.0000

 Normal termination of Gaussian 16 at Tue Dec  3 17:39:37 2024.
