 Gaussian 16, Revision A.03,
 Gaussian 16:  ES64L-G16RevA.03 25-Dec-2016

 --------------------------------------------
 #p opt UM062X/6-311+G** nosymm int=superfine
 --------------------------------------------

 -------------------
 Title Card Required
 -------------------
 Symbolic Z-matrix:
 Charge =  0 Multiplicity = 1

 SCF Done:  E(UM062X) =  -111.784944796     A.U. after   12 cycles
 SCF Done:  E(UM062X) =  -111.799356271     A.U. after   13 cycles
 SCF Done:  E(UM062X) =  -111.801473944     A.U. after   13 cycles
 SCF Done:  E(UM062X) =  -111.802143707     A.U. after   12 cycles
 SCF Done:  E(UM062X) =  -111.803247365     A.U. after   13 cycles
 SCF Done:  E(UM062X) =  -111.803437764     A.U. after   12 cycles
 SCF Done:  E(UM062X) =  -111.803479000     A.U. after   10 cycles
 SCF Done:  E(UM062X) =  -111.803480914     A.U. after    9 cycles
 SCF Done:  E(UM062X) =  -111.803480987     A.U. after    7 cycles
 Optimization completed.
    -- Stationary point found.

                          Input orientation:
 ---------------------------------------------------------------------
 Center     Atomic      Atomic             Coordinates (Angstroms)
 Number     Number       Type             X           Y           Z
 ---------------------------------------------------------------------
      1          7           0       -0.936540    0.000000    0.000000
      2          7           0        0.936540    0.000000    0.000000
      3          1           0       -1.037300   -0.811825   -0.611797
      4          1           0        1.037320    0.401817   -0.933752
      5          1           0       -1.037288   -0.401638    0.933836
      6          1           0        1.037289    0.811705    0.611964
 ---------------------------------------------------------------------

 Alpha  occ. eigenvalues --  -14.78056 -14.78047  -0.98799  -0.89296  -0.56755
 Alpha  occ. eigenvalues --   -0.51012  -0.42721  -0.41963  -0.32977
 Alpha virt. eigenvalues --   -0.00226   0.04544   0.08448   0.08834   0.12542
 Alpha virt. eigenvalues --    0.13256   0.13595   0.15657   0.16166   0.21831
 Alpha virt. eigenvalues --    0.22893   0.26573   0.28228   0.51804   0.52394

  Beta  occ. eigenvalues --  -14.78056 -14.78047  -0.98799  -0.89296  -0.56755
  Beta  occ. eigenvalues --   -0.51012  -0.42721  -0.41963  -0.32977
  Beta virt. eigenvalues --   -0.00226   0.04544   0.08448   0.08834   0.12542
  Beta virt. eigenvalues --    0.13256   0.13595   0.15657   0.16166   0.21831
  Beta virt. eigenvalues --    0.22893   0.26573   0.28228   0.51804   0.52394

 Mulliken charges and spin densities:
               1          2
     1  N   -0.522735   0.000000
     2  N   -0.522738  -0.000000
     3  H    0.261375  -0.000000
     4  H    0.261375   0.000000
     5  H    0.261362  -0.000000
     6  H    0.261361   0.000000
 Sum of Mulliken charges =  -0.00000  -0.00000

 Dipole moment (field-independent basis, Debye):
    X=              0.0000    Y=              0.0001    Z=              0.0003  Tot=              0.0004
 Quadrupole moment (field-independent basis, Debye-Ang):
   XX=            -15.1861   YY=            -13.9820   ZZ=            -11.1378
   XY=              4.7899   XZ=             -1.2707   YZ=              0.8116

 Normal termination of Gaussian 16 at Thu May 15 14:26:50 2025.
