 Gaussian 16, Revision A.03,
 Gaussian 16:  ES64L-G16RevA.03 25-Dec-2016

 --------------------------------------------
 #p opt UM062X/6-311+G** nosymm int=superfine
 --------------------------------------------

 -------------------
 Title Card Required
 -------------------
 Symbolic Z-matrix:
 Charge =  1 Multiplicity = 2

 SCF Done:  E(UM062X) =  -92.6636444842     A.U. after   68 cycles
 SCF Done:  E(UM062X) =  -92.6639329875     A.U. after   58 cycles
 SCF Done:  E(UM062X) =  -92.6639347699     A.U. after   32 cycles
 Optimization completed.
    -- Stationary point found.

                          Input orientation:
 ---------------------------------------------------------------------
 Center     Atomic      Atomic             Coordinates (Angstroms)
 Number     Number       Type             X           Y           Z
 ---------------------------------------------------------------------
      1          6           0       -1.251540    0.000000    0.000000
      2          7           0        1.251540    0.000000    0.000000
      3          1           0       -2.368708    0.000000   -0.000000
 ---------------------------------------------------------------------

 Alpha  occ. eigenvalues --  -15.16712 -11.01421  -1.18951  -0.99341  -0.70762
 Alpha  occ. eigenvalues --   -0.70715  -0.68627
 Alpha virt. eigenvalues --   -0.44575  -0.36842  -0.33128  -0.15413  -0.10377
 Alpha virt. eigenvalues --   -0.09165  -0.08143  -0.04441  -0.02017  -0.01795
 Alpha virt. eigenvalues --    0.01531   0.08634   0.24730   0.30624   0.30637

  Beta  occ. eigenvalues --  -15.13028 -11.03795  -1.08264  -0.97922  -0.77440
  Beta  occ. eigenvalues --   -0.66657
  Beta virt. eigenvalues --   -0.42564  -0.31517  -0.31103  -0.31076  -0.15277
  Beta virt. eigenvalues --   -0.11579  -0.09316  -0.09182  -0.06097  -0.00662
  Beta virt. eigenvalues --   -0.00566   0.00293   0.05216   0.23834   0.29723

 Mulliken charges and spin densities:
               1          2
     1  C    0.300175  -1.556291
     2  N    0.344606   2.644205
     3  H    0.355219  -0.087913
 Sum of Mulliken charges =   1.00000   1.00000

 Dipole moment (field-independent basis, Debye):
    X=             -4.0293    Y=              0.0000    Z=             -0.0000  Tot=              4.0293
 Quadrupole moment (field-independent basis, Debye-Ang):
   XX=              4.5871   YY=             -9.2789   ZZ=            -10.7433
   XY=              0.0000   XZ=              0.0000   YZ=             -0.3779

 Normal termination of Gaussian 16 at Mon Apr 21 18:35:34 2025.
