 Gaussian 16, Revision A.03,
 Gaussian 16:  ES64L-G16RevA.03 25-Dec-2016

 ---------------------------------------------------
 #p UM062X/6-311+G** force int=superfine pop=saveNBO
 ---------------------------------------------------

 -------------------
 Title Card Required
 -------------------
 Symbolic Z-matrix:
 Charge =  0 Multiplicity = 1

                         Standard orientation:
 ---------------------------------------------------------------------
 Center     Atomic      Atomic             Coordinates (Angstroms)
 Number     Number       Type             X           Y           Z
 ---------------------------------------------------------------------
      1         15           0        0.000000    0.000000    1.388495
      2         15           0        0.000000    0.000000   -1.388495
 ---------------------------------------------------------------------

 SCF Done:  E(UM062X) =  -682.468590567     A.U. after   10 cycles

 The electronic state is 1-SGG.
 Alpha  occ. eigenvalues --  -78.11311 -78.11311  -6.92855  -6.92852  -5.04193
 Alpha  occ. eigenvalues --   -5.04193  -5.04193  -5.04193  -5.04104  -5.04102
 Alpha  occ. eigenvalues --   -0.67074  -0.60370  -0.31838  -0.27838  -0.27838
 Alpha virt. eigenvalues --   -0.14123  -0.14123  -0.07178   0.02473   0.03644
 Alpha virt. eigenvalues --    0.04588   0.04588   0.06049   0.06672   0.06672
 Alpha virt. eigenvalues --    0.11870   0.29155   0.30468   0.30468   0.33161

  Beta  occ. eigenvalues --  -78.11311 -78.11311  -6.92855  -6.92852  -5.04193
  Beta  occ. eigenvalues --   -5.04193  -5.04193  -5.04193  -5.04104  -5.04102
  Beta  occ. eigenvalues --   -0.67074  -0.60370  -0.31838  -0.27838  -0.27838
  Beta virt. eigenvalues --   -0.14123  -0.14123  -0.07178   0.02473   0.03644
  Beta virt. eigenvalues --    0.04588   0.04588   0.06049   0.06672   0.06672
  Beta virt. eigenvalues --    0.11870   0.29155   0.30468   0.30468   0.33161

 Mulliken charges and spin densities:
               1          2
     1  P   -0.000000   0.000000
     2  P   -0.000000   0.000000
 Sum of Mulliken charges =  -0.00000   0.00000

 Dipole moment (field-independent basis, Debye):
    X=              0.0000    Y=             -0.0000    Z=             -0.0000  Tot=              0.0000
 Quadrupole moment (field-independent basis, Debye-Ang):
   XX=            -28.8656   YY=            -28.8656   ZZ=            -25.1224
   XY=              0.0000   XZ=             -0.0000   YZ=              0.0000

 Summary of Natural Population Analysis:

                                       Natural Population
                Natural  -----------------------------------------------
    Atom  No    Charge         Core      Valence    Rydberg      Total
 -----------------------------------------------------------------------
      P    1   -0.00000      4.99997     2.49749    0.00254     7.50000
      P    2   -0.00000      4.99997     2.49749    0.00254     7.50000
 =======================================================================
   * Total *   -0.00000      9.99994     4.99499    0.00507    15.00000

 Normal termination of Gaussian 16 at Mon Apr 21 21:20:46 2025.
