 Gaussian 16, Revision A.03,
 Gaussian 16:  ES64L-G16RevA.03 25-Dec-2016

 --------------------------------------------
 #p opt UM062X/6-311+G** nosymm int=superfine
 --------------------------------------------

 -------------------
 Title Card Required
 -------------------
 Symbolic Z-matrix:
 Charge = -1 Multiplicity = 2

 SCF Done:  E(UM062X) =  -53.2173781280     A.U. after   11 cycles
 SCF Done:  E(UM062X) =  -53.2195109766     A.U. after   10 cycles
 SCF Done:  E(UM062X) =  -53.2199622986     A.U. after   10 cycles
 Optimization completed.
    -- Stationary point found.

                          Input orientation:
 ---------------------------------------------------------------------
 Center     Atomic      Atomic             Coordinates (Angstroms)
 Number     Number       Type             X           Y           Z
 ---------------------------------------------------------------------
      1          5           0       -1.590672    0.000000    0.000000
      2          5           0        1.590672    0.000000    0.000000
      3          1           0        1.697382   -1.195049   -0.000012
      4          1           0       -1.697391   -0.597514    1.034945
      5          1           0        1.697541    0.597531   -1.034921
      6          1           0        1.697338    0.597501    1.034957
      7          1           0       -1.697389    1.195048    0.000001
      8          1           0       -1.697481   -0.597519   -1.034933
 ---------------------------------------------------------------------

 Alpha  occ. eigenvalues --   -6.82924  -6.82922  -0.39216  -0.37487  -0.20719
 Alpha  occ. eigenvalues --   -0.20718  -0.19757  -0.19757  -0.00030
 Alpha virt. eigenvalues --    0.14544   0.17201   0.17639   0.17639   0.18857
 Alpha virt. eigenvalues --    0.18857   0.21701   0.22609   0.22779   0.32961
 Alpha virt. eigenvalues --    0.32962   0.36104   0.36104   0.38790   0.39969

  Beta  occ. eigenvalues --   -6.82879  -6.82878  -0.37089  -0.35970  -0.20415
  Beta  occ. eigenvalues --   -0.20415  -0.19593  -0.19593
  Beta virt. eigenvalues --    0.13454   0.14516   0.16468   0.16561   0.16561
  Beta virt. eigenvalues --    0.18417   0.18417   0.23402   0.23973   0.27630
  Beta virt. eigenvalues --    0.32380   0.32380   0.35959   0.35959   0.38943

 Mulliken charges and spin densities:
               1          2
     1  B   -0.300410   0.596600
     2  B   -0.300410   0.596600
     3  H   -0.066517  -0.032187
     4  H   -0.066534  -0.032206
     5  H   -0.066542  -0.032207
     6  H   -0.066531  -0.032206
     7  H   -0.066517  -0.032187
     8  H   -0.066538  -0.032207
 Sum of Mulliken charges =  -1.00000   1.00000

 Dipole moment (field-independent basis, Debye):
    X=              0.0000    Y=             -0.0000    Z=              0.0000  Tot=              0.0000
 Quadrupole moment (field-independent basis, Debye-Ang):
   XX=            -37.1494   YY=            -24.1410   ZZ=            -24.1410
   XY=             -0.0001   XZ=              0.0000   YZ=              0.0000

 Normal termination of Gaussian 16 at Mon Apr 21 16:53:28 2025.
