 Gaussian 16, Revision A.03,
 Gaussian 16:  ES64L-G16RevA.03 25-Dec-2016

 ---------------------------------------
 #p UM062X/6-311+G** force int=superfine
 ---------------------------------------

 -------------------
 Title Card Required
 -------------------
 Symbolic Z-matrix:
 Charge =  1 Multiplicity = 2

                         Standard orientation:
 ---------------------------------------------------------------------
 Center     Atomic      Atomic             Coordinates (Angstroms)
 Number     Number       Type             X           Y           Z
 ---------------------------------------------------------------------
      1          6           0       -0.623688   -0.071173   -0.000083
      2          6           0        0.623689    0.071171    0.000045
      3          1           0        1.070799    1.063174   -0.000099
      4          1           0       -1.177580    0.596281    0.748003
      5          1           0        1.177629   -0.596440   -0.747830
      6          1           0        1.177644   -0.596436    0.747792
      7          1           0       -1.070800   -1.063174   -0.000031
      8          1           0       -1.177699    0.596605   -0.747609
 ---------------------------------------------------------------------

 SCF Done:  E(UM062X) =  -79.3367260534     A.U. after   10 cycles

 The electronic state is 2-A.
 Alpha  occ. eigenvalues --  -10.81387 -10.81214  -1.21135  -0.99813  -0.83811
 Alpha  occ. eigenvalues --   -0.80189  -0.79210  -0.68657  -0.62724
 Alpha virt. eigenvalues --   -0.16191  -0.13959  -0.12969  -0.12061  -0.08654
 Alpha virt. eigenvalues --   -0.07201  -0.06858  -0.06660  -0.04930  -0.02419
 Alpha virt. eigenvalues --   -0.01016  -0.00686   0.06212   0.06454   0.12835

  Beta  occ. eigenvalues --  -10.81317 -10.81134  -1.19535  -0.96042  -0.82892
  Beta  occ. eigenvalues --   -0.78306  -0.73792  -0.67175
  Beta virt. eigenvalues --   -0.42719  -0.16247  -0.13987  -0.12610  -0.12111
  Beta virt. eigenvalues --   -0.08681  -0.06919  -0.06650  -0.04932  -0.04767
  Beta virt. eigenvalues --   -0.01982  -0.00889  -0.00513   0.06327   0.06984

 Mulliken charges and spin densities:
               1          2
     1  C   -0.400105   0.155001
     2  C   -0.400116   0.154992
     3  H    0.253609  -0.009705
     4  H    0.323280   0.177499
     5  H    0.323271   0.177438
     6  H    0.323230   0.177269
     7  H    0.253610  -0.009705
     8  H    0.323221   0.177210
 Sum of Mulliken charges =   1.00000   1.00000

 Dipole moment (field-independent basis, Debye):
    X=             -0.0000    Y=              0.0000    Z=              0.0004  Tot=              0.0004
 Quadrupole moment (field-independent basis, Debye-Ang):
   XX=             -6.4393   YY=            -10.0341   ZZ=            -11.1791
   XY=             -1.7523   XZ=             -0.0013   YZ=              0.0004

 Normal termination of Gaussian 16 at Tue Nov 19 08:41:14 2024.
