 Gaussian 16, Revision A.03,
 Gaussian 16:  ES64L-G16RevA.03 25-Dec-2016

 --------------------------------------------
 #p opt UM062X/6-311+G** nosymm int=superfine
 --------------------------------------------

 -------------------
 Title Card Required
 -------------------
 Symbolic Z-matrix:
 Charge =  0 Multiplicity = 1

 SCF Done:  E(UM062X) =  -115.536307601     A.U. after  111 cycles
 SCF Done:  E(UM062X) =  -115.543274459     A.U. after   11 cycles
 SCF Done:  E(UM062X) =  -115.547508322     A.U. after   13 cycles
 SCF Done:  E(UM062X) =  -115.547930276     A.U. after   12 cycles
 SCF Done:  E(UM062X) =  -115.548001151     A.U. after   12 cycles
 SCF Done:  E(UM062X) =  -115.548009192     A.U. after   10 cycles
 SCF Done:  E(UM062X) =  -115.548055599     A.U. after   12 cycles
 SCF Done:  E(UM062X) =  -115.548127928     A.U. after   12 cycles
 SCF Done:  E(UM062X) =  -115.548298346     A.U. after   13 cycles
 SCF Done:  E(UM062X) =  -115.548430192     A.U. after   13 cycles
 SCF Done:  E(UM062X) =  -115.548860071     A.U. after   48 cycles
 SCF Done:  E(UM062X) =  -115.548972448     A.U. after   36 cycles
 SCF Done:  E(UM062X) =  -115.549170509     A.U. after   14 cycles
 SCF Done:  E(UM062X) =  -115.549243136     A.U. after   12 cycles
 SCF Done:  E(UM062X) =  -115.549270284     A.U. after   12 cycles
 SCF Done:  E(UM062X) =  -115.549287865     A.U. after   11 cycles
 SCF Done:  E(UM062X) =  -115.549288302     A.U. after   11 cycles
 SCF Done:  E(UM062X) =  -115.549291297     A.U. after   11 cycles
 SCF Done:  E(UM062X) =  -115.549291338     A.U. after   10 cycles
 SCF Done:  E(UM062X) =  -115.549291337     A.U. after    7 cycles
 Optimization completed.
    -- Stationary point found.

                          Input orientation:
 ---------------------------------------------------------------------
 Center     Atomic      Atomic             Coordinates (Angstroms)
 Number     Number       Type             X           Y           Z
 ---------------------------------------------------------------------
      1          6           0       -2.107203   -0.000000   -0.000000
      2          8           0        2.107203   -0.000000   -0.000000
      3          1           0        1.132967   -0.000000   -0.000000
      4          1           0       -2.146685   -0.507739    0.951642
      5          1           0       -2.153289    1.077778   -0.036274
      6          1           0       -2.140316   -0.570367   -0.915739
 ---------------------------------------------------------------------

 Alpha  occ. eigenvalues --  -19.67439 -10.56052  -1.05989  -0.79316  -0.53034
 Alpha  occ. eigenvalues --   -0.50527  -0.50525  -0.40074  -0.30382
 Alpha virt. eigenvalues --   -0.10324   0.01971   0.05197   0.05214   0.06859
 Alpha virt. eigenvalues --    0.13515   0.18038   0.18064   0.18074   0.19011
 Alpha virt. eigenvalues --    0.19116   0.19801   0.24797   0.42849   0.42867

  Beta  occ. eigenvalues --  -19.69034 -10.55373  -1.14260  -0.74539  -0.56211
  Beta  occ. eigenvalues --   -0.50152  -0.49243  -0.49239  -0.43723
  Beta virt. eigenvalues --   -0.07457  -0.00069   0.04439   0.04482   0.08781
  Beta virt. eigenvalues --    0.12871   0.17278   0.17474   0.17893   0.18821
  Beta virt. eigenvalues --    0.18898   0.19870   0.25739   0.41983   0.42000

 Mulliken charges and spin densities:
               1          2
     1  C   -0.515925   1.141340
     2  O   -0.257073  -1.009172
     3  H    0.258414   0.013524
     4  H    0.171685  -0.048568
     5  H    0.171263  -0.048533
     6  H    0.171635  -0.048591
 Sum of Mulliken charges =  -0.00000  -0.00000

 Dipole moment (field-independent basis, Debye):
    X=             -2.1175    Y=             -0.0011    Z=             -0.0003  Tot=              2.1175
 Quadrupole moment (field-independent basis, Debye-Ang):
   XX=            -20.5387   YY=            -12.7617   ZZ=            -14.0986
   XY=             -0.0101   XZ=             -0.0056   YZ=             -0.0647

 Normal termination of Gaussian 16 at Mon Apr 21 18:54:01 2025.
