 Gaussian 16, Revision A.03,
 Gaussian 16:  ES64L-G16RevA.03 25-Dec-2016

 --------------------------------------------
 #p opt UM062X/6-311+G** nosymm int=superfine
 --------------------------------------------

 -------------------
 Title Card Required
 -------------------
 Symbolic Z-matrix:
 Charge =  0 Multiplicity = 1

 SCF Done:  E(UM062X) =  -95.7632391394     A.U. after   11 cycles
 SCF Done:  E(UM062X) =  -95.7735932479     A.U. after   11 cycles
 SCF Done:  E(UM062X) =  -95.7746745242     A.U. after   10 cycles
 SCF Done:  E(UM062X) =  -95.7746869735     A.U. after    9 cycles
 SCF Done:  E(UM062X) =  -95.7746875417     A.U. after    8 cycles
 Optimization completed.
    -- Stationary point found.

                          Input orientation:
 ---------------------------------------------------------------------
 Center     Atomic      Atomic             Coordinates (Angstroms)
 Number     Number       Type             X           Y           Z
 ---------------------------------------------------------------------
      1          6           0       -0.980542    0.000000    0.000000
      2          7           0        0.980542    0.000000    0.000000
      3          1           0        1.143286   -1.001695    0.107252
      4          1           0       -1.207948    1.058474   -0.006470
      5          1           0        1.143230    0.387504    0.929923
      6          1           0       -1.207933   -0.502444   -0.931649
      7          1           0       -1.301991   -0.527968    0.890730
 ---------------------------------------------------------------------

 Alpha  occ. eigenvalues --  -14.74347 -10.58092  -0.92034  -0.77241  -0.52869
 Alpha  occ. eigenvalues --   -0.49566  -0.47441  -0.38884  -0.32585
 Alpha virt. eigenvalues --    0.01136   0.01460   0.05154   0.05901   0.09295
 Alpha virt. eigenvalues --    0.11473   0.13770   0.16040   0.16849   0.18664
 Alpha virt. eigenvalues --    0.21463   0.22525   0.22541   0.31247   0.42150

  Beta  occ. eigenvalues --  -14.74347 -10.58092  -0.92034  -0.77241  -0.52869
  Beta  occ. eigenvalues --   -0.49566  -0.47441  -0.38884  -0.32585
  Beta virt. eigenvalues --    0.01136   0.01460   0.05154   0.05901   0.09295
  Beta virt. eigenvalues --    0.11473   0.13770   0.16040   0.16849   0.18664
  Beta virt. eigenvalues --    0.21463   0.22525   0.22541   0.31247   0.42150

 Mulliken charges and spin densities:
               1          2
     1  C   -0.423858  -0.000000
     2  N   -0.568293  -0.000000
     3  H    0.237236   0.000000
     4  H    0.177098  -0.000000
     5  H    0.237229   0.000000
     6  H    0.177112   0.000000
     7  H    0.163476   0.000000
 Sum of Mulliken charges =  -0.00000  -0.00000

 Dipole moment (field-independent basis, Debye):
    X=             -1.4935    Y=             -0.8608    Z=              1.4536  Tot=              2.2549
 Quadrupole moment (field-independent basis, Debye-Ang):
   XX=            -15.0657   YY=            -13.2830   ZZ=            -14.2104
   XY=             -1.2764   XZ=              2.1553   YZ=              0.8458

 Normal termination of Gaussian 16 at Mon Apr 21 18:10:39 2025.
