 Gaussian 16, Revision A.03,
 Gaussian 16:  ES64L-G16RevA.03 25-Dec-2016

 ----------------------------------------------------------------------
 #p opt UM062X/6-311+G** nosymm int=superfine SCF=(MaxCycle=200,NoVarAc
 c,noincfock) guess=read
 ----------------------------------------------------------------------

 -------------------
 Title Card Required
 -------------------
 Symbolic Z-matrix:
 Charge =  0 Multiplicity = 1

 SCF Done:  E(UM062X) =  -115.536253558     A.U. after   28 cycles
 SCF Done:  E(UM062X) =  -115.543213055     A.U. after   11 cycles
 SCF Done:  E(UM062X) =  -115.547436505     A.U. after   13 cycles
 SCF Done:  E(UM062X) =  -115.547855825     A.U. after   12 cycles
 SCF Done:  E(UM062X) =  -115.547925173     A.U. after   12 cycles
 SCF Done:  E(UM062X) =  -115.547932237     A.U. after   10 cycles
 SCF Done:  E(UM062X) =  -115.547969133     A.U. after   11 cycles
 SCF Done:  E(UM062X) =  -115.548029941     A.U. after   11 cycles
 SCF Done:  E(UM062X) =  -115.548183246     A.U. after   13 cycles
 SCF Done:  E(UM062X) =  -115.548308171     A.U. after   13 cycles
 SCF Done:  E(UM062X) =  -115.548760578     A.U. after   12 cycles
 SCF Done:  E(UM062X) =  -115.548767907     A.U. after   11 cycles
 SCF Done:  E(UM062X) =  -115.548805911     A.U. after   11 cycles
 SCF Done:  E(UM062X) =  -115.548880126     A.U. after   14 cycles
 SCF Done:  E(UM062X) =  -115.549000295     A.U. after   11 cycles
 SCF Done:  E(UM062X) =  -115.549142639     A.U. after   11 cycles
 SCF Done:  E(UM062X) =  -115.549160115     A.U. after   12 cycles
 SCF Done:  E(UM062X) =  -115.549160304     A.U. after    9 cycles
 SCF Done:  E(UM062X) =  -115.549160353     A.U. after    9 cycles
 SCF Done:  E(UM062X) =  -115.549161174     A.U. after   10 cycles
 Optimization completed.
    -- Stationary point found.

                          Input orientation:
 ---------------------------------------------------------------------
 Center     Atomic      Atomic             Coordinates (Angstroms)
 Number     Number       Type             X           Y           Z
 ---------------------------------------------------------------------
      1          6           0       -2.132203    0.000000    0.000000
      2          8           0        2.132203    0.000000    0.000000
      3          1           0        1.158043   -0.000306   -0.000002
      4          1           0       -2.171866   -0.526278    0.941629
      5          1           0       -2.172203    1.078682   -0.015160
      6          1           0       -2.168365   -0.552428   -0.926675
 ---------------------------------------------------------------------

 Alpha  occ. eigenvalues --  -19.67460 -10.56009  -1.06011  -0.79271  -0.53053
 Alpha  occ. eigenvalues --   -0.50486  -0.50483  -0.40093  -0.30331
 Alpha virt. eigenvalues --   -0.10341   0.01986   0.05201   0.05218   0.06821
 Alpha virt. eigenvalues --    0.13503   0.18019   0.18046   0.18060   0.18986
 Alpha virt. eigenvalues --    0.19099   0.19858   0.24692   0.42891   0.42906

  Beta  occ. eigenvalues --  -19.69056 -10.55330  -1.14287  -0.74490  -0.56235
  Beta  occ. eigenvalues --   -0.50174  -0.49200  -0.49198  -0.43745
  Beta virt. eigenvalues --   -0.07538  -0.00115   0.04454   0.04493   0.08698
  Beta virt. eigenvalues --    0.12935   0.17210   0.17451   0.17861   0.18833
  Beta virt. eigenvalues --    0.18925   0.19817   0.25561   0.42027   0.42041

 Mulliken charges and spin densities:
               1          2
     1  C   -0.514948   1.141883
     2  O   -0.257676  -1.009405
     3  H    0.259231   0.013240
     4  H    0.171296  -0.048574
     5  H    0.170835  -0.048559
     6  H    0.171263  -0.048585
 Sum of Mulliken charges =  -0.00000  -0.00000

 Dipole moment (field-independent basis, Debye):
    X=             -2.1067    Y=             -0.0013    Z=             -0.0002  Tot=              2.1067
 Quadrupole moment (field-independent basis, Debye-Ang):
   XX=            -20.6536   YY=            -12.7595   ZZ=            -14.1032
   XY=             -0.0023   XZ=             -0.0033   YZ=             -0.0217

 Normal termination of Gaussian 16 at Mon Apr 21 23:19:30 2025.
