 Gaussian 16, Revision A.03,
 Gaussian 16:  ES64L-G16RevA.03 25-Dec-2016

 --------------------------------------------
 #p opt UM062X/6-311+G** nosymm int=superfine
 --------------------------------------------

 -------------------
 Title Card Required
 -------------------
 Symbolic Z-matrix:
 Charge =  0 Multiplicity = 1

 SCF Done:  E(UM062X) =  -94.3073136029     A.U. after   16 cycles
 SCF Done:  E(UM062X) =  -94.3157946405     A.U. after   13 cycles
 SCF Done:  E(UM062X) =  -94.3171821326     A.U. after   15 cycles
 SCF Done:  E(UM062X) =  -94.3171858773     A.U. after   16 cycles
 SCF Done:  E(UM062X) =  -94.3171818390     A.U. after   17 cycles
 SCF Done:  E(UM062X) =  -94.3171962768     A.U. after   19 cycles
 SCF Done:  E(UM062X) =  -94.3171964758     A.U. after   13 cycles
 SCF Done:  E(UM062X) =  -94.3171966862     A.U. after   11 cycles
 Optimization completed.
    -- Stationary point found.

                          Input orientation:
 ---------------------------------------------------------------------
 Center     Atomic      Atomic             Coordinates (Angstroms)
 Number     Number       Type             X           Y           Z
 ---------------------------------------------------------------------
      1          6           0       -1.156637    0.000000    0.000000
      2          7           0        1.156637    0.000000    0.000000
      3          1           0       -1.777943   -0.895451   -0.000298
      4          1           0        1.104736   -1.034134    0.000364
      5          1           0       -1.627489    0.980370   -0.000229
 ---------------------------------------------------------------------

 Alpha  occ. eigenvalues --  -14.80677 -10.67355  -0.86785  -0.78837  -0.54829
 Alpha  occ. eigenvalues --   -0.42602  -0.35620  -0.28614
 Alpha virt. eigenvalues --   -0.12216  -0.06085   0.01769   0.04760   0.06351
 Alpha virt. eigenvalues --    0.07710   0.12712   0.15139   0.16080   0.17453
 Alpha virt. eigenvalues --    0.20505   0.20838   0.27080   0.41812   0.42281

  Beta  occ. eigenvalues --  -14.80677 -10.67355  -0.86785  -0.78837  -0.54829
  Beta  occ. eigenvalues --   -0.42602  -0.35620  -0.28614
  Beta virt. eigenvalues --   -0.12216  -0.06085   0.01769   0.04760   0.06351
  Beta virt. eigenvalues --    0.07710   0.12712   0.15139   0.16080   0.17453
  Beta virt. eigenvalues --    0.20505   0.20838   0.27080   0.41812   0.42281

 Mulliken charges and spin densities:
               1          2
     1  C   -0.297833  -0.000007
     2  N   -0.274584   0.000007
     3  H    0.188453   0.000000
     4  H    0.188651  -0.000000
     5  H    0.195313   0.000000
 Sum of Mulliken charges =  -0.00000  -0.00000

 Dipole moment (field-independent basis, Debye):
    X=             -3.4061    Y=             -1.3966    Z=             -0.0002  Tot=              3.6813
 Quadrupole moment (field-independent basis, Debye-Ang):
   XX=            -10.7245   YY=            -11.9418   ZZ=            -15.6566
   XY=             -2.0526   XZ=              0.0004   YZ=             -0.0007

 Normal termination of Gaussian 16 at Mon Apr 21 18:23:06 2025.
