 Gaussian 16, Revision A.03,
 Gaussian 16:  ES64L-G16RevA.03 25-Dec-2016

 --------------------------------------------
 #p opt UM062X/6-311+G** nosymm int=superfine
 --------------------------------------------

 -------------------
 Title Card Required
 -------------------
 Symbolic Z-matrix:
 Charge = -1 Multiplicity = 2

 SCF Done:  E(UM062X) =  -51.8460591983     A.U. after   12 cycles
 SCF Done:  E(UM062X) =  -51.8460796941     A.U. after    9 cycles
 Optimization completed.
    -- Stationary point found.

                          Input orientation:
 ---------------------------------------------------------------------
 Center     Atomic      Atomic             Coordinates (Angstroms)
 Number     Number       Type             X           Y           Z
 ---------------------------------------------------------------------
      1          5           0       -2.147274    0.000000    0.000000
      2          5           0        2.147274    0.000000    0.000000
      3          1           0       -2.816131   -1.012951   -0.000013
      4          1           0        2.816131    1.012951   -0.000488
      5          1           0       -2.816134    1.012950   -0.000011
      6          1           0        2.816134   -1.012950    0.000464
 ---------------------------------------------------------------------

 Alpha  occ. eigenvalues --   -6.88079  -6.88079  -0.38201  -0.38134  -0.22322
 Alpha  occ. eigenvalues --   -0.22280  -0.05562  -0.02866
 Alpha virt. eigenvalues --    0.11679   0.12832   0.14908   0.15433   0.15612
 Alpha virt. eigenvalues --    0.17422   0.19698   0.20670   0.20763   0.23015
 Alpha virt. eigenvalues --    0.32013   0.33257   0.33815   0.36543   0.50639

  Beta  occ. eigenvalues --   -6.87486  -6.87485  -0.36860  -0.36721  -0.21623
  Beta  occ. eigenvalues --   -0.21568   0.01866
  Beta virt. eigenvalues --    0.12400   0.13024   0.13955   0.14460   0.15972
  Beta virt. eigenvalues --    0.17820   0.18142   0.22056   0.22295   0.24158
  Beta virt. eigenvalues --    0.25282   0.32074   0.33443   0.33970   0.37372

 Mulliken charges and spin densities:
               1          2
     1  B   -0.344032   0.491894
     2  B   -0.344032   0.491894
     3  H   -0.077984   0.004053
     4  H   -0.077984   0.004053
     5  H   -0.077984   0.004053
     6  H   -0.077984   0.004053
 Sum of Mulliken charges =  -1.00000   1.00000

 Dipole moment (field-independent basis, Debye):
    X=              0.0000    Y=             -0.0000    Z=             -0.0000  Tot=              0.0000
 Quadrupole moment (field-independent basis, Debye-Ang):
   XX=            -42.8044   YY=            -24.4491   ZZ=            -18.9513
   XY=              0.0000   XZ=             -0.0000   YZ=              0.0013

 Normal termination of Gaussian 16 at Mon Apr 21 17:26:45 2025.
