 Gaussian 16, Revision A.03,
 Gaussian 16:  ES64L-G16RevA.03 25-Dec-2016

 --------------------------------------------
 #p opt UM062X/6-311+G** nosymm int=superfine
 --------------------------------------------

 -------------------
 Title Card Required
 -------------------
 Symbolic Z-matrix:
 Charge =  0 Multiplicity = 1

 SCF Done:  E(UM062X) =  -93.2619071759     A.U. after   10 cycles
 SCF Done:  E(UM062X) =  -93.2620280750     A.U. after    9 cycles
 SCF Done:  E(UM062X) =  -93.2620283813     A.U. after    7 cycles
 Optimization completed.
    -- Stationary point found.

                          Input orientation:
 ---------------------------------------------------------------------
 Center     Atomic      Atomic             Coordinates (Angstroms)
 Number     Number       Type             X           Y           Z
 ---------------------------------------------------------------------
      1          6           0       -0.747395    0.000000    0.000000
      2          7           0        0.747395    0.000000    0.000000
      3          1           0       -1.828234    0.000000   -0.000000
 ---------------------------------------------------------------------

 Alpha  occ. eigenvalues --  -14.86314 -10.68181  -0.92434  -0.72273  -0.47720
 Alpha  occ. eigenvalues --   -0.37288  -0.37288
 Alpha virt. eigenvalues --   -0.05076  -0.05076   0.01352   0.02771   0.07051
 Alpha virt. eigenvalues --    0.07051   0.11287   0.15209   0.17756   0.17756
 Alpha virt. eigenvalues --    0.24842   0.31032   0.55805   0.55805   0.56685

  Beta  occ. eigenvalues --  -14.86314 -10.68181  -0.92434  -0.72273  -0.47720
  Beta  occ. eigenvalues --   -0.37288  -0.37288
  Beta virt. eigenvalues --   -0.05076  -0.05076   0.01352   0.02771   0.07051
  Beta virt. eigenvalues --    0.07051   0.11287   0.15209   0.17756   0.17756
  Beta virt. eigenvalues --    0.24842   0.31032   0.55805   0.55805   0.56685

 Mulliken charges and spin densities:
               1          2
     1  C   -0.130702  -0.000000
     2  N   -0.104847   0.000000
     3  H    0.235548  -0.000000
 Sum of Mulliken charges =  -0.00000   0.00000

 Dipole moment (field-independent basis, Debye):
    X=             -3.0990    Y=              0.0000    Z=             -0.0000  Tot=              3.0990
 Quadrupole moment (field-independent basis, Debye-Ang):
   XX=             -8.6356   YY=            -13.0454   ZZ=            -13.0454
   XY=             -0.0000   XZ=              0.0000   YZ=             -0.0000

 Normal termination of Gaussian 16 at Mon Apr 21 18:37:45 2025.
