 Gaussian 16, Revision A.03,
 Gaussian 16:  ES64L-G16RevA.03 25-Dec-2016

 --------------------------------------------
 #p opt UM062X/6-311+G** nosymm int=superfine
 --------------------------------------------

 -------------------
 Title Card Required
 -------------------
 Symbolic Z-matrix:
 Charge =  0 Multiplicity = 1

 SCF Done:  E(UM062X) =  -79.5517295512     A.U. after   10 cycles
 SCF Done:  E(UM062X) =  -79.5562793390     A.U. after   10 cycles
 SCF Done:  E(UM062X) =  -79.5584982539     A.U. after   11 cycles
 SCF Done:  E(UM062X) =  -79.5585219899     A.U. after   10 cycles
 Optimization completed.
    -- Stationary point found.

                          Input orientation:
 ---------------------------------------------------------------------
 Center     Atomic      Atomic             Coordinates (Angstroms)
 Number     Number       Type             X           Y           Z
 ---------------------------------------------------------------------
      1          6           0       -2.271675    0.000000    0.000000
      2          6           0        2.271800    0.000000    0.000000
      3          1           0        2.305002   -0.934157    0.540548
      4          1           0       -2.304857   -0.935211   -0.538724
      5          1           0        2.304986    0.935211    0.538723
      6          1           0        2.305039   -0.001053   -1.079277
      7          1           0       -2.304877    0.934157   -0.540547
      8          1           0       -2.304919    0.001052    1.079276
 ---------------------------------------------------------------------

 Alpha  occ. eigenvalues --  -10.57240 -10.57239  -0.77214  -0.77056  -0.49454
 Alpha  occ. eigenvalues --   -0.49454  -0.49409  -0.49409  -0.20656
 Alpha virt. eigenvalues --   -0.12709   0.03010   0.04744   0.05245   0.05245
 Alpha virt. eigenvalues --    0.07158   0.07158   0.10664   0.12976   0.18831
 Alpha virt. eigenvalues --    0.18831   0.19705   0.19705   0.20385   0.25412

  Beta  occ. eigenvalues --  -10.57240 -10.57239  -0.77214  -0.77056  -0.49454
  Beta  occ. eigenvalues --   -0.49454  -0.49409  -0.49409  -0.20656
  Beta virt. eigenvalues --   -0.12709   0.03010   0.04744   0.05245   0.05245
  Beta virt. eigenvalues --    0.07158   0.07158   0.10664   0.12976   0.18831
  Beta virt. eigenvalues --    0.18831   0.19705   0.19705   0.20385   0.25412

 Mulliken charges and spin densities:
               1          2
     1  C   -0.518437   0.000000
     2  C   -0.518437  -0.000000
     3  H    0.172813   0.000000
     4  H    0.172813  -0.000000
     5  H    0.172813   0.000000
     6  H    0.172811   0.000000
     7  H    0.172813  -0.000000
     8  H    0.172811  -0.000000
 Sum of Mulliken charges =  -0.00000  -0.00000

 Dipole moment (field-independent basis, Debye):
    X=             -0.0000    Y=             -0.0000    Z=             -0.0000  Tot=              0.0000
 Quadrupole moment (field-independent basis, Debye-Ang):
   XX=            -16.4177   YY=            -14.8872   ZZ=            -14.8872
   XY=             -0.0000   XZ=             -0.0001   YZ=             -0.0000

 Normal termination of Gaussian 16 at Tue Dec  3 10:12:45 2024.
