 Gaussian 16, Revision A.03,
 Gaussian 16:  ES64L-G16RevA.03 25-Dec-2016

 --------------------------------------------
 #p opt UM062X/6-311+G** nosymm int=superfine
 --------------------------------------------

 -------------------
 Title Card Required
 -------------------
 Symbolic Z-matrix:
 Charge =  0 Multiplicity = 1

 SCF Done:  E(UM062X) =  -111.664094088     A.U. after   16 cycles
 SCF Done:  E(UM062X) =  -111.681281959     A.U. after   14 cycles
 SCF Done:  E(UM062X) =  -111.690255912     A.U. after   15 cycles
 SCF Done:  E(UM062X) =  -111.691332161     A.U. after   12 cycles
 SCF Done:  E(UM062X) =  -111.692639374     A.U. after   13 cycles
 SCF Done:  E(UM062X) =  -111.693099290     A.U. after   13 cycles
 SCF Done:  E(UM062X) =  -111.693288539     A.U. after   12 cycles
 SCF Done:  E(UM062X) =  -111.693326023     A.U. after   11 cycles
 SCF Done:  E(UM062X) =  -111.693351652     A.U. after   10 cycles
 SCF Done:  E(UM062X) =  -111.693354443     A.U. after   10 cycles
 Optimization completed.
    -- Stationary point found.

                          Input orientation:
 ---------------------------------------------------------------------
 Center     Atomic      Atomic             Coordinates (Angstroms)
 Number     Number       Type             X           Y           Z
 ---------------------------------------------------------------------
      1          7           0       -1.361540    0.000000    0.000000
      2          7           0        1.361540    0.000000    0.000000
      3          1           0       -1.299814   -0.819609   -0.615644
      4          1           0        1.299912    0.415154   -0.937247
      5          1           0       -1.299217   -0.416781    0.936476
      6          1           0        1.299060    0.820632    0.614186
 ---------------------------------------------------------------------

 Alpha  occ. eigenvalues --  -14.80339 -14.80336  -0.95452  -0.93654  -0.55190
 Alpha  occ. eigenvalues --   -0.54024  -0.41018  -0.39740  -0.31985
 Alpha virt. eigenvalues --   -0.13737   0.04607   0.06941   0.08746   0.11454
 Alpha virt. eigenvalues --    0.13085   0.13895   0.15679   0.15970   0.19612
 Alpha virt. eigenvalues --    0.20784   0.26764   0.27909   0.51502   0.51517

  Beta  occ. eigenvalues --  -14.80339 -14.80336  -0.95452  -0.93654  -0.55190
  Beta  occ. eigenvalues --   -0.54024  -0.41018  -0.39740  -0.31985
  Beta virt. eigenvalues --   -0.13737   0.04607   0.06941   0.08746   0.11454
  Beta virt. eigenvalues --    0.13085   0.13895   0.15679   0.15970   0.19612
  Beta virt. eigenvalues --    0.20784   0.26764   0.27909   0.51502   0.51517

 Mulliken charges and spin densities:
               1          2
     1  N   -0.507023   0.000000
     2  N   -0.507008  -0.000000
     3  H    0.253475  -0.000000
     4  H    0.253473   0.000000
     5  H    0.253540  -0.000000
     6  H    0.253543   0.000000
 Sum of Mulliken charges =  -0.00000  -0.00000

 Dipole moment (field-independent basis, Debye):
    X=             -0.0001    Y=             -0.0009    Z=             -0.0034  Tot=              0.0035
 Quadrupole moment (field-independent basis, Debye-Ang):
   XX=            -15.6215   YY=            -14.1516   ZZ=            -11.4081
   XY=              5.8627   XZ=             -1.5273   YZ=              0.7665

 Normal termination of Gaussian 16 at Thu May 15 14:41:25 2025.
