 Gaussian 16, Revision A.03,
 Gaussian 16:  ES64L-G16RevA.03 25-Dec-2016

 ---------------------------------------------------
 #p UM062X/6-311+G** force int=superfine pop=saveNBO
 ---------------------------------------------------

 -------------------
 Title Card Required
 -------------------
 Symbolic Z-matrix:
 Charge =  0 Multiplicity = 1

                         Standard orientation:
 ---------------------------------------------------------------------
 Center     Atomic      Atomic             Coordinates (Angstroms)
 Number     Number       Type             X           Y           Z
 ---------------------------------------------------------------------
      1         15           0        0.000000    0.000000    2.113495
      2         15           0        0.000000    0.000000   -2.113495
 ---------------------------------------------------------------------

 SCF Done:  E(UM062X) =  -682.270740477     A.U. after    9 cycles

 The electronic state is 1-SGG.
 Alpha  occ. eigenvalues --  -78.11859 -78.11859  -6.93527  -6.93527  -5.04823
 Alpha  occ. eigenvalues --   -5.04823  -5.04810  -5.04810  -5.04810  -5.04810
 Alpha  occ. eigenvalues --   -0.64186  -0.63267  -0.26339  -0.24856  -0.24856
 Alpha virt. eigenvalues --   -0.17805  -0.17805  -0.16158   0.02284   0.03297
 Alpha virt. eigenvalues --    0.04408   0.04408   0.06328   0.06328   0.06347
 Alpha virt. eigenvalues --    0.10234   0.29261   0.29874   0.29874   0.32764

  Beta  occ. eigenvalues --  -78.11859 -78.11859  -6.93527  -6.93527  -5.04823
  Beta  occ. eigenvalues --   -5.04823  -5.04810  -5.04810  -5.04810  -5.04810
  Beta  occ. eigenvalues --   -0.64186  -0.63267  -0.26339  -0.24856  -0.24856
  Beta virt. eigenvalues --   -0.17805  -0.17805  -0.16158   0.02284   0.03297
  Beta virt. eigenvalues --    0.04408   0.04408   0.06328   0.06328   0.06347
  Beta virt. eigenvalues --    0.10234   0.29261   0.29874   0.29874   0.32764

 Mulliken charges and spin densities:
               1          2
     1  P   -0.000000   0.000000
     2  P   -0.000000   0.000000
 Sum of Mulliken charges =  -0.00000   0.00000

 Dipole moment (field-independent basis, Debye):
    X=             -0.0000    Y=              0.0000    Z=             -0.0000  Tot=              0.0000
 Quadrupole moment (field-independent basis, Debye-Ang):
   XX=            -29.4143   YY=            -29.4143   ZZ=            -24.4807
   XY=              0.0000   XZ=             -0.0000   YZ=              0.0000

 Summary of Natural Population Analysis:

                                       Natural Population
                Natural  -----------------------------------------------
    Atom  No    Charge         Core      Valence    Rydberg      Total
 -----------------------------------------------------------------------
      P    1    0.00000      5.00000     2.49947    0.00053     7.50000
      P    2   -0.00000      5.00000     2.49947    0.00053     7.50000
 =======================================================================
   * Total *   -0.00000     10.00000     4.99893    0.00107    15.00000

 Normal termination of Gaussian 16 at Mon Apr 21 21:22:41 2025.
