 Gaussian 16, Revision A.03,
 Gaussian 16:  ES64L-G16RevA.03 25-Dec-2016

 --------------------------------------------
 #p opt UM062X/6-311+G** nosymm int=superfine
 --------------------------------------------

 -------------------
 Title Card Required
 -------------------
 Symbolic Z-matrix:
 Charge =  0 Multiplicity = 1

 SCF Done:  E(UM062X) =  -94.6072256962     A.U. after   10 cycles
 SCF Done:  E(UM062X) =  -94.6073800007     A.U. after    9 cycles
 SCF Done:  E(UM062X) =  -94.6073902448     A.U. after    8 cycles
 SCF Done:  E(UM062X) =  -94.6073902954     A.U. after    7 cycles
 SCF Done:  E(UM062X) =  -94.6073905707     A.U. after    7 cycles
 Optimization completed.
    -- Stationary point found.

                          Input orientation:
 ---------------------------------------------------------------------
 Center     Atomic      Atomic             Coordinates (Angstroms)
 Number     Number       Type             X           Y           Z
 ---------------------------------------------------------------------
      1          6           0       -0.656637    0.000000    0.000000
      2          7           0        0.656637    0.000000    0.000000
      3          1           0       -1.265966   -0.905295   -0.000083
      4          1           0        0.988265   -0.967294   -0.000024
      5          1           0       -1.168429    0.959298    0.000009
 ---------------------------------------------------------------------

 Alpha  occ. eigenvalues --  -14.75710 -10.59679  -1.00290  -0.71537  -0.57426
 Alpha  occ. eigenvalues --   -0.49948  -0.39163  -0.34982
 Alpha virt. eigenvalues --    0.00143   0.01787   0.03732   0.04989   0.07547
 Alpha virt. eigenvalues --    0.13100   0.16254   0.16562   0.18410   0.21281
 Alpha virt. eigenvalues --    0.25079   0.25944   0.34858   0.48323   0.49928

  Beta  occ. eigenvalues --  -14.75710 -10.59679  -1.00290  -0.71537  -0.57426
  Beta  occ. eigenvalues --   -0.49948  -0.39163  -0.34982
  Beta virt. eigenvalues --    0.00143   0.01787   0.03732   0.04989   0.07547
  Beta virt. eigenvalues --    0.13100   0.16254   0.16562   0.18410   0.21281
  Beta virt. eigenvalues --    0.25079   0.25944   0.34858   0.48323   0.49928

 Mulliken charges and spin densities:
               1          2
     1  C   -0.213771   0.000000
     2  N   -0.280007  -0.000000
     3  H    0.136557  -0.000000
     4  H    0.199422   0.000000
     5  H    0.157799   0.000000
 Sum of Mulliken charges =  -0.00000  -0.00000

 Dipole moment (field-independent basis, Debye):
    X=             -1.7194    Y=             -1.5218    Z=             -0.0001  Tot=              2.2962
 Quadrupole moment (field-independent basis, Debye-Ang):
   XX=            -12.7601   YY=            -11.5166   ZZ=            -13.9822
   XY=             -1.9809   XZ=             -0.0000   YZ=              0.0001

 Normal termination of Gaussian 16 at Mon Apr 21 18:17:56 2025.
