 Gaussian 16, Revision A.03,
 Gaussian 16:  ES64L-G16RevA.03 25-Dec-2016

 --------------------------------------------
 #p opt UM062X/6-311+G** nosymm int=superfine
 --------------------------------------------

 -------------------
 Title Card Required
 -------------------
 Symbolic Z-matrix:
 Charge =  1 Multiplicity = 2

 SCF Done:  E(UM062X) =  -78.1624756335     A.U. after    9 cycles
 SCF Done:  E(UM062X) =  -78.1669255183     A.U. after    8 cycles
 SCF Done:  E(UM062X) =  -78.1671786072     A.U. after    7 cycles
 Optimization completed.
    -- Stationary point found.

                          Input orientation:
 ---------------------------------------------------------------------
 Center     Atomic      Atomic             Coordinates (Angstroms)
 Number     Number       Type             X           Y           Z
 ---------------------------------------------------------------------
      1          6           0       -0.643272    0.000000    0.000000
      2          6           0        0.643272    0.000000    0.000000
      3          1           0       -1.220170   -0.923348    0.000000
      4          1           0       -1.220256    0.923213    0.000000
      5          1           0        1.220170    0.923348   -0.000000
      6          1           0        1.220256   -0.923213   -0.000000
 ---------------------------------------------------------------------

 Alpha  occ. eigenvalues --  -10.88673 -10.88517  -1.22854  -0.97089  -0.86489
 Alpha  occ. eigenvalues --   -0.81988  -0.71078  -0.70259
 Alpha virt. eigenvalues --   -0.26984  -0.14790  -0.13202  -0.12474  -0.10167
 Alpha virt. eigenvalues --   -0.07933  -0.06688  -0.04930  -0.04321  -0.02945
 Alpha virt. eigenvalues --   -0.00214   0.02833   0.11416   0.12270   0.21196

  Beta  occ. eigenvalues --  -10.88428 -10.88287  -1.18547  -0.95216  -0.85191
  Beta  occ. eigenvalues --   -0.81078  -0.70791
  Beta virt. eigenvalues --   -0.44338  -0.20475  -0.16488  -0.13161  -0.12452
  Beta virt. eigenvalues --   -0.10797  -0.08861  -0.06742  -0.04801  -0.03274
  Beta virt. eigenvalues --   -0.02525  -0.00481   0.02952   0.11872   0.13099

 Mulliken charges and spin densities:
               1          2
     1  C   -0.046843   0.536930
     2  C   -0.046843   0.536930
     3  H    0.273419  -0.018466
     4  H    0.273424  -0.018463
     5  H    0.273419  -0.018466
     6  H    0.273424  -0.018463
 Sum of Mulliken charges =   1.00000   1.00000

 Dipole moment (field-independent basis, Debye):
    X=              0.0000    Y=             -0.0000    Z=             -0.0000  Tot=              0.0000
 Quadrupole moment (field-independent basis, Debye-Ang):
   XX=             -6.0523   YY=             -8.4944   ZZ=            -11.2115
   XY=             -0.0000   XZ=             -0.0000   YZ=             -0.0000

 Normal termination of Gaussian 16 at Tue Nov 19 10:57:09 2024.
