 Gaussian 16, Revision A.03,
 Gaussian 16:  ES64L-G16RevA.03 25-Dec-2016

 --------------------------------------------
 #p opt UM062X/6-311+G** nosymm int=superfine
 --------------------------------------------

 -------------------
 Title Card Required
 -------------------
 Symbolic Z-matrix:
 Charge =  0 Multiplicity = 1

 SCF Done:  E(UM062X) =  -79.4797099710     A.U. after   10 cycles
 SCF Done:  E(UM062X) =  -79.5204393946     A.U. after    8 cycles
 SCF Done:  E(UM062X) =  -79.5431814151     A.U. after    9 cycles
 SCF Done:  E(UM062X) =  -79.5435206025     A.U. after    7 cycles
 Optimization completed.
    -- Stationary point found.

                          Input orientation:
 ---------------------------------------------------------------------
 Center     Atomic      Atomic             Coordinates (Angstroms)
 Number     Number       Type             X           Y           Z
 ---------------------------------------------------------------------
      1          6           0       -0.534483    0.000000    0.000000
      2          6           0        0.534538    0.000000    0.000000
      3          1           0        1.045813   -0.852683    0.493401
      4          1           0       -1.045728   -0.853704   -0.491710
      5          1           0        1.045785    0.853706    0.491702
      6          1           0        1.045774   -0.000907   -0.985187
      7          1           0       -1.045758    0.852678   -0.493410
      8          1           0       -1.045722    0.000903    0.985184
 ---------------------------------------------------------------------

 Alpha  occ. eigenvalues --  -10.49908 -10.49170  -0.96980  -0.67317  -0.56378
 Alpha  occ. eigenvalues --   -0.56377  -0.52986  -0.33693  -0.33691
 Alpha virt. eigenvalues --    0.01992   0.04158   0.04455   0.04455   0.08584
 Alpha virt. eigenvalues --    0.09015   0.09015   0.14276   0.18106   0.18107
 Alpha virt. eigenvalues --    0.20337   0.20339   0.23920   0.27737   0.40206

  Beta  occ. eigenvalues --  -10.49908 -10.49170  -0.96980  -0.67317  -0.56378
  Beta  occ. eigenvalues --   -0.56377  -0.52986  -0.33693  -0.33691
  Beta virt. eigenvalues --    0.01992   0.04158   0.04455   0.04455   0.08584
  Beta virt. eigenvalues --    0.09015   0.09015   0.14276   0.18106   0.18107
  Beta virt. eigenvalues --    0.20337   0.20339   0.23920   0.27737   0.40206

 Mulliken charges and spin densities:
               1          2
     1  C   -0.416570   0.000000
     2  C   -0.416570  -0.000000
     3  H    0.138860   0.000000
     4  H    0.138855  -0.000000
     5  H    0.138855   0.000000
     6  H    0.138855   0.000000
     7  H    0.138860  -0.000000
     8  H    0.138855  -0.000000
 Sum of Mulliken charges =  -0.00000  -0.00000

 Dipole moment (field-independent basis, Debye):
    X=              0.0000    Y=             -0.0000    Z=             -0.0000  Tot=              0.0000
 Quadrupole moment (field-independent basis, Debye-Ang):
   XX=            -15.6724   YY=            -14.9422   ZZ=            -14.9425
   XY=             -0.0001   XZ=              0.0000   YZ=             -0.0002

 Normal termination of Gaussian 16 at Tue Nov 19 11:39:42 2024.
