 Gaussian 16, Revision A.03,
 Gaussian 16:  ES64L-G16RevA.03 25-Dec-2016

 --------------------------------------------
 #p opt UM062X/6-311+G** nosymm int=superfine
 --------------------------------------------

 -------------------
 Title Card Required
 -------------------
 Symbolic Z-matrix:
 Charge =  0 Multiplicity = 1

 SCF Done:  E(UM062X) =  -78.4981669286     A.U. after    8 cycles
 SCF Done:  E(UM062X) =  -78.5137462483     A.U. after    8 cycles
 SCF Done:  E(UM062X) =  -78.5160590581     A.U. after    7 cycles
 SCF Done:  E(UM062X) =  -78.5161975320     A.U. after    7 cycles
 Optimization completed.
    -- Stationary point found.

                          Input orientation:
 ---------------------------------------------------------------------
 Center     Atomic      Atomic             Coordinates (Angstroms)
 Number     Number       Type             X           Y           Z
 ---------------------------------------------------------------------
      1          6           0       -0.788818    0.000000    0.000000
      2          6           0        0.788818    0.000000    0.000000
      3          1           0       -1.314956   -0.943597    0.000000
      4          1           0       -1.315094    0.943546    0.000000
      5          1           0        1.314956    0.943597   -0.000000
      6          1           0        1.315094   -0.943546   -0.000000
 ---------------------------------------------------------------------

 Alpha  occ. eigenvalues --  -10.57396 -10.57358  -0.81450  -0.68531  -0.53257
 Alpha  occ. eigenvalues --   -0.45596  -0.44662  -0.29886
 Alpha virt. eigenvalues --   -0.01276   0.03380   0.03762   0.05327   0.07813
 Alpha virt. eigenvalues --    0.08336   0.09725   0.12120   0.15861   0.16922
 Alpha virt. eigenvalues --    0.20689   0.21164   0.27292   0.29804   0.41910

  Beta  occ. eigenvalues --  -10.57396 -10.57358  -0.81450  -0.68531  -0.53257
  Beta  occ. eigenvalues --   -0.45596  -0.44662  -0.29886
  Beta virt. eigenvalues --   -0.01276   0.03380   0.03762   0.05327   0.07813
  Beta virt. eigenvalues --    0.08336   0.09725   0.12120   0.15861   0.16922
  Beta virt. eigenvalues --    0.20689   0.21164   0.27292   0.29804   0.41910

 Mulliken charges and spin densities:
               1          2
     1  C   -0.324257  -0.000000
     2  C   -0.324257   0.000000
     3  H    0.162125   0.000000
     4  H    0.162132   0.000000
     5  H    0.162125  -0.000000
     6  H    0.162132  -0.000000
 Sum of Mulliken charges =  -0.00000   0.00000

 Dipole moment (field-independent basis, Debye):
    X=              0.0000    Y=             -0.0000    Z=              0.0000  Tot=              0.0000
 Quadrupole moment (field-independent basis, Debye-Ang):
   XX=            -11.9567   YY=            -12.2530   ZZ=            -16.9035
   XY=             -0.0003   XZ=             -0.0000   YZ=              0.0000

 Normal termination of Gaussian 16 at Tue Nov 19 10:44:18 2024.
