 Gaussian 16, Revision A.03,
 Gaussian 16:  ES64L-G16RevA.03 25-Dec-2016

 ---------------------------------------
 #p UM062X/6-311+G** force int=superfine
 ---------------------------------------

 -------------------
 Title Card Required
 -------------------
 Symbolic Z-matrix:
 Charge =  0 Multiplicity = 1

                         Standard orientation:
 ---------------------------------------------------------------------
 Center     Atomic      Atomic             Coordinates (Angstroms)
 Number     Number       Type             X           Y           Z
 ---------------------------------------------------------------------
      1          6           0       -0.943542    0.196076   -0.462696
      2          6           0        0.943542   -0.196077    0.462696
      3          1           0        1.456763   -0.840158   -0.241823
      4          1           0       -0.686009    0.678175   -1.398558
      5          1           0        0.686011   -0.678174    1.398560
      6          1           0        1.392703    0.783598    0.577000
      7          1           0       -1.456763    0.840158    0.241823
      8          1           0       -1.392705   -0.783598   -0.577001
 ---------------------------------------------------------------------

 SCF Done:  E(UM062X) =  -79.7236667100     A.U. after    8 cycles

 The electronic state is 1-A.
 Alpha  occ. eigenvalues --  -10.54936 -10.54928  -0.78441  -0.73068  -0.48307
 Alpha  occ. eigenvalues --   -0.48307  -0.44985  -0.44984  -0.31647
 Alpha virt. eigenvalues --    0.01689   0.02386   0.05615   0.05615   0.08421
 Alpha virt. eigenvalues --    0.08421   0.09356   0.09668   0.13432   0.18181
 Alpha virt. eigenvalues --    0.18181   0.22093   0.22093   0.24339   0.26760

  Beta  occ. eigenvalues --  -10.54936 -10.54928  -0.78441  -0.73068  -0.48307
  Beta  occ. eigenvalues --   -0.48307  -0.44985  -0.44984  -0.31647
  Beta virt. eigenvalues --    0.01689   0.02386   0.05615   0.05615   0.08421
  Beta virt. eigenvalues --    0.08421   0.09356   0.09668   0.13432   0.18181
  Beta virt. eigenvalues --    0.18181   0.22093   0.22093   0.24339   0.26760

 Mulliken charges and spin densities:
               1          2
     1  C   -0.501716   0.000000
     2  C   -0.501715  -0.000000
     3  H    0.167238   0.000000
     4  H    0.167239  -0.000000
     5  H    0.167239   0.000000
     6  H    0.167238   0.000000
     7  H    0.167239  -0.000000
     8  H    0.167239   0.000000
 Sum of Mulliken charges =  -0.00000   0.00000

 Dipole moment (field-independent basis, Debye):
    X=              0.0000    Y=              0.0000    Z=              0.0000  Tot=              0.0000
 Quadrupole moment (field-independent basis, Debye-Ang):
   XX=            -15.4079   YY=            -14.8775   ZZ=            -14.9869
   XY=              0.1153   XZ=             -0.2718   YZ=              0.0565

 Normal termination of Gaussian 16 at Tue Nov 19 12:52:47 2024.
