 Gaussian 16, Revision A.03,
 Gaussian 16:  ES64L-G16RevA.03 25-Dec-2016

 --------------------------------------------
 #p opt UM062X/6-311+G** nosymm int=superfine
 --------------------------------------------

 -------------------
 Title Card Required
 -------------------
 Symbolic Z-matrix:
 Charge =  0 Multiplicity = 1

 SCF Done:  E(UM062X) =  -79.6595541638     A.U. after    8 cycles
 SCF Done:  E(UM062X) =  -79.6905121282     A.U. after    8 cycles
 SCF Done:  E(UM062X) =  -79.7131544615     A.U. after    9 cycles
 SCF Done:  E(UM062X) =  -79.7191967035     A.U. after    8 cycles
 SCF Done:  E(UM062X) =  -79.7192156398     A.U. after    7 cycles
 Optimization completed.
    -- Stationary point found.

                          Input orientation:
 ---------------------------------------------------------------------
 Center     Atomic      Atomic             Coordinates (Angstroms)
 Number     Number       Type             X           Y           Z
 ---------------------------------------------------------------------
      1          6           0       -1.084237    0.000000    0.000000
      2          6           0        1.084348    0.000000    0.000000
      3          1           0        1.343844   -0.910443    0.526831
      4          1           0       -1.343724   -0.911471   -0.525050
      5          1           0        1.343839    0.911472    0.525049
      6          1           0        1.343856   -0.001023   -1.051874
      7          1           0       -1.343733    0.910443   -0.526832
      8          1           0       -1.343750    0.001022    1.051874
 ---------------------------------------------------------------------

 Alpha  occ. eigenvalues --  -10.55024 -10.55017  -0.78305  -0.73191  -0.48299
 Alpha  occ. eigenvalues --   -0.48299  -0.45150  -0.45150  -0.31236
 Alpha virt. eigenvalues --    0.01392   0.02400   0.05605   0.05605   0.08403
 Alpha virt. eigenvalues --    0.08403   0.08965   0.09712   0.13371   0.18171
 Alpha virt. eigenvalues --    0.18171   0.22111   0.22112   0.24345   0.26696

  Beta  occ. eigenvalues --  -10.55024 -10.55017  -0.78305  -0.73191  -0.48299
  Beta  occ. eigenvalues --   -0.48299  -0.45150  -0.45150  -0.31236
  Beta virt. eigenvalues --    0.01392   0.02400   0.05605   0.05605   0.08403
  Beta virt. eigenvalues --    0.08403   0.08965   0.09712   0.13371   0.18171
  Beta virt. eigenvalues --    0.18171   0.22111   0.22112   0.24345   0.26696

 Mulliken charges and spin densities:
               1          2
     1  C   -0.502798   0.000000
     2  C   -0.502799  -0.000000
     3  H    0.167599  -0.000000
     4  H    0.167600  -0.000000
     5  H    0.167600  -0.000000
     6  H    0.167600  -0.000000
     7  H    0.167599  -0.000000
     8  H    0.167599  -0.000000
 Sum of Mulliken charges =  -0.00000  -0.00000

 Dipole moment (field-independent basis, Debye):
    X=             -0.0000    Y=             -0.0000    Z=             -0.0000  Tot=              0.0000
 Quadrupole moment (field-independent basis, Debye-Ang):
   XX=            -15.5710   YY=            -14.8447   ZZ=            -14.8447
   XY=             -0.0000   XZ=             -0.0001   YZ=             -0.0000

 Normal termination of Gaussian 16 at Tue Nov 19 12:11:29 2024.
