 Gaussian 16, Revision A.03,
 Gaussian 16:  ES64L-G16RevA.03 25-Dec-2016

 ---------------------------------------
 #p UM062X/6-311+G** force int=superfine
 ---------------------------------------

 -------------------
 Title Card Required
 -------------------
 Symbolic Z-matrix:
 Charge =  0 Multiplicity = 1

                         Standard orientation:
 ---------------------------------------------------------------------
 Center     Atomic      Atomic             Coordinates (Angstroms)
 Number     Number       Type             X           Y           Z
 ---------------------------------------------------------------------
      1          7           0        0.000000    0.000000    1.895048
      2          7           0        0.000000    0.000000   -1.895048
 ---------------------------------------------------------------------

 SCF Done:  E(UM062X) =  -108.705941879     A.U. after    9 cycles

 The electronic state is 1-SGG.
 Alpha  occ. eigenvalues --  -14.95939 -14.95937  -0.86998  -0.86502  -0.32627
 Alpha  occ. eigenvalues --   -0.31953  -0.31953
 Alpha virt. eigenvalues --   -0.24326  -0.24326  -0.23400   0.06765   0.09221
 Alpha virt. eigenvalues --    0.10967   0.10967   0.14193   0.14602   0.14602
 Alpha virt. eigenvalues --    0.21479   0.77474   0.77474   0.78441   0.78441

  Beta  occ. eigenvalues --  -14.95939 -14.95937  -0.86998  -0.86502  -0.32627
  Beta  occ. eigenvalues --   -0.31953  -0.31953
  Beta virt. eigenvalues --   -0.24326  -0.24326  -0.23400   0.06765   0.09221
  Beta virt. eigenvalues --    0.10967   0.10967   0.14193   0.14602   0.14602
  Beta virt. eigenvalues --    0.21479   0.77474   0.77474   0.78441   0.78441

 Mulliken charges and spin densities:
               1          2
     1  N    0.000000  -0.000000
     2  N    0.000000  -0.000000
 Sum of Mulliken charges =   0.00000  -0.00000

 Dipole moment (field-independent basis, Debye):
    X=              0.0000    Y=              0.0000    Z=              0.0000  Tot=              0.0000
 Quadrupole moment (field-independent basis, Debye-Ang):
   XX=            -12.4336   YY=            -12.4336   ZZ=            -10.9431
   XY=             -0.0000   XZ=             -0.0000   YZ=              0.0000

 Optimization completed.
    -- Stationary point found.
 Normal termination of Gaussian 16 at Wed Feb 26 14:03:37 2025.
