 Gaussian 16, Revision A.03,
 Gaussian 16:  ES64L-G16RevA.03 25-Dec-2016

 --------------------------------------------
 #p opt UM062X/6-311+G** nosymm int=superfine
 --------------------------------------------

 -------------------
 Title Card Required
 -------------------
 Symbolic Z-matrix:
 Charge =  0 Multiplicity = 2

 SCF Done:  E(UM062X) =  -75.7263591165     A.U. after   12 cycles
 SCF Done:  E(UM062X) =  -75.7265267138     A.U. after    9 cycles
 SCF Done:  E(UM062X) =  -75.7265269126     A.U. after    7 cycles
 Optimization completed.
    -- Stationary point found.

                          Input orientation:
 ---------------------------------------------------------------------
 Center     Atomic      Atomic             Coordinates (Angstroms)
 Number     Number       Type             X           Y           Z
 ---------------------------------------------------------------------
      1          8           0        0.705049    0.006298    0.000000
      2          1           0        1.019544   -0.913469    0.000000
 ---------------------------------------------------------------------

 Alpha  occ. eigenvalues --  -19.69505  -1.14848  -0.56780  -0.50632  -0.44205
 Alpha virt. eigenvalues --    0.06783   0.16661   0.17066   0.17221   0.20932
 Alpha virt. eigenvalues --    0.50035   1.00021   1.00528   1.04205   1.26669
 Alpha virt. eigenvalues --    1.35628   1.36991   2.01640   2.44802   2.81795

  Beta  occ. eigenvalues --  -19.67891  -1.06513  -0.53494  -0.40514
  Beta virt. eigenvalues --   -0.10728   0.06835   0.16790   0.17673   0.17815
  Beta virt. eigenvalues --    0.20101   0.51080   1.01251   1.05288   1.05477
  Beta virt. eigenvalues --    1.29199   1.37045   1.37479   2.03273   2.44824

 Mulliken charges and spin densities:
               1          2
     1  O   -0.251757   1.025539
     2  H    0.251757  -0.025539
 Sum of Mulliken charges =  -0.00000   1.00000

 Dipole moment (field-independent basis, Debye):
    X=              0.6004    Y=             -1.7560    Z=              0.0000  Tot=              1.8558
 Quadrupole moment (field-independent basis, Debye-Ang):
   XX=             -4.5451   YY=             -4.4715   ZZ=             -6.8603
   XY=             -1.5992   XZ=              0.0001   YZ=              0.0000

 1\1\GINC-NODE02\FOpt\UM062X\6-311+G(d,p)\H1O1(2)\SZHAO\16-Apr-2025\0\\
 #p opt UM062X/6-311+G** nosymm int=superfine\\Title Card Required\\0,2
 \O,0.7050490405,0.0062984968,0.\H,1.0195442295,-0.9134687068,0.\\Versi
 on=ES64L-G16RevA.03\HF=-75.7265269\S2=0.752707\S2-1=0.\S2A=0.750005\RM
 SD=4.021e-09\RMSF=7.394e-07\Dipole=0.2362266,-0.6908645,0.\Quadrupole=
 0.5554973,0.6102566,-1.1657539,-1.1889635,0.00006,0.0000205\PG=C*V [C*
 (H1O1)]\\@

 Normal termination of Gaussian 16 at Wed Apr 16 08:32:32 2025.
