 Gaussian 16, Revision A.03,
 Gaussian 16:  ES64L-G16RevA.03 25-Dec-2016

 --------------------------------------------
 #p opt UM062X/6-311+G** nosymm int=superfine
 --------------------------------------------

 -------------------
 Title Card Required
 -------------------
 Symbolic Z-matrix:
 Charge =  0 Multiplicity = 1

 SCF Done:  E(UM062X) =  -77.2596073589     A.U. after    9 cycles
 SCF Done:  E(UM062X) =  -77.2792246385     A.U. after    9 cycles
 SCF Done:  E(UM062X) =  -77.2792909464     A.U. after    7 cycles
 Optimization completed.
    -- Stationary point found.

                          Input orientation:
 ---------------------------------------------------------------------
 Center     Atomic      Atomic             Coordinates (Angstroms)
 Number     Number       Type             X           Y           Z
 ---------------------------------------------------------------------
      1          6           0       -0.538664    0.000000    0.000000
      2          6           0        0.538664    0.000000    0.000000
      3          1           0       -1.600795    0.000000    0.000000
      4          1           0        1.600795   -0.000000   -0.000000
 ---------------------------------------------------------------------

 Alpha  occ. eigenvalues --  -10.51362 -10.50650  -0.87872  -0.62992  -0.56781
 Alpha  occ. eigenvalues --   -0.38101  -0.38101
 Alpha virt. eigenvalues --    0.02734   0.03147   0.06329   0.06329   0.07379
 Alpha virt. eigenvalues --    0.07379   0.09360   0.16491   0.17569   0.17569
 Alpha virt. eigenvalues --    0.21064   0.24777   0.43408   0.44251   0.55355

  Beta  occ. eigenvalues --  -10.51362 -10.50650  -0.87872  -0.62992  -0.56781
  Beta  occ. eigenvalues --   -0.38101  -0.38101
  Beta virt. eigenvalues --    0.02734   0.03147   0.06329   0.06329   0.07379
  Beta virt. eigenvalues --    0.07379   0.09360   0.16491   0.17569   0.17569
  Beta virt. eigenvalues --    0.21064   0.24777   0.43408   0.44251   0.55355

 Mulliken charges and spin densities:
               1          2
     1  C   -0.150230   0.000000
     2  C   -0.150229  -0.000000
     3  H    0.150230   0.000000
     4  H    0.150229  -0.000000
 Sum of Mulliken charges =  -0.00000  -0.00000

 Dipole moment (field-independent basis, Debye):
    X=              0.0000    Y=              0.0000    Z=              0.0000  Tot=              0.0000
 Quadrupole moment (field-independent basis, Debye-Ang):
   XX=             -7.2616   YY=            -13.1841   ZZ=            -13.1841
   XY=             -0.0000   XZ=             -0.0000   YZ=             -0.0000

 Normal termination of Gaussian 16 at Tue Dec  3 20:01:03 2024.
