 Gaussian 16, Revision A.03,
 Gaussian 16:  ES64L-G16RevA.03 25-Dec-2016

 --------------------------------------------
 #p opt UM062X/6-311+G** nosymm int=superfine
 --------------------------------------------

 -------------------
 Title Card Required
 -------------------
 Symbolic Z-matrix:
 Charge =  0 Multiplicity = 1

 SCF Done:  E(UM062X) =  -94.2494955324     A.U. after   12 cycles
 SCF Done:  E(UM062X) =  -94.2531047986     A.U. after   11 cycles
 SCF Done:  E(UM062X) =  -94.2543542868     A.U. after   11 cycles
 SCF Done:  E(UM062X) =  -94.2544465839     A.U. after    9 cycles
 SCF Done:  E(UM062X) =  -94.2548370192     A.U. after   17 cycles
 SCF Done:  E(UM062X) =  -94.2557526772     A.U. after   18 cycles
 SCF Done:  E(UM062X) =  -94.2566861134     A.U. after   23 cycles
 SCF Done:  E(UM062X) =  -94.2309192879     A.U. after   14 cycles
 SCF Done:  E(UM062X) =  -94.2567955849     A.U. after   21 cycles
 SCF Done:  E(UM062X) =  -94.2573365563     A.U. after   18 cycles
 SCF Done:  E(UM062X) =  -94.2573743266     A.U. after   15 cycles
 SCF Done:  E(UM062X) =  -94.2575571511     A.U. after   13 cycles
 SCF Done:  E(UM062X) =  -94.2576024647     A.U. after   16 cycles
 SCF Done:  E(UM062X) =  -94.2576207359     A.U. after   20 cycles
 SCF Done:  E(UM062X) =  -94.2579997586     A.U. after   25 cycles
 SCF Done:  E(UM062X) =  -94.2580300700     A.U. after   57 cycles
 SCF Done:  E(UM062X) =  -94.2580513898     A.U. after   22 cycles
 SCF Done:  E(UM062X) =  -94.2580531463     A.U. after   51 cycles
 Optimization completed.
    -- Stationary point found.

                          Input orientation:
 ---------------------------------------------------------------------
 Center     Atomic      Atomic             Coordinates (Angstroms)
 Number     Number       Type             X           Y           Z
 ---------------------------------------------------------------------
      1          6           0       -2.081637   -0.000000    0.000000
      2          7           0        2.081637    0.000000   -0.000000
      3          1           0       -2.773618   -0.864287    0.025904
      4          1           0        1.041059   -0.000138    0.000007
      5          1           0       -2.775105    0.863064   -0.026726
 ---------------------------------------------------------------------

 Alpha  occ. eigenvalues --  -14.81818 -10.62438  -0.88188  -0.77167  -0.49210
 Alpha  occ. eigenvalues --   -0.45058  -0.33222  -0.32656
 Alpha virt. eigenvalues --   -0.11561  -0.09741   0.01266   0.05353   0.05972
 Alpha virt. eigenvalues --    0.07420   0.13469   0.13572   0.15284   0.16910
 Alpha virt. eigenvalues --    0.17879   0.18118   0.20900   0.43227   0.47725

  Beta  occ. eigenvalues --  -14.81818 -10.62438  -0.88188  -0.77167  -0.49210
  Beta  occ. eigenvalues --   -0.45058  -0.33222  -0.32656
  Beta virt. eigenvalues --   -0.11561  -0.09741   0.01266   0.05353   0.05972
  Beta virt. eigenvalues --    0.07420   0.13469   0.13572   0.15284   0.16910
  Beta virt. eigenvalues --    0.17879   0.18118   0.20900   0.43227   0.47725

 Mulliken charges and spin densities:
               1          2
     1  C   -0.289679  -0.000000
     2  N   -0.237549   0.000000
     3  H    0.140384   0.000000
     4  H    0.246435  -0.000000
     5  H    0.140410   0.000000
 Sum of Mulliken charges =  -0.00000   0.00000

 Dipole moment (field-independent basis, Debye):
    X=             -4.0826    Y=             -0.0020    Z=             -0.0012  Tot=              4.0826
 Quadrupole moment (field-independent basis, Debye-Ang):
   XX=            -13.3598   YY=            -12.2649   ZZ=            -14.8701
   XY=              0.0014   XZ=              0.0011   YZ=             -0.0703

 Normal termination of Gaussian 16 at Mon Apr 21 18:35:05 2025.
