 Gaussian 16, Revision A.03,
 Gaussian 16:  ES64L-G16RevA.03 25-Dec-2016

 ---------------------------------------------------
 #p UM062X/6-311+G** force int=superfine pop=saveNBO
 ---------------------------------------------------

 -------------------
 Title Card Required
 -------------------
 Symbolic Z-matrix:
 Charge =  0 Multiplicity = 1

                         Standard orientation:
 ---------------------------------------------------------------------
 Center     Atomic      Atomic             Coordinates (Angstroms)
 Number     Number       Type             X           Y           Z
 ---------------------------------------------------------------------
      1          6           0        0.000000    0.000000   -1.148067
      2         16           0        0.000000    0.000000    0.430525
 ---------------------------------------------------------------------

 SCF Done:  E(UM062X) =  -436.196446578     A.U. after   11 cycles

 The electronic state is 1-SG.
 Alpha  occ. eigenvalues --  -89.94898 -10.65905  -8.31654  -6.23473  -6.23439
 Alpha  occ. eigenvalues --   -6.23439  -0.92045  -0.59788  -0.40730  -0.40730
 Alpha  occ. eigenvalues --   -0.38113
 Alpha virt. eigenvalues --   -0.05452  -0.05452   0.02946   0.03536   0.04917
 Alpha virt. eigenvalues --    0.04917   0.09240   0.11086   0.11086   0.16439
 Alpha virt. eigenvalues --    0.17651   0.33608   0.33608   0.38958   0.52512

  Beta  occ. eigenvalues --  -89.94898 -10.65905  -8.31654  -6.23473  -6.23439
  Beta  occ. eigenvalues --   -6.23439  -0.92045  -0.59788  -0.40730  -0.40730
  Beta  occ. eigenvalues --   -0.38113
  Beta virt. eigenvalues --   -0.05452  -0.05452   0.02946   0.03536   0.04917
  Beta virt. eigenvalues --    0.04917   0.09240   0.11086   0.11086   0.16439
  Beta virt. eigenvalues --    0.17651   0.33608   0.33608   0.38958   0.52512

 Mulliken charges and spin densities:
               1          2
     1  C   -0.157655   0.000000
     2  S    0.157655  -0.000000
 Sum of Mulliken charges =   0.00000   0.00000

 Dipole moment (field-independent basis, Debye):
    X=              0.0000    Y=              0.0000    Z=              1.6186  Tot=              1.6186
 Quadrupole moment (field-independent basis, Debye-Ang):
   XX=            -18.4915   YY=            -18.4915   ZZ=            -20.8506
   XY=              0.0000   XZ=              0.0000   YZ=              0.0000

 Summary of Natural Population Analysis:

                                       Natural Population
                Natural  -----------------------------------------------
    Atom  No    Charge         Core      Valence    Rydberg      Total
 -----------------------------------------------------------------------
      C    1   -0.06406      0.99990     2.04509    0.01907     3.06406
      S    2    0.06406      4.99956     2.91326    0.02312     7.93594
 =======================================================================
   * Total *   -0.00000      5.99946     4.95835    0.04220    11.00000

 Normal termination of Gaussian 16 at Mon Apr 21 19:45:06 2025.
