 Gaussian 16, Revision A.03,
 Gaussian 16:  ES64L-G16RevA.03 25-Dec-2016

 ---------------------------------------------------------------------
 #p opt UM062X/6-311+G** nosymm int=superfine SCF=(Tight,MaxCycle=200)
 ---------------------------------------------------------------------

 -------------------
 Title Card Required
 -------------------
 Symbolic Z-matrix:
 Charge =  1 Multiplicity = 2

 SCF Done:  E(UM062X) =  -1615.56658075     A.U. after   21 cycles
 SCF Done:  E(UM062X) =  -1615.57090697     A.U. after   20 cycles
 SCF Done:  E(UM062X) =  -1615.55552305     A.U. after   22 cycles
 SCF Done:  E(UM062X) =  -1615.57258616     A.U. after   21 cycles
 SCF Done:  E(UM062X) =  -1615.56422304     A.U. after   22 cycles
 SCF Done:  E(UM062X) =  -1615.56630046     A.U. after   21 cycles
 SCF Done:  E(UM062X) =  -1615.57334762     A.U. after   18 cycles
 SCF Done:  E(UM062X) =  -1615.57394846     A.U. after   20 cycles
 SCF Done:  E(UM062X) =  -1615.57434982     A.U. after   19 cycles
 SCF Done:  E(UM062X) =  -1615.57443863     A.U. after   17 cycles
 SCF Done:  E(UM062X) =  -1615.57444959     A.U. after   15 cycles
 SCF Done:  E(UM062X) =  -1615.57445172     A.U. after   14 cycles
 SCF Done:  E(UM062X) =  -1615.57445222     A.U. after   13 cycles
 SCF Done:  E(UM062X) =  -1615.57445245     A.U. after   12 cycles
 Optimization completed.
    -- Stationary point found.

                          Input orientation:
 ---------------------------------------------------------------------
 Center     Atomic      Atomic             Coordinates (Angstroms)
 Number     Number       Type             X           Y           Z
 ---------------------------------------------------------------------
      1          6           0       -1.184166   -0.000000   -0.000000
      2          6           0        1.184166    0.000000   -0.000000
      3          6           0        0.000012   -2.161787    0.001065
      4          6           0        0.000015   -3.535516    0.001726
      5          6           0       -1.129488   -4.325447    0.289468
      6          6           0       -1.204132   -1.480789    0.270655
      7          6           0        0.657287   -5.722135   -0.166129
      8          1           0        1.266460   -6.600360   -0.325730
      9          6           0       -1.460295    0.848001    1.153763
     10          6           0       -0.657340   -5.721977    0.171255
     11          1           0       -1.266547   -6.600055    0.331541
     12          6           0        1.129490   -4.325716   -0.285424
     13          6           0        1.204177   -1.481060   -0.269158
     14          6           0        1.662798    2.261065   -1.152488
     15          6           0       -1.462342    0.294147   -1.410799
     16          6           0       -1.881656    2.929024    2.373904
     17          1           0       -2.041718    4.000572    2.346716
     18          6           0       -2.297686   -3.660706    0.593660
     19          1           0       -3.212750   -4.191726    0.830327
     20          6           0       -1.554094    1.592028   -2.001939
     21          6           0        2.324307   -2.231402   -0.570669
     22          1           0        3.266829   -1.728879   -0.761551
     23          6           0        1.462019    0.295641    1.410538
     24          6           0        1.553692    1.594174    2.000287
     25          6           0        2.297678   -3.661269   -0.590273
     26          1           0        3.212705   -4.192516   -0.826573
     27          6           0       -1.662239    2.262434    1.149997
     28          6           0       -1.458806    0.213122    2.425125
     29          1           0       -1.275222   -0.848659    2.481861
     30          6           0        1.601414   -0.803990    2.305016
     31          1           0        1.575898   -1.813851    1.926912
     32          6           0       -1.899356    2.270962    3.582820
     33          1           0       -2.075218    2.817163    4.501538
     34          6           0       -2.324283   -2.230864    0.572806
     35          1           0       -3.266812   -1.728160    0.763177
     36          6           0       -1.713677    1.710719   -3.399313
     37          1           0       -1.761517    2.708144   -3.820492
     38          6           0        1.460380    0.846699   -1.154682
     39          6           0       -1.616637    3.132459    0.004771
     40          1           0       -1.663931    4.188075    0.254016
     41          6           0       -1.838660    0.618724   -4.225994
     42          1           0       -1.979530    0.749411   -5.291938
     43          6           0       -1.540359    2.852904   -1.310289
     44          1           0       -1.530151    3.715857   -1.969160
     45          6           0        1.712683    1.714377    3.397598
     46          1           0        1.760374    2.712255    3.817718
     47          6           0       -1.674953    0.891431    3.603213
     48          1           0       -1.660260    0.350527    4.541589
     49          6           0       -1.601682   -0.806462   -2.304077
     50          1           0       -1.575755   -1.815919   -1.924918
     51          6           0        1.837451    0.623278    4.225500
     52          1           0        1.977897    0.755126    5.291357
     53          6           0        1.882007    2.926267   -2.377195
     54          1           0        2.042448    3.997788   -2.351220
     55          6           0        1.797124   -0.652723    3.660025
     56          1           0        1.916617   -1.532740    4.280069
     57          6           0        1.899022    2.266913   -3.585416
     58          1           0        2.074653    2.812094   -4.504783
     59          6           0        1.617917    3.132315   -0.008177
     60          1           0        1.666185    4.187626   -0.258524
     61          6           0       -1.797800   -0.656674   -3.659190
     62          1           0       -1.917195   -1.537375   -4.278279
     63          6           0        1.541083    2.854258    1.307176
     64          1           0        1.531484    3.717969    1.965064
     65          6           0        1.458413    0.210428   -2.425348
     66          1           0        1.274615   -0.851385   -2.480864
     67          6           0        1.674293    0.887407   -3.604246
     68          1           0        1.659140    0.345485   -4.542027
 ---------------------------------------------------------------------

 Alpha  occ. eigenvalues --  -10.71646 -10.71643 -10.68644 -10.68644 -10.68560
 Alpha  occ. eigenvalues --  -10.68560 -10.68322 -10.68322 -10.68006 -10.68006
 Alpha  occ. eigenvalues --  -10.66871 -10.66871 -10.66631 -10.66630 -10.66514
 Alpha  occ. eigenvalues --  -10.66514 -10.66048 -10.66048 -10.65935 -10.65935
 Alpha  occ. eigenvalues --  -10.65753 -10.65753 -10.65726 -10.65726 -10.65706
 Alpha  occ. eigenvalues --  -10.65705 -10.65634 -10.65634 -10.65629 -10.65629
 Alpha  occ. eigenvalues --  -10.65581 -10.65581 -10.65535 -10.65535 -10.65280
 Alpha  occ. eigenvalues --  -10.65263 -10.65263 -10.65048 -10.65047 -10.64113
 Alpha  occ. eigenvalues --  -10.64016 -10.63074  -1.12800  -1.10362  -1.10003
 Alpha  occ. eigenvalues --   -1.08491  -1.07801  -1.06016  -1.04643  -1.02632
 Alpha  occ. eigenvalues --   -1.02151  -1.00656  -1.00613  -0.97926  -0.97657
 Alpha  occ. eigenvalues --   -0.96946  -0.96241  -0.95042  -0.93462  -0.93451
 Alpha  occ. eigenvalues --   -0.92784  -0.91949  -0.87664  -0.87307  -0.84965
 Alpha  occ. eigenvalues --   -0.84713  -0.83025  -0.81520  -0.81326  -0.79880
 Alpha  occ. eigenvalues --   -0.79757  -0.79522  -0.77654  -0.76427  -0.76199
 Alpha  occ. eigenvalues --   -0.75648  -0.75446  -0.73768  -0.70216  -0.69812
 Alpha  occ. eigenvalues --   -0.69147  -0.68450  -0.67740  -0.67587  -0.66990
 Alpha  occ. eigenvalues --   -0.66809  -0.65622  -0.65340  -0.65070  -0.64882
 Alpha  occ. eigenvalues --   -0.63438  -0.63044  -0.62299  -0.62225  -0.61353
 Alpha  occ. eigenvalues --   -0.61179  -0.60737  -0.60406  -0.60133  -0.60043
 Alpha  occ. eigenvalues --   -0.59602  -0.58920  -0.58729  -0.58143  -0.57838
 Alpha  occ. eigenvalues --   -0.57583  -0.56543  -0.55762  -0.55710  -0.55651
 Alpha  occ. eigenvalues --   -0.54993  -0.54219  -0.53342  -0.52845  -0.52708
 Alpha  occ. eigenvalues --   -0.52551  -0.52289  -0.52180  -0.51388  -0.51020
 Alpha  occ. eigenvalues --   -0.50940  -0.50939  -0.50519  -0.49430  -0.49055
 Alpha  occ. eigenvalues --   -0.48937  -0.48551  -0.47967  -0.44502  -0.44088
 Alpha  occ. eigenvalues --   -0.43922  -0.43024  -0.40613  -0.40354  -0.39305
 Alpha  occ. eigenvalues --   -0.38076  -0.37735  -0.37249  -0.33403
 Alpha virt. eigenvalues --   -0.18398  -0.15585  -0.15495  -0.14615  -0.10409
 Alpha virt. eigenvalues --   -0.09917  -0.08788  -0.08594  -0.08332  -0.07603
 Alpha virt. eigenvalues --   -0.07597  -0.07484  -0.06626  -0.06381  -0.06291

  Beta  occ. eigenvalues --  -10.71528 -10.71528 -10.68649 -10.68649 -10.68578
  Beta  occ. eigenvalues --  -10.68578 -10.68280 -10.68280 -10.67971 -10.67970
  Beta  occ. eigenvalues --  -10.66882 -10.66882 -10.66616 -10.66616 -10.66495
  Beta  occ. eigenvalues --  -10.66494 -10.66018 -10.66017 -10.65937 -10.65936
  Beta  occ. eigenvalues --  -10.65767 -10.65767 -10.65716 -10.65716 -10.65691
  Beta  occ. eigenvalues --  -10.65691 -10.65624 -10.65624 -10.65623 -10.65622
  Beta  occ. eigenvalues --  -10.65568 -10.65567 -10.65537 -10.65536 -10.65269
  Beta  occ. eigenvalues --  -10.65269 -10.65261 -10.65043 -10.65043 -10.64113
  Beta  occ. eigenvalues --  -10.64016 -10.63074  -1.12641  -1.10261  -1.09841
  Beta  occ. eigenvalues --   -1.08362  -1.07685  -1.05865  -1.04533  -1.02485
  Beta  occ. eigenvalues --   -1.02019  -1.00499  -1.00458  -0.97820  -0.97560
  Beta  occ. eigenvalues --   -0.96811  -0.96128  -0.94991  -0.93387  -0.93357
  Beta  occ. eigenvalues --   -0.92666  -0.91844  -0.87334  -0.87030  -0.84881
  Beta  occ. eigenvalues --   -0.84639  -0.82949  -0.81393  -0.81244  -0.79785
  Beta  occ. eigenvalues --   -0.79684  -0.79450  -0.77527  -0.76251  -0.76037
  Beta  occ. eigenvalues --   -0.75479  -0.75409  -0.73639  -0.70104  -0.69662
  Beta  occ. eigenvalues --   -0.69021  -0.68350  -0.67657  -0.67522  -0.66864
  Beta  occ. eigenvalues --   -0.66709  -0.65537  -0.65206  -0.64939  -0.64761
  Beta  occ. eigenvalues --   -0.63150  -0.63002  -0.62205  -0.62139  -0.61056
  Beta  occ. eigenvalues --   -0.61012  -0.60583  -0.60272  -0.60078  -0.59982
  Beta  occ. eigenvalues --   -0.59474  -0.58759  -0.58647  -0.58048  -0.57551
  Beta  occ. eigenvalues --   -0.57364  -0.56399  -0.55637  -0.55576  -0.55322
  Beta  occ. eigenvalues --   -0.54977  -0.53823  -0.53155  -0.52749  -0.52612
  Beta  occ. eigenvalues --   -0.52502  -0.52188  -0.52066  -0.51001  -0.50948
  Beta  occ. eigenvalues --   -0.50829  -0.50462  -0.49843  -0.49130  -0.48985
  Beta  occ. eigenvalues --   -0.48793  -0.48484  -0.47560  -0.43907  -0.43675
  Beta  occ. eigenvalues --   -0.43216  -0.42674  -0.40293  -0.40154  -0.38679
  Beta  occ. eigenvalues --   -0.37806  -0.37401  -0.37007
  Beta virt. eigenvalues --   -0.23630  -0.16792  -0.15519  -0.15152  -0.14598
  Beta virt. eigenvalues --   -0.10230  -0.09520  -0.08424  -0.08420  -0.08295
  Beta virt. eigenvalues --   -0.07579  -0.07550  -0.07299  -0.06606  -0.06354

 Mulliken charges and spin densities:
               1          2
     1  C   -0.012081   0.195412
     2  C   -0.012672   0.195303
     3  C    0.178234   0.004469
     4  C    0.111652  -0.001359
     5  C    0.109480   0.006080
     6  C    0.079524  -0.015581
     7  C   -0.303190   0.001577
     8  H    0.176403  -0.000075
     9  C    0.242881   0.008417
    10  C   -0.303252   0.001586
    11  H    0.176403  -0.000076
    12  C    0.109423   0.006089
    13  C    0.079780  -0.015598
    14  C    0.211479   0.062679
    15  C    0.291759  -0.008234
    16  C   -0.217295  -0.028189
    17  H    0.163928   0.000827
    18  C   -0.458479  -0.001489
    19  H    0.175572   0.000489
    20  C    0.201619   0.088968
    21  C   -0.148583   0.017539
    22  H    0.174743  -0.000560
    23  C    0.291531  -0.008210
    24  C    0.202343   0.088953
    25  C   -0.458466  -0.001495
    26  H    0.175575   0.000489
    27  C    0.211179   0.062607
    28  C   -0.116138   0.028114
    29  H    0.201541  -0.001912
    30  C   -0.276192   0.026879
    31  H    0.224296  -0.000849
    32  C   -0.340020   0.051832
    33  H    0.181179  -0.002715
    34  C   -0.148561   0.017537
    35  H    0.174754  -0.000560
    36  C   -0.106020  -0.037995
    37  H    0.164045   0.001147
    38  C    0.242700   0.008387
    39  C   -0.249253   0.066962
    40  H    0.167963  -0.004682
    41  C   -0.242727   0.041758
    42  H    0.179712  -0.001954
    43  C   -0.220134   0.029787
    44  H    0.159725  -0.001892
    45  C   -0.105687  -0.037980
    46  H    0.164032   0.001147
    47  C   -0.143262  -0.002672
    48  H    0.170242  -0.001475
    49  C   -0.276192   0.026905
    50  H    0.224296  -0.000850
    51  C   -0.242785   0.041759
    52  H    0.179706  -0.001954
    53  C   -0.216751  -0.028178
    54  H    0.163931   0.000828
    55  C   -0.262775  -0.020095
    56  H    0.175001   0.000396
    57  C   -0.339498   0.051878
    58  H    0.181177  -0.002717
    59  C   -0.250543   0.066907
    60  H    0.168009  -0.004677
    61  C   -0.262249  -0.020090
    62  H    0.174996   0.000396
    63  C   -0.220808   0.029837
    64  H    0.159761  -0.001894
    65  C   -0.115849   0.028114
    66  H    0.201558  -0.001912
    67  C   -0.142905  -0.002663
    68  H    0.170234  -0.001475
 Sum of Mulliken charges =   1.00000   1.00000

 Dipole moment (field-independent basis, Debye):
    X=              0.0001    Y=              2.4805    Z=             -0.0019  Tot=              2.4805
 Quadrupole moment (field-independent basis, Debye-Ang):
   XX=           -222.4278   YY=           -174.9099   ZZ=           -176.5779
   XY=              0.0045   XZ=             -1.8460   YZ=              0.0023

 Normal termination of Gaussian 16 at Fri Mar 21 12:15:55 2025.
