 Gaussian 16, Revision A.03,
 Gaussian 16:  ES64L-G16RevA.03 25-Dec-2016

 ---------------------------------------------------
 #p UM062X/6-311+G** force int=superfine pop=saveNBO
 ---------------------------------------------------

 -------------------
 Title Card Required
 -------------------
 Symbolic Z-matrix:
 Charge =  0 Multiplicity = 1

                         Standard orientation:
 ---------------------------------------------------------------------
 Center     Atomic      Atomic             Coordinates (Angstroms)
 Number     Number       Type             X           Y           Z
 ---------------------------------------------------------------------
      1         15           0        0.000000    0.000000    1.463495
      2         15           0        0.000000    0.000000   -1.463495
 ---------------------------------------------------------------------

 SCF Done:  E(UM062X) =  -682.436473488     A.U. after   11 cycles

 The electronic state is 1-SGG.
 Alpha  occ. eigenvalues --  -78.11671 -78.11671  -6.93204  -6.93201  -5.04528
 Alpha  occ. eigenvalues --   -5.04528  -5.04528  -5.04528  -5.04462  -5.04460
 Alpha  occ. eigenvalues --   -0.66400  -0.61069  -0.31097  -0.27339  -0.27339
 Alpha virt. eigenvalues --   -0.14838  -0.14838  -0.08928   0.02453   0.03482
 Alpha virt. eigenvalues --    0.04591   0.04591   0.06088   0.06615   0.06615
 Alpha virt. eigenvalues --    0.11657   0.28875   0.30173   0.30173   0.33149

  Beta  occ. eigenvalues --  -78.11671 -78.11671  -6.93204  -6.93201  -5.04528
  Beta  occ. eigenvalues --   -5.04528  -5.04528  -5.04528  -5.04462  -5.04460
  Beta  occ. eigenvalues --   -0.66400  -0.61069  -0.31097  -0.27339  -0.27339
  Beta virt. eigenvalues --   -0.14838  -0.14838  -0.08928   0.02453   0.03482
  Beta virt. eigenvalues --    0.04591   0.04591   0.06088   0.06615   0.06615
  Beta virt. eigenvalues --    0.11657   0.28875   0.30173   0.30173   0.33149

 Mulliken charges and spin densities:
               1          2
     1  P   -0.000000  -0.000000
     2  P   -0.000000  -0.000000
 Sum of Mulliken charges =  -0.00000  -0.00000

 Dipole moment (field-independent basis, Debye):
    X=              0.0000    Y=             -0.0000    Z=             -0.0000  Tot=              0.0000
 Quadrupole moment (field-independent basis, Debye-Ang):
   XX=            -29.0647   YY=            -29.0647   ZZ=            -24.9144
   XY=              0.0000   XZ=             -0.0000   YZ=              0.0000

 Summary of Natural Population Analysis:

                                       Natural Population
                Natural  -----------------------------------------------
    Atom  No    Charge         Core      Valence    Rydberg      Total
 -----------------------------------------------------------------------
      P    1   -0.00000      4.99998     2.49843    0.00159     7.50000
      P    2   -0.00000      4.99998     2.49843    0.00159     7.50000
 =======================================================================
   * Total *   -0.00000      9.99996     4.99687    0.00318    15.00000

 Normal termination of Gaussian 16 at Mon Apr 21 21:20:58 2025.
