 Gaussian 16, Revision A.03,
 Gaussian 16:  ES64L-G16RevA.03 25-Dec-2016

 --------------------------------------------
 #p opt UM062X/6-311+G** nosymm int=superfine
 --------------------------------------------

 -------------------
 Title Card Required
 -------------------
 Symbolic Z-matrix:
 Charge =  0 Multiplicity = 1

 SCF Done:  E(UM062X) =  -151.463671849     A.U. after   14 cycles
 SCF Done:  E(UM062X) =  -151.469101346     A.U. after   15 cycles
 SCF Done:  E(UM062X) =  -151.469878045     A.U. after   15 cycles
 SCF Done:  E(UM062X) =  -151.469917955     A.U. after   12 cycles
 SCF Done:  E(UM062X) =  -151.469919445     A.U. after   11 cycles
 SCF Done:  E(UM062X) =  -151.469920164     A.U. after   11 cycles
 SCF Done:  E(UM062X) =  -151.469920212     A.U. after   10 cycles
 Optimization completed.
    -- Stationary point found.

                          Input orientation:
 ---------------------------------------------------------------------
 Center     Atomic      Atomic             Coordinates (Angstroms)
 Number     Number       Type             X           Y           Z
 ---------------------------------------------------------------------
      1          8           0       -0.961938    0.000000    0.000000
      2          8           0        0.961938    0.000000    0.000000
      3          1           0       -0.950024   -0.881356   -0.405166
      4          1           0        0.950030    0.668101    0.703270
 ---------------------------------------------------------------------

 Alpha  occ. eigenvalues --  -19.71778 -19.71772  -1.16472  -1.08683  -0.58249
 Alpha  occ. eigenvalues --   -0.54837  -0.46208  -0.45470  -0.40818
 Alpha virt. eigenvalues --   -0.12837   0.05630   0.10028   0.14939   0.16384
 Alpha virt. eigenvalues --    0.17617   0.19980   0.21793   0.23046   0.25577
 Alpha virt. eigenvalues --    0.33791   0.49273   0.53702   0.94872   0.99312

  Beta  occ. eigenvalues --  -19.71778 -19.71772  -1.16472  -1.08683  -0.58249
  Beta  occ. eigenvalues --   -0.54837  -0.46208  -0.45470  -0.40818
  Beta virt. eigenvalues --   -0.12837   0.05630   0.10028   0.14939   0.16384
  Beta virt. eigenvalues --    0.17617   0.19980   0.21793   0.23046   0.25577
  Beta virt. eigenvalues --    0.33791   0.49273   0.53702   0.94872   0.99312

 Mulliken charges and spin densities:
               1          2
     1  O   -0.272756   0.000000
     2  O   -0.272758  -0.000000
     3  H    0.272757  -0.000000
     4  H    0.272757   0.000000
 Sum of Mulliken charges =  -0.00000  -0.00000

 Dipole moment (field-independent basis, Debye):
    X=              0.0000    Y=             -0.4021    Z=              0.5621  Tot=              0.6911
 Quadrupole moment (field-independent basis, Debye-Ang):
   XX=            -11.7801   YY=            -10.1426   ZZ=            -11.7048
   XY=              3.1099   XZ=              2.2248   YZ=              2.2889

 Normal termination of Gaussian 16 at Mon Apr 21 21:34:29 2025.
