 Gaussian 16, Revision A.03,
 Gaussian 16:  ES64L-G16RevA.03 25-Dec-2016

 -------------------------------------------------------------------
 #p opt UM062X/6-311+G** nosymm int=superfine SCF=NoVarAcc SCF=tight
 -------------------------------------------------------------------

 -------------------
 Title Card Required
 -------------------
 Symbolic Z-matrix:
 Charge =  1 Multiplicity = 2

 SCF Done:  E(UM062X) =  -79.3139436313     A.U. after   14 cycles
 SCF Done:  E(UM062X) =  -79.3140079277     A.U. after    9 cycles
 SCF Done:  E(UM062X) =  -79.3140267496     A.U. after    9 cycles
 SCF Done:  E(UM062X) =  -79.3140368487     A.U. after    9 cycles
 SCF Done:  E(UM062X) =  -79.3140374426     A.U. after    8 cycles
 Optimization completed.
    -- Stationary point found.

                          Input orientation:
 ---------------------------------------------------------------------
 Center     Atomic      Atomic             Coordinates (Angstroms)
 Number     Number       Type             X           Y           Z
 ---------------------------------------------------------------------
      1          6           0       -5.282675    0.000000    0.000000
      2          6           0        5.282675    0.000000    0.000000
      3          1           0        5.285063   -0.936717    0.542443
      4          1           0       -5.285619   -0.937706   -0.540736
      5          1           0        5.287664    0.938131    0.539978
      6          1           0        5.286428   -0.001420   -1.082439
      7          1           0       -5.287236    0.937180   -0.541615
      8          1           0       -5.286227    0.000337    1.082442
 ---------------------------------------------------------------------

 Alpha  occ. eigenvalues --  -10.79273 -10.79273  -0.98040  -0.98031  -0.69283
 Alpha  occ. eigenvalues --   -0.69282  -0.69281  -0.69280  -0.39921
 Alpha virt. eigenvalues --   -0.37190  -0.09012  -0.08963  -0.05461  -0.05460
 Alpha virt. eigenvalues --   -0.05441  -0.05441  -0.03564  -0.03338   0.04013
 Alpha virt. eigenvalues --    0.04015   0.04022   0.04023   0.04049   0.04124

  Beta  occ. eigenvalues --  -10.79031 -10.79031  -0.95368  -0.95368  -0.68709
  Beta  occ. eigenvalues --   -0.68708  -0.68707  -0.68706
  Beta virt. eigenvalues --   -0.24333  -0.24331  -0.09535  -0.09505  -0.05084
  Beta virt. eigenvalues --   -0.05084  -0.05068  -0.05067  -0.01582  -0.01382
  Beta virt. eigenvalues --    0.04311   0.04312   0.04319   0.04321   0.05511

 Mulliken charges and spin densities:
               1          2
     1  C   -0.191929   0.566873
     2  C   -0.191930   0.566874
     3  H    0.230638  -0.022291
     4  H    0.230637  -0.022291
     5  H    0.230649  -0.022291
     6  H    0.230643  -0.022292
     7  H    0.230653  -0.022290
     8  H    0.230640  -0.022292
 Sum of Mulliken charges =   1.00000   1.00000

 Dipole moment (field-independent basis, Debye):
    X=              0.0000    Y=             -0.0001    Z=              0.0000  Tot=              0.0001
 Quadrupole moment (field-independent basis, Debye-Ang):
   XX=            120.7515   YY=            -11.1260   ZZ=            -11.1265
   XY=              0.0013   XZ=             -0.0002   YZ=             -0.0004

 Normal termination of Gaussian 16 at Tue Dec  3 16:13:36 2024.
