 Gaussian 16, Revision A.03,
 Gaussian 16:  ES64L-G16RevA.03 25-Dec-2016

 ---------------------------------------------------
 #p UM062X/6-311+G** force int=superfine pop=saveNBO
 ---------------------------------------------------

 -------------------
 Title Card Required
 -------------------
 Symbolic Z-matrix:
 Charge =  0 Multiplicity = 1

                         Standard orientation:
 ---------------------------------------------------------------------
 Center     Atomic      Atomic             Coordinates (Angstroms)
 Number     Number       Type             X           Y           Z
 ---------------------------------------------------------------------
      1          6           0        0.000000    0.000000   -2.326951
      2          8           0        0.000000    0.000000    1.745213
 ---------------------------------------------------------------------

 SCF Done:  E(UM062X) =  -112.629338163     A.U. after   19 cycles

 The electronic state is 1-SG.
 Alpha  occ. eigenvalues --  -19.69166 -10.82829  -0.99104  -0.72364  -0.37908
 Alpha  occ. eigenvalues --   -0.29803  -0.29803
 Alpha virt. eigenvalues --   -0.22771  -0.22771  -0.18233   0.02259   0.05865
 Alpha virt. eigenvalues --    0.05865   0.07104   0.18352   0.21158   0.21158
 Alpha virt. eigenvalues --    0.24747   0.50943   0.50943   0.51711   0.60997

  Beta  occ. eigenvalues --  -19.69166 -10.82829  -0.99104  -0.72364  -0.37908
  Beta  occ. eigenvalues --   -0.29803  -0.29803
  Beta virt. eigenvalues --   -0.22771  -0.22771  -0.18233   0.02259   0.05865
  Beta virt. eigenvalues --    0.05865   0.07104   0.18352   0.21158   0.21158
  Beta virt. eigenvalues --    0.24747   0.50943   0.50943   0.51711   0.60997

 Mulliken charges and spin densities:
               1          2
     1  C    0.288369  -0.000000
     2  O   -0.288369   0.000000
 Sum of Mulliken charges =  -0.00000  -0.00000

 Dipole moment (field-independent basis, Debye):
    X=              0.0000    Y=              0.0000    Z=             -5.6106  Tot=              5.6106
 Quadrupole moment (field-independent basis, Debye-Ang):
   XX=            -12.3661   YY=            -12.3661   ZZ=             -7.7990
   XY=              0.0000   XZ=              0.0000   YZ=              0.0000

 Summary of Natural Population Analysis:

                                       Natural Population
                Natural  -----------------------------------------------
    Atom  No    Charge         Core      Valence    Rydberg      Total
 -----------------------------------------------------------------------
      C    1    0.14726      1.00000     1.85265    0.00009     2.85274
      O    2   -0.14726      1.00000     3.14650    0.00076     4.14726
 =======================================================================
   * Total *   -0.00000      2.00000     4.99915    0.00085     7.00000

 Normal termination of Gaussian 16 at Mon Apr 21 19:26:25 2025.
