 Gaussian 16, Revision A.03,
 Gaussian 16:  ES64L-G16RevA.03 25-Dec-2016

 --------------------------------------------
 #p opt UM062X/6-311+G** nosymm int=superfine
 --------------------------------------------

 -------------------
 Title Card Required
 -------------------
 Symbolic Z-matrix:
 Charge =  1 Multiplicity = 2

 SCF Done:  E(UM062X) =  -92.6732001486     A.U. after   63 cycles
 SCF Done:  E(UM062X) =  -92.6734336212     A.U. after   43 cycles
 SCF Done:  E(UM062X) =  -92.6734346098     A.U. after    8 cycles
 Optimization completed.
    -- Stationary point found.

                          Input orientation:
 ---------------------------------------------------------------------
 Center     Atomic      Atomic             Coordinates (Angstroms)
 Number     Number       Type             X           Y           Z
 ---------------------------------------------------------------------
      1          6           0       -1.176539    0.000000    0.000000
      2          7           0        1.176539    0.000000    0.000000
      3          1           0       -2.291200    0.000000   -0.000000
 ---------------------------------------------------------------------

 Alpha  occ. eigenvalues --  -15.18376 -11.01214  -1.20278  -0.99405  -0.71988
 Alpha  occ. eigenvalues --   -0.71919  -0.70560
 Alpha virt. eigenvalues --   -0.43354  -0.36779  -0.33068  -0.15355  -0.10509
 Alpha virt. eigenvalues --   -0.09134  -0.08085  -0.04533  -0.02167  -0.01928
 Alpha virt. eigenvalues --    0.02126   0.08767   0.25263   0.30685   0.30740

  Beta  occ. eigenvalues --  -15.14778 -11.03488  -1.08261  -0.99477  -0.76945
  Beta  occ. eigenvalues --   -0.66434
  Beta virt. eigenvalues --   -0.42544  -0.32240  -0.32116  -0.31990  -0.15182
  Beta virt. eigenvalues --   -0.11666  -0.09354  -0.09216  -0.06042  -0.01075
  Beta virt. eigenvalues --   -0.00994   0.00484   0.05129   0.24137   0.29686

 Mulliken charges and spin densities:
               1          2
     1  C    0.265856  -1.511531
     2  N    0.382896   2.587600
     3  H    0.351248  -0.076069
 Sum of Mulliken charges =   1.00000   1.00000

 Dipole moment (field-independent basis, Debye):
    X=             -3.6804    Y=              0.0000    Z=             -0.0000  Tot=              3.6804
 Quadrupole moment (field-independent basis, Debye-Ang):
   XX=              3.3583   YY=            -10.6824   ZZ=             -9.3132
   XY=             -0.0000   XZ=              0.0000   YZ=             -0.4711

 Normal termination of Gaussian 16 at Mon Apr 21 18:35:43 2025.
