 Gaussian 16, Revision A.03,
 Gaussian 16:  ES64L-G16RevA.03 25-Dec-2016

 ---------------------------------------
 #p UM062X/6-311+G** force int=superfine
 ---------------------------------------

 -------------------
 Title Card Required
 -------------------
 Symbolic Z-matrix:
 Charge =  0 Multiplicity = 1

                         Standard orientation:
 ---------------------------------------------------------------------
 Center     Atomic      Atomic             Coordinates (Angstroms)
 Number     Number       Type             X           Y           Z
 ---------------------------------------------------------------------
      1          7           0        0.000000    0.000000    0.870048
      2          7           0        0.000000    0.000000   -0.870048
 ---------------------------------------------------------------------

 SCF Done:  E(UM062X) =  -109.152424585     A.U. after    9 cycles

 The electronic state is 1-SGG.
 Alpha  occ. eigenvalues --  -14.96493 -14.96466  -0.97626  -0.79161  -0.45758
 Alpha  occ. eigenvalues --   -0.40464  -0.40464
 Alpha virt. eigenvalues --   -0.15657  -0.15657  -0.01230   0.07559   0.10905
 Alpha virt. eigenvalues --    0.11454   0.11454   0.15522   0.15881   0.15881
 Alpha virt. eigenvalues --    0.25492   0.75814   0.75814   0.76764   0.82565

  Beta  occ. eigenvalues --  -14.96493 -14.96466  -0.97626  -0.79161  -0.45758
  Beta  occ. eigenvalues --   -0.40464  -0.40464
  Beta virt. eigenvalues --   -0.15657  -0.15657  -0.01230   0.07559   0.10905
  Beta virt. eigenvalues --    0.11454   0.11454   0.15522   0.15881   0.15881
  Beta virt. eigenvalues --    0.25492   0.75814   0.75814   0.76764   0.82565

 Mulliken charges and spin densities:
               1          2
     1  N   -0.000000   0.000000
     2  N   -0.000000   0.000000
 Sum of Mulliken charges =  -0.00000   0.00000

 Dipole moment (field-independent basis, Debye):
    X=              0.0000    Y=              0.0000    Z=              0.0000  Tot=              0.0000
 Quadrupole moment (field-independent basis, Debye-Ang):
   XX=            -11.8533   YY=            -11.8533   ZZ=            -11.5565
   XY=              0.0000   XZ=             -0.0000   YZ=              0.0000

 Optimization completed.
    -- Stationary point found.
 Normal termination of Gaussian 16 at Wed Feb 26 13:45:19 2025.
