 Gaussian 16, Revision A.03,
 Gaussian 16:  ES64L-G16RevA.03 25-Dec-2016

 ----------------------------------------------------------------------
 #p opt UM062X/6-311+G** nosymm int=superfine SCF=(MaxCycle=200,NoVarAc
 c,noincfock) guess=read
 ----------------------------------------------------------------------

 -------------------
 Title Card Required
 -------------------
 Symbolic Z-matrix:
 Charge =  1 Multiplicity = 2

 SCF Done:  E(UM062X) =  -379.297685444     A.U. after   14 cycles
 SCF Done:  E(UM062X) =  -379.298441062     A.U. after   52 cycles
 SCF Done:  E(UM062X) =  -379.298442522     A.U. after   32 cycles
 SCF Done:  E(UM062X) =  -379.298441347     A.U. after   64 cycles
 Optimization completed.
    -- Stationary point found.

                          Input orientation:
 ---------------------------------------------------------------------
 Center     Atomic      Atomic             Coordinates (Angstroms)
 Number     Number       Type             X           Y           Z
 ---------------------------------------------------------------------
      1          6           0       -1.969427    0.000000    0.000000
      2         15           0        1.969427    0.000000    0.000000
      3          1           0       -3.090126    0.002109    0.000099
 ---------------------------------------------------------------------

 Alpha  occ. eigenvalues --  -78.32240 -10.97326  -7.13780  -5.25921  -5.25567
 Alpha  occ. eigenvalues --   -5.24528  -0.99346  -0.85632  -0.65402  -0.51262
 Alpha  occ. eigenvalues --   -0.45695
 Alpha virt. eigenvalues --   -0.38231  -0.34842  -0.33910  -0.13273  -0.09644
 Alpha virt. eigenvalues --   -0.08520  -0.08187  -0.06533  -0.05496  -0.05113
 Alpha virt. eigenvalues --   -0.02470   0.00132   0.16471   0.16903   0.17134

  Beta  occ. eigenvalues --  -78.31487 -10.97284  -7.13552  -5.25354  -5.24387
  Beta  occ. eigenvalues --   -5.23633  -0.99127  -0.80458  -0.65225  -0.44691
  Beta virt. eigenvalues --   -0.37142  -0.34681  -0.32701  -0.28919  -0.13701
  Beta virt. eigenvalues --   -0.10736  -0.08392  -0.08182  -0.06438  -0.05149
  Beta virt. eigenvalues --   -0.04754  -0.02763  -0.00114   0.14449   0.15376

 Mulliken charges and spin densities:
               1          2
     1  C    0.253705   0.051342
     2  P    0.502156   0.950634
     3  H    0.244138  -0.001976
 Sum of Mulliken charges =   1.00000   1.00000

 Dipole moment (field-independent basis, Debye):
    X=             -2.0897    Y=              0.0024    Z=              0.0000  Tot=              2.0897
 Quadrupole moment (field-independent basis, Debye-Ang):
   XX=             13.9052   YY=            -19.8366   ZZ=            -16.7784
   XY=             -0.2383   XZ=             -0.0280   YZ=             -0.3867

 Normal termination of Gaussian 16 at Tue Apr 22 00:09:47 2025.
