 Gaussian 16, Revision A.03,
 Gaussian 16:  ES64L-G16RevA.03 25-Dec-2016

 --------------------------------------------
 #p opt UM062X/6-311+G** nosymm int=superfine
 --------------------------------------------

 -------------------
 Title Card Required
 -------------------
 Symbolic Z-matrix:
 Charge = -1 Multiplicity = 2

 SCF Done:  E(UM062X) =  -50.5614579546     A.U. after   16 cycles

 Alpha  occ. eigenvalues --   -6.94226  -6.94217  -0.37462  -0.35933  -0.15517
 Alpha  occ. eigenvalues --   -0.01497  -0.00347
 Alpha virt. eigenvalues --    0.12511   0.12526   0.13275   0.14957   0.15190
 Alpha virt. eigenvalues --    0.20152   0.21363   0.21394   0.21657   0.22584
 Alpha virt. eigenvalues --    0.25610   0.36789   0.39215   0.54164   0.57462

  Beta  occ. eigenvalues --   -6.94171  -6.94164  -0.35993  -0.34987  -0.14108
  Beta  occ. eigenvalues --    0.01214
  Beta virt. eigenvalues --    0.10219   0.13244   0.13830   0.13890   0.14177
  Beta virt. eigenvalues --    0.15490   0.19220   0.20149   0.20442   0.22754
  Beta virt. eigenvalues --    0.23037   0.23393   0.36910   0.39209   0.53497

 Mulliken charges and spin densities:
               1          2
     1  B   -0.532425   0.527147
     2  B   -0.532425   0.527147
     3  H    0.032425  -0.027147
     4  H    0.032425  -0.027147
 Sum of Mulliken charges =  -1.00000   1.00000

 Dipole moment (field-independent basis, Debye):
    X=             -0.0000    Y=             -0.0000    Z=             -0.0000  Tot=              0.0000
 Quadrupole moment (field-independent basis, Debye-Ang):
   XX=            -24.6178   YY=            -31.7320   ZZ=            -24.3287
   XY=              0.0115   XZ=             -0.0000   YZ=              0.0000

 Optimization completed.
    -- Stationary point found.

                          Input orientation:
 ---------------------------------------------------------------------
 Center     Atomic      Atomic             Coordinates (Angstroms)
 Number     Number       Type             X           Y           Z
 ---------------------------------------------------------------------
      1          5           0       -1.266404    0.000000    0.000000
      2          5           0        1.266404    0.000000    0.000000
      3          1           0       -2.450183   -0.000904    0.000000
      4          1           0        2.450183    0.000904    0.000000
 ---------------------------------------------------------------------

 Normal termination of Gaussian 16 at Mon Apr 21 17:30:51 2025.
