 Gaussian 16, Revision A.03,
 Gaussian 16:  ES64L-G16RevA.03 25-Dec-2016

 --------------------------------------------
 #p opt UM062X/6-311+G** nosymm int=superfine
 --------------------------------------------

 -------------------
 Title Card Required
 -------------------
 Symbolic Z-matrix:
 Charge =  0 Multiplicity = 1

 SCF Done:  E(UM062X) =  -437.185997359     A.U. after   18 cycles
 SCF Done:  E(UM062X) =  -437.186817618     A.U. after   14 cycles
 SCF Done:  E(UM062X) =  -437.187111747     A.U. after   14 cycles
 SCF Done:  E(UM062X) =  -437.187109138     A.U. after   11 cycles
 SCF Done:  E(UM062X) =  -437.187112016     A.U. after   13 cycles
 Optimization completed.
    -- Stationary point found.

                          Input orientation:
 ---------------------------------------------------------------------
 Center     Atomic      Atomic             Coordinates (Angstroms)
 Number     Number       Type             X           Y           Z
 ---------------------------------------------------------------------
      1          6           0       -1.552140    0.000000    0.000000
      2         16           0        1.552140    0.000000    0.000000
      3          1           0       -2.193091   -0.893138    0.000037
      4          1           0       -2.193867    0.892581   -0.000103
 ---------------------------------------------------------------------

 Alpha  occ. eigenvalues --  -89.91547 -10.67089  -8.27530  -6.20222  -6.18803
 Alpha  occ. eigenvalues --   -6.18782  -0.80244  -0.71883  -0.53548  -0.36226
 Alpha  occ. eigenvalues --   -0.29368  -0.29331
 Alpha virt. eigenvalues --   -0.13241  -0.12469   0.00642   0.05190   0.05665
 Alpha virt. eigenvalues --    0.06607   0.08470   0.08952   0.09224   0.14189
 Alpha virt. eigenvalues --    0.16661   0.16962   0.36260   0.37329   0.37369

  Beta  occ. eigenvalues --  -89.91547 -10.67089  -8.27530  -6.20222  -6.18803
  Beta  occ. eigenvalues --   -6.18782  -0.80244  -0.71883  -0.53548  -0.36226
  Beta  occ. eigenvalues --   -0.29368  -0.29331
  Beta virt. eigenvalues --   -0.13241  -0.12469   0.00642   0.05190   0.05665
  Beta virt. eigenvalues --    0.06607   0.08470   0.08952   0.09224   0.14189
  Beta virt. eigenvalues --    0.16661   0.16962   0.36260   0.37329   0.37369

 Mulliken charges and spin densities:
               1          2
     1  C   -0.250337  -0.000000
     2  S   -0.096166   0.000000
     3  H    0.173247   0.000000
     4  H    0.173257  -0.000000
 Sum of Mulliken charges =  -0.00000   0.00000

 Dipole moment (field-independent basis, Debye):
    X=             -4.1395    Y=             -0.0008    Z=             -0.0001  Tot=              4.1395
 Quadrupole moment (field-independent basis, Debye-Ang):
   XX=            -12.4658   YY=            -22.2292   ZZ=            -22.0603
   XY=             -0.0002   XZ=             -0.0000   YZ=              0.0000

 Normal termination of Gaussian 16 at Mon Apr 21 19:43:53 2025.
