 Gaussian 16, Revision A.03,
 Gaussian 16:  ES64L-G16RevA.03 25-Dec-2016

 ---------------------------------------
 #p UM062X/6-311+G** force int=superfine
 ---------------------------------------

 -------------------
 Title Card Required
 -------------------
 Symbolic Z-matrix:
 Charge =  1 Multiplicity = 2

                         Standard orientation:
 ---------------------------------------------------------------------
 Center     Atomic      Atomic             Coordinates (Angstroms)
 Number     Number       Type             X           Y           Z
 ---------------------------------------------------------------------
      1          6           0       -0.000000    0.742237    0.000000
      2          6           0       -0.000000   -0.742237    0.000000
      3          1           0       -0.941158    1.283783    0.000000
      4          1           0        0.941133    1.283818    0.000000
      5          1           0        0.941158   -1.283783    0.000000
      6          1           0       -0.941133   -1.283818    0.000000
 ---------------------------------------------------------------------

 SCF Done:  E(UM062X) =  -78.1805330153     A.U. after    9 cycles

 The electronic state is 2-AU.
 Alpha  occ. eigenvalues --  -10.90093 -10.90035  -1.16377  -0.98072  -0.83963
 Alpha  occ. eigenvalues --   -0.78060  -0.73677  -0.65002
 Alpha virt. eigenvalues --   -0.30651  -0.14637  -0.12845  -0.12131  -0.09487
 Alpha virt. eigenvalues --   -0.07691  -0.06983  -0.04748  -0.04522  -0.02298
 Alpha virt. eigenvalues --   -0.00803   0.00640   0.05074   0.10512   0.19903

  Beta  occ. eigenvalues --  -10.89865 -10.89820  -1.12552  -0.96113  -0.82946
  Beta  occ. eigenvalues --   -0.77076  -0.73344
  Beta virt. eigenvalues --   -0.41039  -0.23312  -0.16384  -0.12718  -0.12336
  Beta virt. eigenvalues --   -0.09895  -0.08523  -0.07041  -0.04743  -0.03815
  Beta virt. eigenvalues --   -0.01770  -0.01184   0.01603   0.06206   0.10978

 Mulliken charges and spin densities:
               1          2
     1  C   -0.054739   0.538173
     2  C   -0.054739   0.538173
     3  H    0.277368  -0.019087
     4  H    0.277371  -0.019086
     5  H    0.277368  -0.019087
     6  H    0.277371  -0.019086
 Sum of Mulliken charges =   1.00000   1.00000

 Dipole moment (field-independent basis, Debye):
    X=             -0.0000    Y=             -0.0000    Z=              0.0000  Tot=              0.0000
 Quadrupole moment (field-independent basis, Debye-Ang):
   XX=             -8.4380   YY=             -5.2210   ZZ=            -11.6442
   XY=              0.0001   XZ=              0.0000   YZ=              0.0000

 Normal termination of Gaussian 16 at Tue Nov 19 11:54:23 2024.
