 Gaussian 16, Revision A.03,
 Gaussian 16:  ES64L-G16RevA.03 25-Dec-2016

 ---------------------------------------
 #p UM062X/6-311+G** force int=superfine
 ---------------------------------------

 -------------------
 Title Card Required
 -------------------
 Symbolic Z-matrix:
 Charge =  1 Multiplicity = 2

                         Standard orientation:
 ---------------------------------------------------------------------
 Center     Atomic      Atomic             Coordinates (Angstroms)
 Number     Number       Type             X           Y           Z
 ---------------------------------------------------------------------
      1          6           0        0.686121   -0.672524    1.204589
      2          6           0       -0.686116    0.672533   -1.204584
      3          1           0        0.195136    0.568342   -1.827397
      4          1           0        0.852771   -1.593084    0.656724
      5          1           0       -0.853310    1.593314   -0.657258
      6          1           0       -1.464929   -0.080696   -1.242618
      7          1           0       -0.195054   -0.568181    1.827486
      8          1           0        1.465353    0.080251    1.243035
 ---------------------------------------------------------------------

 SCF Done:  E(UM062X) =  -79.3375694053     A.U. after   10 cycles

 The electronic state is 2-A.
 Alpha  occ. eigenvalues --  -10.84995 -10.84992  -1.03988  -1.02570  -0.74666
 Alpha  occ. eigenvalues --   -0.74665  -0.73988  -0.73988  -0.52359
 Alpha virt. eigenvalues --   -0.35544  -0.14013  -0.10264  -0.10263  -0.10163
 Alpha virt. eigenvalues --   -0.06232  -0.06232  -0.05254  -0.03259  -0.02076
 Alpha virt. eigenvalues --   -0.02073   0.01332   0.01334   0.04887   0.07666

  Beta  occ. eigenvalues --  -10.84797 -10.84796  -1.01123  -1.00165  -0.74123
  Beta  occ. eigenvalues --   -0.74123  -0.73482  -0.73482
  Beta virt. eigenvalues --   -0.32640  -0.25617  -0.15433  -0.11131  -0.11131
  Beta virt. eigenvalues --   -0.09961  -0.06425  -0.06424  -0.05440  -0.02387
  Beta virt. eigenvalues --   -0.02337  -0.02335   0.01643   0.01645   0.05838

 Mulliken charges and spin densities:
               1          2
     1  C   -0.272123   0.567264
     2  C   -0.272125   0.567266
     3  H    0.257401  -0.022416
     4  H    0.257350  -0.022421
     5  H    0.257377  -0.022421
     6  H    0.257345  -0.022428
     7  H    0.257403  -0.022416
     8  H    0.257371  -0.022428
 Sum of Mulliken charges =   1.00000   1.00000

 Dipole moment (field-independent basis, Debye):
    X=             -0.0000    Y=             -0.0001    Z=             -0.0000  Tot=              0.0001
 Quadrupole moment (field-independent basis, Debye-Ang):
   XX=             -8.7926   YY=             -8.8797   ZZ=             -4.1168
   XY=             -2.1991   XZ=              3.9393   YZ=             -3.8622

 Normal termination of Gaussian 16 at Wed Nov 13 12:58:36 2024.
