 Gaussian 16, Revision A.03,
 Gaussian 16:  ES64L-G16RevA.03 25-Dec-2016

 --------------------------------------------
 #p opt UM062X/6-311+G** nosymm int=superfine
 --------------------------------------------

 -------------------
 Title Card Required
 -------------------
 Symbolic Z-matrix:
 Charge =  1 Multiplicity = 2

 SCF Done:  E(UM062X) =  -79.1383832158     A.U. after   20 cycles
 SCF Done:  E(UM062X) =  -79.2198641410     A.U. after   16 cycles
 SCF Done:  E(UM062X) =  -79.2955894001     A.U. after   16 cycles
 SCF Done:  E(UM062X) =  -79.3345665036     A.U. after   10 cycles
 SCF Done:  E(UM062X) =  -79.3365881411     A.U. after   10 cycles
 SCF Done:  E(UM062X) =  -79.3367008545     A.U. after    9 cycles
 SCF Done:  E(UM062X) =  -79.3367228856     A.U. after    8 cycles
 SCF Done:  E(UM062X) =  -79.3367259585     A.U. after    8 cycles
 Optimization completed.
    -- Stationary point found.

                          Input orientation:
 ---------------------------------------------------------------------
 Center     Atomic      Atomic             Coordinates (Angstroms)
 Number     Number       Type             X           Y           Z
 ---------------------------------------------------------------------
      1          6           0       -0.627736    0.000000    0.000000
      2          6           0        0.627736    0.000000    0.000000
      3          1           0        1.184436   -0.806933    0.472146
      4          1           0       -1.102305   -1.004334   -0.279321
      5          1           0        1.102335    1.004368    0.279057
      6          1           0        1.102503    0.249330   -1.011990
      7          1           0       -1.184438    0.806978   -0.472066
      8          1           0       -1.102539   -0.249593    1.011888
 ---------------------------------------------------------------------

 Alpha  occ. eigenvalues --  -10.81387 -10.81214  -1.21135  -0.99813  -0.83811
 Alpha  occ. eigenvalues --   -0.80189  -0.79210  -0.68657  -0.62724
 Alpha virt. eigenvalues --   -0.16191  -0.13959  -0.12969  -0.12061  -0.08654
 Alpha virt. eigenvalues --   -0.07201  -0.06858  -0.06660  -0.04930  -0.02419
 Alpha virt. eigenvalues --   -0.01016  -0.00686   0.06212   0.06454   0.12835

  Beta  occ. eigenvalues --  -10.81317 -10.81133  -1.19535  -0.96042  -0.82892
  Beta  occ. eigenvalues --   -0.78306  -0.73792  -0.67175
  Beta virt. eigenvalues --   -0.42719  -0.16247  -0.13987  -0.12610  -0.12111
  Beta virt. eigenvalues --   -0.08681  -0.06919  -0.06650  -0.04932  -0.04767
  Beta virt. eigenvalues --   -0.01983  -0.00889  -0.00513   0.06327   0.06984

 Mulliken charges and spin densities:
               1          2
     1  C   -0.400104   0.155000
     2  C   -0.400116   0.154991
     3  H    0.253609  -0.009704
     4  H    0.323279   0.177500
     5  H    0.323271   0.177439
     6  H    0.323230   0.177269
     7  H    0.253610  -0.009704
     8  H    0.323221   0.177211
 Sum of Mulliken charges =   1.00000   1.00000

 Dipole moment (field-independent basis, Debye):
    X=             -0.0000    Y=             -0.0003    Z=             -0.0004  Tot=              0.0005
 Quadrupole moment (field-independent basis, Debye-Ang):
   XX=             -6.8802   YY=             -9.9967   ZZ=            -10.7756
   XY=              1.8241   XZ=             -1.0648   YZ=             -0.6908

 Normal termination of Gaussian 16 at Sat Nov 16 15:38:36 2024.
