 Gaussian 16, Revision A.03,
 Gaussian 16:  ES64L-G16RevA.03 25-Dec-2016

 ---------------------------------------
 #p UM062X/6-311+G** force int=superfine
 ---------------------------------------

 -------------------
 Title Card Required
 -------------------
 Symbolic Z-matrix:
 Charge =  0 Multiplicity = 1

                         Standard orientation:
 ---------------------------------------------------------------------
 Center     Atomic      Atomic             Coordinates (Angstroms)
 Number     Number       Type             X           Y           Z
 ---------------------------------------------------------------------
      1          6           0       -0.020783   -0.154773    1.173211
      2          6           0        0.020784    0.154773   -1.173211
      3          1           0        0.429512   -0.787239   -1.515619
      4          1           0       -0.669750   -1.015276    1.273560
      5          1           0        0.669749    1.015277   -1.273563
      6          1           0       -1.025157    0.323929   -1.394776
      7          1           0       -0.429513    0.787239    1.515619
      8          1           0        1.025156   -0.323931    1.394780
 ---------------------------------------------------------------------

 SCF Done:  E(UM062X) =  -79.6919227965     A.U. after    9 cycles

 The electronic state is 1-A.
 Alpha  occ. eigenvalues --  -10.55569 -10.55564  -0.77615  -0.73931  -0.48266
 Alpha  occ. eigenvalues --   -0.48266  -0.46058  -0.46058  -0.28987
 Alpha virt. eigenvalues --   -0.00863   0.02505   0.05547   0.05547   0.07300
 Alpha virt. eigenvalues --    0.08279   0.08279   0.10014   0.13068   0.18161
 Alpha virt. eigenvalues --    0.18161   0.22063   0.22063   0.24365   0.26276

  Beta  occ. eigenvalues --  -10.55569 -10.55564  -0.77615  -0.73931  -0.48266
  Beta  occ. eigenvalues --   -0.48266  -0.46058  -0.46058  -0.28987
  Beta virt. eigenvalues --   -0.00863   0.02505   0.05547   0.05547   0.07300
  Beta virt. eigenvalues --    0.08279   0.08279   0.10014   0.13068   0.18161
  Beta virt. eigenvalues --    0.18161   0.22063   0.22063   0.24365   0.26276

 Mulliken charges and spin densities:
               1          2
     1  C   -0.508709   0.000000
     2  C   -0.508709  -0.000000
     3  H    0.169570  -0.000000
     4  H    0.169570  -0.000000
     5  H    0.169570  -0.000000
     6  H    0.169570   0.000000
     7  H    0.169570  -0.000000
     8  H    0.169570  -0.000000
 Sum of Mulliken charges =  -0.00000   0.00000

 Dipole moment (field-independent basis, Debye):
    X=             -0.0000    Y=             -0.0000    Z=             -0.0000  Tot=              0.0000
 Quadrupole moment (field-independent basis, Debye-Ang):
   XX=            -14.8138   YY=            -14.8259   ZZ=            -15.5252
   XY=             -0.0017   XZ=              0.0126   YZ=              0.0939

 Normal termination of Gaussian 16 at Tue Nov 19 12:56:17 2024.
