 Gaussian 16, Revision A.03,
 Gaussian 16:  ES64L-G16RevA.03 25-Dec-2016

 --------------------------------------------
 #p opt UM062X/6-311+G** nosymm int=superfine
 --------------------------------------------

 -------------------
 Title Card Required
 -------------------
 Symbolic Z-matrix:
 Charge =  1 Multiplicity = 2

 SCF Done:  E(UM062X) =  -580.986961961     A.U. after   10 cycles
 SCF Done:  E(UM062X) =  -580.986965702     A.U. after    7 cycles
 SCF Done:  E(UM062X) =  -580.986966800     A.U. after    7 cycles
 Optimization completed.
    -- Stationary point found.

                          Input orientation:
 ---------------------------------------------------------------------
 Center     Atomic      Atomic             Coordinates (Angstroms)
 Number     Number       Type             X           Y           Z
 ---------------------------------------------------------------------
      1         14           0       -1.141295    0.000000    0.000000
      2         14           0        1.141295    0.000000    0.000000
      3          1           0       -1.865672   -1.275545   -0.001056
      4          1           0        1.865672    1.275545    0.000148
      5          1           0       -1.865672    1.275546    0.000282
      6          1           0        1.865672   -1.275545   -0.000923
 ---------------------------------------------------------------------

 Alpha  occ. eigenvalues --  -67.25497 -67.25497  -5.80320  -5.80310  -4.12003
 Alpha  occ. eigenvalues --   -4.11994  -4.11282  -4.11214  -4.11165  -4.11158
 Alpha  occ. eigenvalues --   -0.86823  -0.78425  -0.65561  -0.62941  -0.59963
 Alpha  occ. eigenvalues --   -0.48182
 Alpha virt. eigenvalues --   -0.27546  -0.18596  -0.17168  -0.13747  -0.11815
 Alpha virt. eigenvalues --   -0.10416  -0.09691  -0.08924  -0.08418  -0.08267
 Alpha virt. eigenvalues --   -0.06845  -0.05807  -0.00888   0.06665   0.07032

  Beta  occ. eigenvalues --  -67.25204 -67.25204  -5.80238  -5.80228  -4.11266
  Beta  occ. eigenvalues --   -4.11256  -4.11216  -4.11141  -4.11058  -4.11050
  Beta  occ. eigenvalues --   -0.84446  -0.77173  -0.65355  -0.63079  -0.59403
  Beta virt. eigenvalues --   -0.32331  -0.23002  -0.16537  -0.16349  -0.15087
  Beta virt. eigenvalues --   -0.12330  -0.10497  -0.09814  -0.08360  -0.08255
  Beta virt. eigenvalues --   -0.07679  -0.06592  -0.03916  -0.01975   0.06588

 Mulliken charges and spin densities:
               1          2
     1  Si   0.431648   0.552343
     2  Si   0.431648   0.552343
     3  H    0.034176  -0.026172
     4  H    0.034176  -0.026172
     5  H    0.034176  -0.026172
     6  H    0.034176  -0.026172
 Sum of Mulliken charges =   1.00000   1.00000

 Dipole moment (field-independent basis, Debye):
    X=              0.0000    Y=             -0.0000    Z=              0.0003  Tot=              0.0003
 Quadrupole moment (field-independent basis, Debye-Ang):
   XX=            -14.4898   YY=            -23.3384   ZZ=            -23.4204
   XY=              0.0000   XZ=              0.0000   YZ=              0.0000

 Normal termination of Gaussian 16 at Mon Apr 21 20:16:27 2025.
