 Gaussian 16, Revision A.03,
 Gaussian 16:  ES64L-G16RevA.03 25-Dec-2016

 --------------------------------------------
 #p opt UM062X/6-311+G** nosymm int=superfine
 --------------------------------------------

 -------------------
 Title Card Required
 -------------------
 Symbolic Z-matrix:
 Charge =  0 Multiplicity = 1

 SCF Done:  E(UM062X) =  -379.566322947     A.U. after   15 cycles
 SCF Done:  E(UM062X) =  -379.567737935     A.U. after   10 cycles
 SCF Done:  E(UM062X) =  -379.567744014     A.U. after   10 cycles
 Optimization completed.
    -- Stationary point found.

                          Input orientation:
 ---------------------------------------------------------------------
 Center     Atomic      Atomic             Coordinates (Angstroms)
 Number     Number       Type             X           Y           Z
 ---------------------------------------------------------------------
      1          6           0       -1.865377    0.000000    0.000000
      2         15           0        1.865377    0.000000    0.000000
      3          1           0       -2.987956   -0.000000    0.000000
 ---------------------------------------------------------------------

 Alpha  occ. eigenvalues --  -78.07254 -10.71987  -6.89147  -5.01054  -5.00122
 Alpha  occ. eigenvalues --   -5.00122  -0.76730  -0.60499  -0.42426  -0.23768
 Alpha  occ. eigenvalues --   -0.23768
 Alpha virt. eigenvalues --   -0.15498  -0.15498  -0.11762   0.01099   0.04096
 Alpha virt. eigenvalues --    0.05982   0.05982   0.07669   0.08491   0.08491
 Alpha virt. eigenvalues --    0.13156   0.16285   0.33286   0.33299   0.33299

  Beta  occ. eigenvalues --  -78.07254 -10.71987  -6.89147  -5.01054  -5.00122
  Beta  occ. eigenvalues --   -5.00122  -0.76730  -0.60499  -0.42426  -0.23768
  Beta  occ. eigenvalues --   -0.23768
  Beta virt. eigenvalues --   -0.15498  -0.15498  -0.11762   0.01099   0.04096
  Beta virt. eigenvalues --    0.05982   0.05982   0.07669   0.08491   0.08491
  Beta virt. eigenvalues --    0.13156   0.16285   0.33286   0.33299   0.33299

 Mulliken charges and spin densities:
               1          2
     1  C   -0.105678   0.000000
     2  P   -0.060563  -0.000000
     3  H    0.166241  -0.000000
 Sum of Mulliken charges =  -0.00000  -0.00000

 Dipole moment (field-independent basis, Debye):
    X=             -3.1646    Y=             -0.0000    Z=              0.0000  Tot=              3.1646
 Quadrupole moment (field-independent basis, Debye-Ang):
   XX=            -10.1488   YY=            -24.1747   ZZ=            -24.1747
   XY=             -0.0000   XZ=             -0.0000   YZ=             -0.0000

 Normal termination of Gaussian 16 at Mon Apr 21 19:30:06 2025.
