 Gaussian 16, Revision A.03,
 Gaussian 16:  ES64L-G16RevA.03 25-Dec-2016

 --------------------------------------------
 #p opt UM062X/6-311+G** nosymm int=superfine
 --------------------------------------------

 -------------------
 Title Card Required
 -------------------
 Symbolic Z-matrix:
 Charge =  0 Multiplicity = 1

 SCF Done:  E(UM062X) =  -582.382867827     A.U. after   10 cycles
 SCF Done:  E(UM062X) =  -582.385102456     A.U. after    9 cycles
 SCF Done:  E(UM062X) =  -582.385688630     A.U. after    9 cycles
 Optimization completed.
    -- Stationary point found.

                          Input orientation:
 ---------------------------------------------------------------------
 Center     Atomic      Atomic             Coordinates (Angstroms)
 Number     Number       Type             X           Y           Z
 ---------------------------------------------------------------------
      1         14           0       -2.219819    0.000000    0.000000
      2         14           0        2.219819    0.000000    0.000000
      3          1           0        2.626439   -1.418376   -0.000055
      4          1           0       -2.626395   -0.709095    1.228426
      5          1           0        2.626528    0.709267   -1.228283
      6          1           0        2.626404    0.709148    1.228392
      7          1           0       -2.626443    1.418375   -0.000111
      8          1           0       -2.626534   -0.709322   -1.228249
 ---------------------------------------------------------------------

 Alpha  occ. eigenvalues --  -67.01861 -67.01861  -5.56748  -5.56747  -3.87981
 Alpha  occ. eigenvalues --   -3.87980  -3.87745  -3.87745  -3.87745  -3.87745
 Alpha  occ. eigenvalues --   -0.61138  -0.60803  -0.42065  -0.42064  -0.41985
 Alpha  occ. eigenvalues --   -0.41985  -0.22192
 Alpha virt. eigenvalues --   -0.10366   0.02072   0.02931   0.02931   0.03300
 Alpha virt. eigenvalues --    0.05101   0.05101   0.05980   0.06775   0.07443
 Alpha virt. eigenvalues --    0.07443   0.08684   0.08684   0.12141   0.15968

  Beta  occ. eigenvalues --  -67.01861 -67.01861  -5.56748  -5.56747  -3.87981
  Beta  occ. eigenvalues --   -3.87980  -3.87745  -3.87745  -3.87745  -3.87745
  Beta  occ. eigenvalues --   -0.61138  -0.60803  -0.42065  -0.42064  -0.41985
  Beta  occ. eigenvalues --   -0.41985  -0.22192
  Beta virt. eigenvalues --   -0.10366   0.02072   0.02931   0.02931   0.03300
  Beta virt. eigenvalues --    0.05101   0.05101   0.05980   0.06775   0.07443
  Beta virt. eigenvalues --    0.07443   0.08684   0.08684   0.12141   0.15968

 Mulliken charges and spin densities:
               1          2
     1  Si   0.268499   0.000000
     2  Si   0.268499  -0.000000
     3  H   -0.089498   0.000000
     4  H   -0.089500  -0.000000
     5  H   -0.089501   0.000000
     6  H   -0.089500   0.000000
     7  H   -0.089498   0.000000
     8  H   -0.089501   0.000000
 Sum of Mulliken charges =  -0.00000  -0.00000

 Dipole moment (field-independent basis, Debye):
    X=              0.0000    Y=             -0.0000    Z=              0.0000  Tot=              0.0000
 Quadrupole moment (field-independent basis, Debye-Ang):
   XX=            -28.1816   YY=            -32.1428   ZZ=            -32.1429
   XY=             -0.0003   XZ=              0.0000   YZ=              0.0000

 Normal termination of Gaussian 16 at Mon Apr 21 20:20:02 2025.
