 Gaussian 16, Revision A.03,
 Gaussian 16:  ES64L-G16RevA.03 25-Dec-2016

 --------------------------------------------
 #p opt UM062X/6-311+G** nosymm int=superfine
 --------------------------------------------

 -------------------
 Title Card Required
 -------------------
 Symbolic Z-matrix:
 Charge =  0 Multiplicity = 3

 SCF Done:  E(UM062X) =  -50.4956340366     A.U. after   13 cycles
 SCF Done:  E(UM062X) =  -50.4965435688     A.U. after   10 cycles
 SCF Done:  E(UM062X) =  -50.4965502588     A.U. after   11 cycles
 Optimization completed.
    -- Stationary point found.

                          Input orientation:
 ---------------------------------------------------------------------
 Center     Atomic      Atomic             Coordinates (Angstroms)
 Number     Number       Type             X           Y           Z
 ---------------------------------------------------------------------
      1          5           0       -1.703410    0.000000    0.000000
      2          5           0        1.703410    0.000000    0.000000
      3          1           0       -2.908716   -0.000082    0.000000
      4          1           0        2.908716    0.000082   -0.000000
 ---------------------------------------------------------------------

 Alpha  occ. eigenvalues --   -7.14149  -7.14148  -0.56783  -0.56415  -0.34356
 Alpha  occ. eigenvalues --   -0.28999  -0.18341
 Alpha virt. eigenvalues --   -0.09091  -0.06583  -0.04892   0.02647   0.02794
 Alpha virt. eigenvalues --    0.05942   0.07164   0.07198   0.08141   0.08250
 Alpha virt. eigenvalues --    0.11866   0.18130   0.22548   0.34550   0.39128

  Beta  occ. eigenvalues --   -7.13226  -7.13225  -0.53437  -0.53195  -0.25334
  Beta virt. eigenvalues --   -0.09134  -0.04735  -0.04236  -0.02551  -0.02087
  Beta virt. eigenvalues --    0.01751   0.02542   0.06986   0.07301   0.07413
  Beta virt. eigenvalues --    0.08250   0.09236   0.09633   0.19138   0.23856

 Mulliken charges and spin densities:
               1          2
     1  B   -0.066689   0.920251
     2  B   -0.066689   0.920251
     3  H    0.066689   0.079749
     4  H    0.066689   0.079749
 Sum of Mulliken charges =  -0.00000   2.00000

 Dipole moment (field-independent basis, Debye):
    X=             -0.0000    Y=             -0.0000    Z=             -0.0000  Tot=              0.0000
 Quadrupole moment (field-independent basis, Debye-Ang):
   XX=             -9.1348   YY=            -13.6128   ZZ=            -17.6584
   XY=              0.0000   XZ=             -0.0000   YZ=             -0.0001

 1\1\GINC-NODE06\FOpt\UM062X\6-311+G(d,p)\B2H2(3)\SZHAO\21-Apr-2025\0\\
 #p opt UM062X/6-311+G** nosymm int=superfine\\Title Card Required\\0,3
 \B,-1.70341047,0.,0.\B,1.70341047,0.,0.\H,-2.9087156581,-0.0000822127,
 0.0000000014\H,2.9087156631,0.000082212,-0.0000000014\\Version=ES64L-G
 16RevA.03\HF=-50.4965503\S2=2.015884\S2-1=0.\S2A=2.000014\RMSD=8.727e-
 10\RMSF=4.979e-07\Dipole=0.,0.,0.\Quadrupole=3.2221266,-0.1071562,-3.1
 149704,0.0000105,0.,-0.0000514\PG=C*V [C*(H1B1B1H1)]\\@

 Normal termination of Gaussian 16 at Mon Apr 21 17:29:03 2025.
