 Gaussian 16, Revision A.03,
 Gaussian 16:  ES64L-G16RevA.03 25-Dec-2016

 ---------------------------------------
 #p UM062X/6-311+G** force int=superfine
 ---------------------------------------

 -------------------
 Title Card Required
 -------------------
 Symbolic Z-matrix:
 Charge =  1 Multiplicity = 2

                         Standard orientation:
 ---------------------------------------------------------------------
 Center     Atomic      Atomic             Coordinates (Angstroms)
 Number     Number       Type             X           Y           Z
 ---------------------------------------------------------------------
      1          7           0        0.000000    0.000000    1.330391
      2          7           0        0.000000    0.000000   -1.330391
 ---------------------------------------------------------------------

 SCF Done:  E(UM062X) =  -108.421879547     A.U. after   11 cycles

 Unable to determine electronic state:  partially filled degenerate orbitals.
 Alpha  occ. eigenvalues --  -15.34654 -15.34646  -1.23490  -1.20703  -0.70191
 Alpha  occ. eigenvalues --   -0.69707  -0.67093
 Alpha virt. eigenvalues --   -0.58044  -0.55379  -0.52420  -0.12906  -0.08722
 Alpha virt. eigenvalues --   -0.08569  -0.08522  -0.03211  -0.03029  -0.02792
 Alpha virt. eigenvalues --    0.04669   0.41953   0.47073   0.48395   0.53447

  Beta  occ. eigenvalues --  -15.34170 -15.34164  -1.19731  -1.17094  -0.68458
  Beta  occ. eigenvalues --   -0.65341
  Beta virt. eigenvalues --   -0.53550  -0.50471  -0.47041  -0.45367  -0.14146
  Beta virt. eigenvalues --   -0.09135  -0.09070  -0.08713  -0.03754  -0.03119
  Beta virt. eigenvalues --   -0.03044   0.03194   0.42258   0.48425   0.48572

 Mulliken charges and spin densities:
               1          2
     1  N    0.500000   0.500000
     2  N    0.500000   0.500000
 Sum of Mulliken charges =   1.00000   1.00000

 Dipole moment (field-independent basis, Debye):
    X=              0.0000    Y=             -0.0000    Z=              0.0000  Tot=              0.0000
 Quadrupole moment (field-independent basis, Debye-Ang):
   XX=            -10.0123   YY=             -8.5597   ZZ=              0.2353
   XY=              0.0000   XZ=             -0.0000   YZ=             -0.0000

 Optimization completed.
    -- Stationary point found.
 Normal termination of Gaussian 16 at Wed Feb 26 13:54:13 2025.
