 Gaussian 16, Revision A.03,
 Gaussian 16:  ES64L-G16RevA.03 25-Dec-2016

 --------------------------------------------
 #p opt UM062X/6-311+G** nosymm int=superfine
 --------------------------------------------

 -------------------
 Title Card Required
 -------------------
 Symbolic Z-matrix:
 Charge =  0 Multiplicity = 1

 SCF Done:  E(UM062X) =  -94.2613450693     A.U. after   11 cycles
 SCF Done:  E(UM062X) =  -94.2613474232     A.U. after   11 cycles
 SCF Done:  E(UM062X) =  -94.2613467773     A.U. after   10 cycles
 SCF Done:  E(UM062X) =  -94.2613475285     A.U. after   10 cycles
 Optimization completed.
    -- Stationary point found.

                          Input orientation:
 ---------------------------------------------------------------------
 Center     Atomic      Atomic             Coordinates (Angstroms)
 Number     Number       Type             X           Y           Z
 ---------------------------------------------------------------------
      1          6           0       -1.731637    0.000000    0.000000
      2          7           0        1.731637    0.000000    0.000000
      3          1           0       -2.429424   -0.857493    0.022853
      4          1           0        0.689475   -0.005608   -0.000364
      5          1           0       -2.409110    0.873567   -0.023200
 ---------------------------------------------------------------------

 Alpha  occ. eigenvalues --  -14.80544 -10.63126  -0.87005  -0.77823  -0.49984
 Alpha  occ. eigenvalues --   -0.44340  -0.33913  -0.31619
 Alpha virt. eigenvalues --   -0.10644  -0.10409   0.01055   0.05256   0.06847
 Alpha virt. eigenvalues --    0.07358   0.13644   0.14171   0.16048   0.17628
 Alpha virt. eigenvalues --    0.18196   0.18662   0.24524   0.42583   0.46276

  Beta  occ. eigenvalues --  -14.80544 -10.63126  -0.87005  -0.77823  -0.49984
  Beta  occ. eigenvalues --   -0.44340  -0.33913  -0.31619
  Beta virt. eigenvalues --   -0.10644  -0.10409   0.01055   0.05256   0.06847
  Beta virt. eigenvalues --    0.07358   0.13644   0.14171   0.16048   0.17628
  Beta virt. eigenvalues --    0.18196   0.18662   0.24524   0.42583   0.46276

 Mulliken charges and spin densities:
               1          2
     1  C   -0.321897  -0.000000
     2  N   -0.263076  -0.000000
     3  H    0.150516   0.000000
     4  H    0.284425   0.000000
     5  H    0.150032   0.000000
 Sum of Mulliken charges =  -0.00000   0.00000

 Dipole moment (field-independent basis, Debye):
    X=             -4.2744    Y=              0.0123    Z=             -0.0010  Tot=              4.2744
 Quadrupole moment (field-independent basis, Debye-Ang):
   XX=            -13.8896   YY=            -12.1993   ZZ=            -14.9292
   XY=             -0.0390   XZ=              0.0008   YZ=             -0.0724

 Normal termination of Gaussian 16 at Mon Apr 21 21:07:12 2025.
