 Gaussian 16, Revision A.03,
 Gaussian 16:  ES64L-G16RevA.03 25-Dec-2016

 ---------------------------------------
 #p UM062X/6-311+G** force int=superfine
 ---------------------------------------

 -------------------
 Title Card Required
 -------------------
 Symbolic Z-matrix:
 Charge =  1 Multiplicity = 2

                         Standard orientation:
 ---------------------------------------------------------------------
 Center     Atomic      Atomic             Coordinates (Angstroms)
 Number     Number       Type             X           Y           Z
 ---------------------------------------------------------------------
      1          6           0       -0.000000    0.424135    0.000000
      2          6           0       -0.000000   -0.424135    0.000000
      3          1           0       -0.783437    1.246421    0.000000
      4          1           0        0.789557    1.242167    0.000000
      5          1           0        0.783437   -1.246421    0.000000
      6          1           0       -0.789557   -1.242167    0.000000
 ---------------------------------------------------------------------

 SCF Done:  E(UM062X) =  -77.4910973105     A.U. after   10 cycles

 The electronic state is 2-AG.
 Alpha  occ. eigenvalues --  -10.82563 -10.77570  -1.25179  -0.96145  -0.90036
 Alpha  occ. eigenvalues --   -0.88685  -0.77476  -0.61428
 Alpha virt. eigenvalues --   -0.19088  -0.15458  -0.13831  -0.13144  -0.11309
 Alpha virt. eigenvalues --   -0.09083  -0.07647  -0.06384  -0.01969  -0.00364
 Alpha virt. eigenvalues --    0.00065   0.03072   0.15897   0.17727   0.19480

  Beta  occ. eigenvalues --  -10.82631 -10.77608  -1.24446  -0.91420  -0.86158
  Beta  occ. eigenvalues --   -0.85771  -0.77331
  Beta virt. eigenvalues --   -0.40818  -0.17271  -0.15273  -0.13467  -0.13068
  Beta virt. eigenvalues --   -0.11030  -0.08947  -0.04739  -0.03547  -0.01659
  Beta virt. eigenvalues --    0.00730   0.00770   0.03961   0.15303   0.17451

 Mulliken charges and spin densities:
               1          2
     1  C   -0.140852   0.087279
     2  C   -0.140852   0.087279
     3  H    0.320308   0.205146
     4  H    0.320544   0.207575
     5  H    0.320308   0.205146
     6  H    0.320544   0.207575
 Sum of Mulliken charges =   1.00000   1.00000

 Dipole moment (field-independent basis, Debye):
    X=             -0.0000    Y=             -0.0000    Z=              0.0000  Tot=              0.0000
 Quadrupole moment (field-independent basis, Debye-Ang):
   XX=             -7.5787   YY=             -2.6301   ZZ=            -11.7310
   XY=              0.0159   XZ=              0.0000   YZ=              0.0000

 Normal termination of Gaussian 16 at Tue Nov 19 11:51:51 2024.
