 Gaussian 16, Revision A.03,
 Gaussian 16:  ES64L-G16RevA.03 25-Dec-2016

 ---------------------------------------
 #p UM062X/6-311+G** force int=superfine
 ---------------------------------------

 -------------------
 Title Card Required
 -------------------
 Symbolic Z-matrix:
 Charge =  1 Multiplicity = 2

                         Standard orientation:
 ---------------------------------------------------------------------
 Center     Atomic      Atomic             Coordinates (Angstroms)
 Number     Number       Type             X           Y           Z
 ---------------------------------------------------------------------
      1          6           0        1.426689    0.000057   -0.000062
      2          6           0       -1.426655   -0.000043    0.000069
      3          1           0       -1.485788    0.638032   -0.874300
      4          1           0        1.484236   -0.438363   -0.989795
      5          1           0       -1.485083    0.438121    0.989881
      6          1           0       -1.484342   -1.076373   -0.115322
      7          1           0        1.485761   -0.637874    0.874402
      8          1           0        1.485011    1.076373    0.115093
 ---------------------------------------------------------------------

 SCF Done:  E(UM062X) =  -79.3450090455     A.U. after   10 cycles

 The electronic state is 2-A.
 Alpha  occ. eigenvalues --  -10.85291 -10.85287  -1.04765  -1.02637  -0.75227
 Alpha  occ. eigenvalues --   -0.75226  -0.74157  -0.74157  -0.54048
 Alpha virt. eigenvalues --   -0.34377  -0.14470  -0.10398  -0.10397  -0.10097
 Alpha virt. eigenvalues --   -0.06212  -0.06212  -0.05670  -0.03153  -0.02760
 Alpha virt. eigenvalues --   -0.02758   0.01432   0.01435   0.05315   0.07522

  Beta  occ. eigenvalues --  -10.85095 -10.85095  -1.01746  -1.00252  -0.74625
  Beta  occ. eigenvalues --   -0.74624  -0.73646  -0.73646
  Beta virt. eigenvalues --   -0.32945  -0.24842  -0.15458  -0.11122  -0.11122
  Beta virt. eigenvalues --   -0.09820  -0.06493  -0.06492  -0.05716  -0.02886
  Beta virt. eigenvalues --   -0.02884  -0.02338   0.01771   0.01774   0.06084

 Mulliken charges and spin densities:
               1          2
     1  C   -0.275752   0.571481
     2  C   -0.275779   0.571499
     3  H    0.258613  -0.023838
     4  H    0.258559  -0.023825
     5  H    0.258591  -0.023827
     6  H    0.258563  -0.023823
     7  H    0.258613  -0.023840
     8  H    0.258592  -0.023827
 Sum of Mulliken charges =   1.00000   1.00000

 Dipole moment (field-independent basis, Debye):
    X=              0.0001    Y=             -0.0000    Z=             -0.0000  Tot=              0.0001
 Quadrupole moment (field-independent basis, Debye-Ang):
   XX=             -1.4165   YY=            -11.0005   ZZ=            -11.0008
   XY=             -0.0008   XZ=              0.0011   YZ=             -0.0000

 Normal termination of Gaussian 16 at Wed Nov 13 12:07:30 2024.
