 Gaussian 16, Revision A.03,
 Gaussian 16:  ES64L-G16RevA.03 25-Dec-2016

 --------------------------------------------
 #p opt UM062X/6-311+G** nosymm int=superfine
 --------------------------------------------

 -------------------
 Title Card Required
 -------------------
 Symbolic Z-matrix:
 Charge =  0 Multiplicity = 1

 SCF Done:  E(UM062X) =  -582.465711577     A.U. after    9 cycles
 SCF Done:  E(UM062X) =  -582.466636425     A.U. after    8 cycles
 SCF Done:  E(UM062X) =  -582.466771473     A.U. after    8 cycles
 Optimization completed.
    -- Stationary point found.

                          Input orientation:
 ---------------------------------------------------------------------
 Center     Atomic      Atomic             Coordinates (Angstroms)
 Number     Number       Type             X           Y           Z
 ---------------------------------------------------------------------
      1         14           0       -1.594819    0.000000    0.000000
      2         14           0        1.594819    0.000000    0.000000
      3          1           0        2.048145   -1.405762   -0.000055
      4          1           0       -2.048197   -0.702730    1.217506
      5          1           0        2.048285    0.702899   -1.217375
      6          1           0        2.048202    0.702781    1.217475
      7          1           0       -2.048148    1.405761   -0.000115
      8          1           0       -2.048289   -0.702952   -1.217343
 ---------------------------------------------------------------------

 Alpha  occ. eigenvalues --  -67.00918 -67.00918  -5.55756  -5.55755  -3.86949
 Alpha  occ. eigenvalues --   -3.86946  -3.86813  -3.86813  -3.86812  -3.86812
 Alpha  occ. eigenvalues --   -0.61354  -0.59570  -0.41588  -0.41588  -0.40934
 Alpha  occ. eigenvalues --   -0.40933  -0.27451
 Alpha virt. eigenvalues --   -0.03865   0.02124   0.02954   0.02954   0.04097
 Alpha virt. eigenvalues --    0.04801   0.05512   0.05512   0.06712   0.06712
 Alpha virt. eigenvalues --    0.07927   0.09152   0.09153   0.14868   0.17262

  Beta  occ. eigenvalues --  -67.00918 -67.00918  -5.55756  -5.55755  -3.86949
  Beta  occ. eigenvalues --   -3.86946  -3.86813  -3.86813  -3.86812  -3.86812
  Beta  occ. eigenvalues --   -0.61354  -0.59570  -0.41588  -0.41588  -0.40934
  Beta  occ. eigenvalues --   -0.40933  -0.27451
  Beta virt. eigenvalues --   -0.03865   0.02124   0.02954   0.02954   0.04097
  Beta virt. eigenvalues --    0.04801   0.05512   0.05512   0.06712   0.06712
  Beta virt. eigenvalues --    0.07927   0.09152   0.09153   0.14868   0.17262

 Mulliken charges and spin densities:
               1          2
     1  Si   0.290876   0.000000
     2  Si   0.290876  -0.000000
     3  H   -0.096961   0.000000
     4  H   -0.096958  -0.000000
     5  H   -0.096958  -0.000000
     6  H   -0.096958  -0.000000
     7  H   -0.096961   0.000000
     8  H   -0.096958  -0.000000
 Sum of Mulliken charges =  -0.00000   0.00000

 Dipole moment (field-independent basis, Debye):
    X=              0.0000    Y=              0.0000    Z=             -0.0000  Tot=              0.0000
 Quadrupole moment (field-independent basis, Debye-Ang):
   XX=            -30.6405   YY=            -31.7465   ZZ=            -31.7464
   XY=              0.0003   XZ=              0.0000   YZ=              0.0000

 Normal termination of Gaussian 16 at Mon Apr 21 20:18:55 2025.
