 Gaussian 16, Revision A.03,
 Gaussian 16:  ES64L-G16RevA.03 25-Dec-2016

 --------------------------------------------
 #p opt UM062X/6-311+G** nosymm int=superfine
 --------------------------------------------

 -------------------
 Title Card Required
 -------------------
 Symbolic Z-matrix:
 Charge =  0 Multiplicity = 1

 SCF Done:  E(UM062X) =  -78.2573461649     A.U. after    8 cycles
 SCF Done:  E(UM062X) =  -78.3045965152     A.U. after    8 cycles
 SCF Done:  E(UM062X) =  -78.3569203157     A.U. after   10 cycles
 SCF Done:  E(UM062X) =  -78.3682588004     A.U. after    8 cycles
 SCF Done:  E(UM062X) =  -78.3699281219     A.U. after    9 cycles
 SCF Done:  E(UM062X) =  -78.3699358914     A.U. after    8 cycles
 SCF Done:  E(UM062X) =  -78.3699371422     A.U. after    7 cycles
 Optimization completed.
    -- Stationary point found.

                          Input orientation:
 ---------------------------------------------------------------------
 Center     Atomic      Atomic             Coordinates (Angstroms)
 Number     Number       Type             X           Y           Z
 ---------------------------------------------------------------------
      1          6           0       -1.014194    0.000000    0.000000
      2          6           0        1.014194    0.000000    0.000000
      3          1           0       -1.477109   -0.973604    0.000000
      4          1           0       -1.477097    0.973603    0.000000
      5          1           0        1.477109    0.973603    0.000000
      6          1           0        1.477097   -0.973603    0.000000
 ---------------------------------------------------------------------

 Alpha  occ. eigenvalues --  -10.61135 -10.61122  -0.77425  -0.71550  -0.53001
 Alpha  occ. eigenvalues --   -0.49924  -0.37699  -0.26040
 Alpha virt. eigenvalues --   -0.06704   0.01592   0.03362   0.05388   0.07319
 Alpha virt. eigenvalues --    0.09116   0.09119   0.09889   0.11386   0.15313
 Alpha virt. eigenvalues --    0.16446   0.20600   0.21284   0.28106   0.39652

  Beta  occ. eigenvalues --  -10.61135 -10.61122  -0.77425  -0.71550  -0.53001
  Beta  occ. eigenvalues --   -0.49924  -0.37699  -0.26040
  Beta virt. eigenvalues --   -0.06704   0.01592   0.03362   0.05388   0.07319
  Beta virt. eigenvalues --    0.09116   0.09119   0.09889   0.11386   0.15313
  Beta virt. eigenvalues --    0.16446   0.20600   0.21284   0.28106   0.39652

 Mulliken charges and spin densities:
               1          2
     1  C   -0.361293   0.000000
     2  C   -0.361293  -0.000000
     3  H    0.180647  -0.000000
     4  H    0.180647  -0.000000
     5  H    0.180647   0.000000
     6  H    0.180647   0.000000
 Sum of Mulliken charges =  -0.00000   0.00000

 Dipole moment (field-independent basis, Debye):
    X=             -0.0000    Y=              0.0000    Z=              0.0000  Tot=              0.0000
 Quadrupole moment (field-independent basis, Debye-Ang):
   XX=            -11.2091   YY=            -12.0832   ZZ=            -18.1984
   XY=              0.0000   XZ=              0.0000   YZ=              0.0000

 Normal termination of Gaussian 16 at Tue Nov 19 11:05:14 2024.
