 Gaussian 16, Revision A.03,
 Gaussian 16:  ES64L-G16RevA.03 25-Dec-2016

 --------------------------------------------
 #p opt UM062X/6-311+G** nosymm int=superfine
 --------------------------------------------

 -------------------
 Title Card Required
 -------------------
 Symbolic Z-matrix:
 Charge =  0 Multiplicity = 3

 SCF Done:  E(UM062X) =  -25.2350456684     A.U. after   10 cycles
 SCF Done:  E(UM062X) =  -25.2350791205     A.U. after    9 cycles
 Optimization completed.
    -- Stationary point found.

                          Input orientation:
 ---------------------------------------------------------------------
 Center     Atomic      Atomic             Coordinates (Angstroms)
 Number     Number       Type             X           Y           Z
 ---------------------------------------------------------------------
      1          5           0        0.737225   -0.000003    0.000000
      2          1           0        1.929362    0.000907    0.000000
 ---------------------------------------------------------------------

 Alpha  occ. eigenvalues --   -7.11733  -0.56900  -0.35103  -0.23045
 Alpha virt. eigenvalues --   -0.06170   0.03521   0.04887   0.05466   0.05994
 Alpha virt. eigenvalues --    0.17327   0.35548   0.39914   0.41859   0.43125
 Alpha virt. eigenvalues --    0.56194   0.79025   0.79450   0.83747   0.84073

  Beta  occ. eigenvalues --   -7.10092  -0.50852
  Beta virt. eigenvalues --   -0.15914  -0.05636  -0.04259   0.03585   0.10340
  Beta virt. eigenvalues --    0.10379   0.13081   0.13750   0.25990   0.35221
  Beta virt. eigenvalues --    0.36092   0.36679   0.56554   0.74728   0.75270

 Mulliken charges and spin densities:
               1          2
     1  B   -0.067700   1.893613
     2  H    0.067700   0.106387
 Sum of Mulliken charges =  -0.00000   2.00000

 Dipole moment (field-independent basis, Debye):
    X=              0.2923    Y=              0.0002    Z=             -0.0000  Tot=              0.2923
 Quadrupole moment (field-independent basis, Debye-Ang):
   XX=             -6.9067   YY=             -9.5865   ZZ=             -6.2461
   XY=              0.0019   XZ=              0.0000   YZ=             -0.0000

 1\1\GINC-NODE02\FOpt\UM062X\6-311+G(d,p)\B1H1(3)\SZHAO\16-Apr-2025\0\\
 #p opt UM062X/6-311+G** nosymm int=superfine\\Title Card Required\\0,3
 \B,0.7372253788,-0.0000031916,0.\H,1.9293616612,0.0009073616,0.\\Versi
 on=ES64L-G16RevA.03\HF=-25.2350791\S2=2.001087\S2-1=0.\S2A=2.\RMSD=3.2
 02e-09\RMSF=1.009e-04\Dipole=0.1149938,0.0000876,0.\Quadrupole=0.50044
 41,-1.4919809,0.9915369,0.001398,0.,-0.0000017\PG=C*V [C*(H1B1)]\\@

 Normal termination of Gaussian 16 at Wed Apr 16 07:00:54 2025.
