 Gaussian 16, Revision A.03,
 Gaussian 16:  ES64L-G16RevA.03 25-Dec-2016

 --------------------------------------------
 #p opt UM062X/6-311+G** nosymm int=superfine
 --------------------------------------------

 -------------------
 Title Card Required
 -------------------
 Symbolic Z-matrix:
 Charge = -1 Multiplicity = 2

 SCF Done:  E(UM062X) =  -50.5400944861     A.U. after   17 cycles
 SCF Done:  E(UM062X) =  -50.5470954161     A.U. after   15 cycles
 SCF Done:  E(UM062X) =  -50.5478726678     A.U. after   14 cycles
 Optimization completed.
    -- Stationary point found.

                          Input orientation:
 ---------------------------------------------------------------------
 Center     Atomic      Atomic             Coordinates (Angstroms)
 Number     Number       Type             X           Y           Z
 ---------------------------------------------------------------------
      1          5           0       -1.466404    0.000000    0.000000
      2          5           0        1.466404    0.000000    0.000000
      3          1           0       -2.767704   -0.000980    0.000005
      4          1           0        2.767704    0.000980   -0.000005
 ---------------------------------------------------------------------

 Alpha  occ. eigenvalues --   -6.89916  -6.89914  -0.33018  -0.32282  -0.11637
 Alpha  occ. eigenvalues --   -0.01863   0.01893
 Alpha virt. eigenvalues --    0.12351   0.13113   0.15330   0.16038   0.16577
 Alpha virt. eigenvalues --    0.22030   0.22372   0.22584   0.22688   0.24162
 Alpha virt. eigenvalues --    0.26200   0.35017   0.38557   0.54370   0.58344

  Beta  occ. eigenvalues --   -6.89833  -6.89833  -0.31892  -0.31400  -0.10348
  Beta  occ. eigenvalues --   -0.00868
  Beta virt. eigenvalues --    0.10093   0.11221   0.13402   0.13579   0.14085
  Beta virt. eigenvalues --    0.14564   0.18830   0.20447   0.20492   0.21780
  Beta virt. eigenvalues --    0.22349   0.23156   0.34652   0.38739   0.53885

 Mulliken charges and spin densities:
               1          2
     1  B   -0.388839   0.507304
     2  B   -0.388839   0.507304
     3  H   -0.111161  -0.007304
     4  H   -0.111161  -0.007304
 Sum of Mulliken charges =  -1.00000   1.00000

 Dipole moment (field-independent basis, Debye):
    X=              0.0000    Y=             -0.0000    Z=              0.0000  Tot=              0.0000
 Quadrupole moment (field-independent basis, Debye-Ang):
   XX=            -39.5550   YY=            -19.0698   ZZ=            -26.4396
   XY=             -0.0017   XZ=              0.0000   YZ=             -0.0369

 Normal termination of Gaussian 16 at Mon Apr 21 17:29:14 2025.
