 Gaussian 16, Revision A.03,
 Gaussian 16:  ES64L-G16RevA.03 25-Dec-2016

 --------------------------------------------
 #p opt UM062X/6-311+G** nosymm int=superfine
 --------------------------------------------

 -------------------
 Title Card Required
 -------------------
 Symbolic Z-matrix:
 Charge =  0 Multiplicity = 1

 SCF Done:  E(UM062X) =  -380.927337357     A.U. after   18 cycles
 SCF Done:  E(UM062X) =  -380.930315977     A.U. after   17 cycles
 SCF Done:  E(UM062X) =  -380.931293094     A.U. after   18 cycles
 SCF Done:  E(UM062X) =  -380.931321148     A.U. after   15 cycles
 SCF Done:  E(UM062X) =  -380.931515501     A.U. after   17 cycles
 SCF Done:  E(UM062X) =  -380.931572545     A.U. after   14 cycles
 SCF Done:  E(UM062X) =  -380.931590036     A.U. after   20 cycles
 SCF Done:  E(UM062X) =  -380.931592318     A.U. after   14 cycles
 SCF Done:  E(UM062X) =  -380.931592642     A.U. after   17 cycles
 SCF Done:  E(UM062X) =  -380.931592798     A.U. after   15 cycles
 SCF Done:  E(UM062X) =  -380.931515255     A.U. after   30 cycles
 SCF Done:  E(UM062X) =  -380.931550608     A.U. after   18 cycles
 SCF Done:  E(UM062X) =  -380.931599320     A.U. after   14 cycles
 SCF Done:  E(UM062X) =  -380.931584948     A.U. after   34 cycles
 SCF Done:  E(UM062X) =  -380.931601551     A.U. after   18 cycles
 SCF Done:  E(UM062X) =  -380.931601954     A.U. after   14 cycles
 SCF Done:  E(UM062X) =  -380.931602663     A.U. after   16 cycles
 SCF Done:  E(UM062X) =  -380.931602702     A.U. after   19 cycles
 SCF Done:  E(UM062X) =  -380.931602755     A.U. after   15 cycles
 SCF Done:  E(UM062X) =  -380.931602759     A.U. after   15 cycles
 Optimization completed.
    -- Stationary point found.

                          Input orientation:
 ---------------------------------------------------------------------
 Center     Atomic      Atomic             Coordinates (Angstroms)
 Number     Number       Type             X           Y           Z
 ---------------------------------------------------------------------
      1          6           0       -2.180452    0.000000    0.000000
      2         15           0        2.180452    0.000000    0.000000
      3          1           0       -2.908941   -0.833037    0.047658
      4          1           0        1.870998   -1.384837   -0.074834
      5          1           0       -2.836363    0.891480   -0.042916
 ---------------------------------------------------------------------

 Alpha  occ. eigenvalues --  -78.04667 -10.61994  -6.86935  -4.98949  -4.98173
 Alpha  occ. eigenvalues --   -4.97711  -0.76708  -0.65785  -0.48748  -0.38450
 Alpha  occ. eigenvalues --   -0.32643  -0.24578
 Alpha virt. eigenvalues --   -0.11504  -0.09236   0.01480   0.03679   0.04591
 Alpha virt. eigenvalues --    0.05983   0.06917   0.07251   0.08773   0.10334
 Alpha virt. eigenvalues --    0.13441   0.17390   0.18915   0.31260   0.33243

  Beta  occ. eigenvalues --  -78.04667 -10.61994  -6.86935  -4.98949  -4.98173
  Beta  occ. eigenvalues --   -4.97711  -0.76708  -0.65785  -0.48748  -0.38450
  Beta  occ. eigenvalues --   -0.32643  -0.24578
  Beta virt. eigenvalues --   -0.11504  -0.09236   0.01480   0.03679   0.04591
  Beta virt. eigenvalues --    0.05983   0.06917   0.07251   0.08773   0.10334
  Beta virt. eigenvalues --    0.13441   0.17390   0.18915   0.31260   0.33243

 Mulliken charges and spin densities:
               1          2
     1  C   -0.281260  -0.000000
     2  P    0.041274   0.000000
     3  H    0.136423  -0.000000
     4  H   -0.032732   0.000000
     5  H    0.136295   0.000000
 Sum of Mulliken charges =   0.00000  -0.00000

 Dipole moment (field-independent basis, Debye):
    X=             -2.4796    Y=             -0.5839    Z=             -0.0291  Tot=              2.5476
 Quadrupole moment (field-independent basis, Debye-Ang):
   XX=            -12.1806   YY=            -21.3185   ZZ=            -25.2242
   XY=             -2.2475   XZ=             -0.1039   YZ=              0.2815

 Normal termination of Gaussian 16 at Mon Apr 21 19:23:40 2025.
