 Gaussian 16, Revision A.03,
 Gaussian 16:  ES64L-G16RevA.03 25-Dec-2016

 --------------------------------------------
 #p opt UM062X/6-311+G** nosymm int=superfine
 --------------------------------------------

 -------------------
 Title Card Required
 -------------------
 Symbolic Z-matrix:
 Charge =  0 Multiplicity = 1

 SCF Done:  E(UM062X) =  -95.8169337089     A.U. after   11 cycles
 SCF Done:  E(UM062X) =  -95.8195185736     A.U. after   10 cycles
 SCF Done:  E(UM062X) =  -95.8195938704     A.U. after    9 cycles
 SCF Done:  E(UM062X) =  -95.8195944064     A.U. after    7 cycles
 Optimization completed.
    -- Stationary point found.

                          Input orientation:
 ---------------------------------------------------------------------
 Center     Atomic      Atomic             Coordinates (Angstroms)
 Number     Number       Type             X           Y           Z
 ---------------------------------------------------------------------
      1          6           0       -0.830542    0.000000    0.000000
      2          7           0        0.830542    0.000000    0.000000
      3          1           0        1.102431   -0.977353    0.059866
      4          1           0       -1.132250    1.043508   -0.013060
      5          1           0        1.102417    0.418646    0.885190
      6          1           0       -1.132228   -0.490639   -0.921066
      7          1           0       -1.232311   -0.515671    0.871289
 ---------------------------------------------------------------------

 Alpha  occ. eigenvalues --  -14.73291 -10.56461  -0.94638  -0.75944  -0.54509
 Alpha  occ. eigenvalues --   -0.49348  -0.45190  -0.43685  -0.31880
 Alpha virt. eigenvalues --    0.01452   0.03504   0.05118   0.05943   0.11129
 Alpha virt. eigenvalues --    0.13884   0.15858   0.17604   0.18553   0.19368
 Alpha virt. eigenvalues --    0.21988   0.22220   0.23299   0.29700   0.42785

  Beta  occ. eigenvalues --  -14.73291 -10.56461  -0.94638  -0.75944  -0.54509
  Beta  occ. eigenvalues --   -0.49348  -0.45190  -0.43685  -0.31880
  Beta virt. eigenvalues --    0.01452   0.03504   0.05118   0.05943   0.11129
  Beta virt. eigenvalues --    0.13884   0.15858   0.17604   0.18553   0.19368
  Beta virt. eigenvalues --    0.21988   0.22220   0.23299   0.29700   0.42785

 Mulliken charges and spin densities:
               1          2
     1  C   -0.411218   0.000000
     2  N   -0.540234  -0.000000
     3  H    0.236919  -0.000000
     4  H    0.163711   0.000000
     5  H    0.236908   0.000000
     6  H    0.163730  -0.000000
     7  H    0.150184  -0.000000
 Sum of Mulliken charges =   0.00000  -0.00000

 Dipole moment (field-independent basis, Debye):
    X=             -0.9751    Y=             -0.7912    Z=              1.3383  Tot=              1.8352
 Quadrupole moment (field-independent basis, Debye-Ang):
   XX=            -14.7483   YY=            -13.2849   ZZ=            -14.3573
   XY=             -1.2098   XZ=              2.0461   YZ=              0.9747

 Normal termination of Gaussian 16 at Mon Apr 21 18:09:43 2025.
