 Gaussian 16, Revision A.03,
 Gaussian 16:  ES64L-G16RevA.03 25-Dec-2016

 ---------------------------------------
 #p UM062X/6-311+G** force int=superfine
 ---------------------------------------

 -------------------
 Title Card Required
 -------------------
 Symbolic Z-matrix:
 Charge =  1 Multiplicity = 2

                         Standard orientation:
 ---------------------------------------------------------------------
 Center     Atomic      Atomic             Coordinates (Angstroms)
 Number     Number       Type             X           Y           Z
 ---------------------------------------------------------------------
      1          6           0        0.125919   -0.446734    1.707101
      2          6           0       -0.125913    0.446739   -1.707099
      3          1           0        0.639262   -0.268048   -1.987324
      4          1           0       -0.146624   -1.473904    1.493616
      5          1           0        0.146342    1.474152   -1.494407
      6          1           0       -1.170844    0.160470   -1.740237
      7          1           0       -0.639113    0.268179    1.987395
      8          1           0        1.170942   -0.160881    1.740950
 ---------------------------------------------------------------------

 SCF Done:  E(UM062X) =  -79.3253620783     A.U. after   10 cycles

 The electronic state is 2-A.
 Alpha  occ. eigenvalues --  -10.84281 -10.84280  -1.02874  -1.02226  -0.73805
 Alpha  occ. eigenvalues --   -0.73804  -0.73536  -0.73536  -0.49543
 Alpha virt. eigenvalues --   -0.36966  -0.13260  -0.10216  -0.09871  -0.09871
 Alpha virt. eigenvalues --   -0.06244  -0.06244  -0.04580  -0.03202  -0.00919
 Alpha virt. eigenvalues --   -0.00916   0.01275   0.01277   0.03589   0.08148

  Beta  occ. eigenvalues --  -10.84073 -10.84073  -1.00181  -0.99752  -0.73299
  Beta  occ. eigenvalues --   -0.73298  -0.73014  -0.73014
  Beta virt. eigenvalues --   -0.32731  -0.26409  -0.15790  -0.11121  -0.11121
  Beta virt. eigenvalues --   -0.10142  -0.06303  -0.06302  -0.05010  -0.02276
  Beta virt. eigenvalues --   -0.01266  -0.01263   0.01558   0.01560   0.03844

 Mulliken charges and spin densities:
               1          2
     1  C   -0.262996   0.560144
     2  C   -0.262996   0.560145
     3  H    0.254347  -0.020051
     4  H    0.254321  -0.020037
     5  H    0.254344  -0.020036
     6  H    0.254305  -0.020058
     7  H    0.254349  -0.020051
     8  H    0.254327  -0.020057
 Sum of Mulliken charges =   1.00000   1.00000

 Dipole moment (field-independent basis, Debye):
    X=             -0.0000    Y=             -0.0001    Z=             -0.0000  Tot=              0.0001
 Quadrupole moment (field-independent basis, Debye-Ang):
   XX=            -11.0125   YY=            -10.1327   ZZ=              2.8713
   XY=             -0.2691   XZ=              1.0285   YZ=             -3.6518

 Normal termination of Gaussian 16 at Wed Nov 13 13:04:16 2024.
