 Gaussian 16, Revision A.03,
 Gaussian 16:  ES64L-G16RevA.03 25-Dec-2016

 --------------------------------------------
 #p opt UM062X/6-311+G** nosymm int=superfine
 --------------------------------------------

 -------------------
 Title Card Required
 -------------------
 Symbolic Z-matrix:
 Charge =  0 Multiplicity = 1

 SCF Done:  E(UM062X) =  -93.1184825018     A.U. after   10 cycles
 SCF Done:  E(UM062X) =  -93.1188815621     A.U. after   10 cycles
 Optimization completed.
    -- Stationary point found.

                          Input orientation:
 ---------------------------------------------------------------------
 Center     Atomic      Atomic             Coordinates (Angstroms)
 Number     Number       Type             X           Y           Z
 ---------------------------------------------------------------------
      1          6           0       -0.872395    0.000000    0.000000
      2          7           0        0.872395    0.000000    0.000000
      3          1           0       -1.964867   -0.000000    0.000000
 ---------------------------------------------------------------------

 Alpha  occ. eigenvalues --  -14.89050 -10.71537  -0.87354  -0.74303  -0.46488
 Alpha  occ. eigenvalues --   -0.34488  -0.34488
 Alpha virt. eigenvalues --   -0.09676  -0.09676  -0.01768   0.02059   0.07194
 Alpha virt. eigenvalues --    0.07194   0.07461   0.13876   0.17138   0.17138
 Alpha virt. eigenvalues --    0.22577   0.27428   0.49948   0.55379   0.55379

  Beta  occ. eigenvalues --  -14.89050 -10.71537  -0.87354  -0.74303  -0.46488
  Beta  occ. eigenvalues --   -0.34488  -0.34488
  Beta virt. eigenvalues --   -0.09676  -0.09676  -0.01768   0.02059   0.07194
  Beta virt. eigenvalues --    0.07194   0.07461   0.13876   0.17138   0.17138
  Beta virt. eigenvalues --    0.22577   0.27428   0.49948   0.55379   0.55379

 Mulliken charges and spin densities:
               1          2
     1  C   -0.169102  -0.000000
     2  N   -0.071691   0.000000
     3  H    0.240793   0.000000
 Sum of Mulliken charges =  -0.00000  -0.00000

 Dipole moment (field-independent basis, Debye):
    X=             -3.1448    Y=              0.0000    Z=             -0.0000  Tot=              3.1448
 Quadrupole moment (field-independent basis, Debye-Ang):
   XX=             -7.8479   YY=            -13.6579   ZZ=            -13.6579
   XY=             -0.0000   XZ=              0.0000   YZ=             -0.0000

 Normal termination of Gaussian 16 at Mon Apr 21 18:37:46 2025.
