 Gaussian 16, Revision A.03,
 Gaussian 16:  ES64L-G16RevA.03 25-Dec-2016

 --------------------------------------------
 #p opt UM062X/6-311+G** nosymm int=superfine
 --------------------------------------------

 -------------------
 Title Card Required
 -------------------
 Symbolic Z-matrix:
 Charge =  0 Multiplicity = 1

 SCF Done:  E(UM062X) =  -111.649099029     A.U. after   16 cycles
 SCF Done:  E(UM062X) =  -111.663724944     A.U. after   16 cycles
 SCF Done:  E(UM062X) =  -111.671921544     A.U. after   15 cycles
 SCF Done:  E(UM062X) =  -111.673309893     A.U. after   13 cycles
 SCF Done:  E(UM062X) =  -111.674466284     A.U. after   13 cycles
 SCF Done:  E(UM062X) =  -111.675033644     A.U. after   13 cycles
 SCF Done:  E(UM062X) =  -111.675431027     A.U. after   13 cycles
 SCF Done:  E(UM062X) =  -111.675496947     A.U. after   11 cycles
 SCF Done:  E(UM062X) =  -111.675546228     A.U. after   12 cycles
 SCF Done:  E(UM062X) =  -111.675571296     A.U. after   12 cycles
 SCF Done:  E(UM062X) =  -111.675572818     A.U. after   10 cycles
 SCF Done:  E(UM062X) =  -111.675572857     A.U. after    9 cycles
 Optimization completed.
    -- Stationary point found.

                          Input orientation:
 ---------------------------------------------------------------------
 Center     Atomic      Atomic             Coordinates (Angstroms)
 Number     Number       Type             X           Y           Z
 ---------------------------------------------------------------------
      1          7           0       -1.461540    0.000000    0.000000
      2          7           0        1.461540    0.000000    0.000000
      3          1           0       -1.382503   -0.817783   -0.616697
      4          1           0        1.382524    0.413919   -0.936891
      5          1           0       -1.382461   -0.414300    0.936718
      6          1           0        1.382334    0.818018    0.616360
 ---------------------------------------------------------------------

 Alpha  occ. eigenvalues --  -14.80480 -14.80477  -0.95319  -0.94116  -0.55191
 Alpha  occ. eigenvalues --   -0.54402  -0.40962  -0.40019  -0.31024
 Alpha virt. eigenvalues --   -0.15234   0.04583   0.06714   0.08716   0.11464
 Alpha virt. eigenvalues --    0.12951   0.13907   0.15804   0.15955   0.19207
 Alpha virt. eigenvalues --    0.20277   0.26726   0.27584   0.51376   0.51547

  Beta  occ. eigenvalues --  -14.80480 -14.80477  -0.95319  -0.94116  -0.55191
  Beta  occ. eigenvalues --   -0.54402  -0.40962  -0.40019  -0.31024
  Beta virt. eigenvalues --   -0.15234   0.04583   0.06714   0.08716   0.11464
  Beta virt. eigenvalues --    0.12951   0.13907   0.15804   0.15955   0.19207
  Beta virt. eigenvalues --    0.20277   0.26726   0.27584   0.51376   0.51547

 Mulliken charges and spin densities:
               1          2
     1  N   -0.502488   0.000001
     2  N   -0.502459  -0.000001
     3  H    0.251231  -0.000000
     4  H    0.251229   0.000000
     5  H    0.251244  -0.000000
     6  H    0.251243   0.000000
 Sum of Mulliken charges =  -0.00000  -0.00000

 Dipole moment (field-independent basis, Debye):
    X=             -0.0001    Y=             -0.0002    Z=             -0.0008  Tot=              0.0008
 Quadrupole moment (field-independent basis, Debye-Ang):
   XX=            -15.7822   YY=            -14.2148   ZZ=            -11.4475
   XY=              6.2113   XZ=             -1.6149   YZ=              0.7715

 Normal termination of Gaussian 16 at Thu May 15 14:45:34 2025.
