 Gaussian 16, Revision A.03,
 Gaussian 16:  ES64L-G16RevA.03 25-Dec-2016

 ---------------------------------------------------------
 #p opt UM062X/6-311+G** nosymm int=superfine SCF=NoVarAcc
 ---------------------------------------------------------

 -------------------
 Title Card Required
 -------------------
 Symbolic Z-matrix:
 Charge =  1 Multiplicity = 2

 SCF Done:  E(UM062X) =  -77.9017286015     A.U. after   10 cycles
 SCF Done:  E(UM062X) =  -77.9056572589     A.U. after    9 cycles
 SCF Done:  E(UM062X) =  -77.9082065258     A.U. after    9 cycles
 SCF Done:  E(UM062X) =  -77.9082098829     A.U. after    8 cycles
 Optimization completed.
    -- Stationary point found.

                          Input orientation:
 ---------------------------------------------------------------------
 Center     Atomic      Atomic             Coordinates (Angstroms)
 Number     Number       Type             X           Y           Z
 ---------------------------------------------------------------------
      1          6           0       -1.981027    0.000000    0.000000
      2          6           0        1.981027    0.000000    0.000000
      3          1           0       -2.539250   -0.942768   -0.000000
      4          1           0       -2.539194    0.942801   -0.000000
      5          1           0        2.539250    0.942768    0.000000
      6          1           0        2.539194   -0.942801    0.000000
 ---------------------------------------------------------------------

 Alpha  occ. eigenvalues --  -10.88501 -10.88501  -0.99806  -0.99745  -0.74492
 Alpha  occ. eigenvalues --   -0.74458  -0.58090  -0.56736
 Alpha virt. eigenvalues --   -0.31728  -0.31389  -0.12669  -0.10832  -0.09038
 Alpha virt. eigenvalues --   -0.07106  -0.06393  -0.05616  -0.04199  -0.01505
 Alpha virt. eigenvalues --   -0.00353   0.00329   0.02252   0.05531   0.27362

  Beta  occ. eigenvalues --  -10.87704 -10.87703  -0.97621  -0.97437  -0.73461
  Beta  occ. eigenvalues --   -0.73416  -0.46805
  Beta virt. eigenvalues --   -0.36141  -0.29903  -0.29461  -0.12446  -0.10943
  Beta virt. eigenvalues --   -0.08866  -0.06905  -0.06490  -0.04462  -0.03866
  Beta virt. eigenvalues --   -0.01265   0.00360   0.00711   0.02352   0.06271

 Mulliken charges and spin densities:
               1          2
     1  C    0.022852   0.486311
     2  C    0.022852   0.486311
     3  H    0.238575   0.006844
     4  H    0.238574   0.006844
     5  H    0.238575   0.006844
     6  H    0.238574   0.006844
 Sum of Mulliken charges =   1.00000   1.00000

 Dipole moment (field-independent basis, Debye):
    X=              0.0000    Y=             -0.0000    Z=             -0.0000  Tot=              0.0000
 Quadrupole moment (field-independent basis, Debye-Ang):
   XX=             19.6727   YY=             -9.4346   ZZ=            -10.7394
   XY=             -0.0001   XZ=              0.0000   YZ=              0.0000

 Normal termination of Gaussian 16 at Tue Dec  3 13:33:17 2024.
