 Gaussian 16, Revision A.03,
 Gaussian 16:  ES64L-G16RevA.03 25-Dec-2016

 --------------------------------------------
 #p opt UM062X/6-311+G** nosymm int=superfine
 --------------------------------------------

 -------------------
 Title Card Required
 -------------------
 Symbolic Z-matrix:
 Charge =  1 Multiplicity = 2

 SCF Done:  E(UM062X) =  -79.3593845677     A.U. after   10 cycles
 SCF Done:  E(UM062X) =  -79.3683249734     A.U. after    9 cycles
 SCF Done:  E(UM062X) =  -79.3683506956     A.U. after    7 cycles
 Optimization completed.
    -- Stationary point found.

                          Input orientation:
 ---------------------------------------------------------------------
 Center     Atomic      Atomic             Coordinates (Angstroms)
 Number     Number       Type             X           Y           Z
 ---------------------------------------------------------------------
      1          6           0       -0.941604    0.000000    0.000000
      2          6           0        0.941604    0.000000    0.000000
      3          1           0        1.101022   -0.930300    0.538347
      4          1           0       -1.100327   -0.931470   -0.536560
      5          1           0        1.100462    0.931488    0.536487
      6          1           0        1.100354   -0.001051   -1.074952
      7          1           0       -1.101030    0.930314   -0.538321
      8          1           0       -1.100479    0.000984    1.074932
 ---------------------------------------------------------------------

 Alpha  occ. eigenvalues --  -10.86144 -10.86129  -1.12709  -1.00904  -0.79816
 Alpha  occ. eigenvalues --   -0.79813  -0.73176  -0.73176  -0.65715
 Alpha virt. eigenvalues --   -0.19972  -0.16790  -0.11415  -0.11414  -0.09658
 Alpha virt. eigenvalues --   -0.07583  -0.06570  -0.06567  -0.05758  -0.05757
 Alpha virt. eigenvalues --   -0.01515   0.01413   0.01417   0.03913   0.07535

  Beta  occ. eigenvalues --  -10.85917 -10.85917  -1.09044  -0.97686  -0.78718
  Beta  occ. eigenvalues --   -0.78715  -0.72295  -0.72294
  Beta virt. eigenvalues --   -0.41697  -0.16268  -0.15492  -0.11249  -0.11249
  Beta virt. eigenvalues --   -0.07794  -0.06934  -0.06707  -0.06706  -0.05343
  Beta virt. eigenvalues --   -0.05340  -0.00392   0.02141   0.02145   0.04482

 Mulliken charges and spin densities:
               1          2
     1  C   -0.324883   0.535212
     2  C   -0.324883   0.535212
     3  H    0.274964  -0.011785
     4  H    0.274957  -0.011710
     5  H    0.274962  -0.011714
     6  H    0.274956  -0.011713
     7  H    0.274964  -0.011785
     8  H    0.274961  -0.011716
 Sum of Mulliken charges =   1.00000   1.00000

 Dipole moment (field-independent basis, Debye):
    X=              0.0000    Y=             -0.0000    Z=             -0.0000  Tot=              0.0000
 Quadrupole moment (field-independent basis, Debye-Ang):
   XX=             -7.0055   YY=            -10.6994   ZZ=            -10.6992
   XY=             -0.0003   XZ=              0.0002   YZ=              0.0002

 Normal termination of Gaussian 16 at Wed Nov 13 13:29:36 2024.
