 Gaussian 16, Revision A.03,
 Gaussian 16:  ES64L-G16RevA.03 25-Dec-2016

 --------------------------------------------
 #p opt UM062X/6-311+G** nosymm int=superfine
 --------------------------------------------

 -------------------
 Title Card Required
 -------------------
 Symbolic Z-matrix:
 Charge =  0 Multiplicity = 1

 SCF Done:  E(UM062X) =  -51.8021077607     A.U. after   10 cycles
 SCF Done:  E(UM062X) =  -51.8073058707     A.U. after    9 cycles
 SCF Done:  E(UM062X) =  -51.8102872799     A.U. after   11 cycles
 SCF Done:  E(UM062X) =  -51.8102899335     A.U. after    9 cycles
 SCF Done:  E(UM062X) =  -51.8102831070     A.U. after    8 cycles
 SCF Done:  E(UM062X) =  -51.8102891145     A.U. after    9 cycles
 SCF Done:  E(UM062X) =  -51.8102898874     A.U. after    8 cycles
 Optimization completed.
    -- Stationary point found.

                          Input orientation:
 ---------------------------------------------------------------------
 Center     Atomic      Atomic             Coordinates (Angstroms)
 Number     Number       Type             X           Y           Z
 ---------------------------------------------------------------------
      1          5           0       -1.945607    0.000000    0.000000
      2          5           0        1.945607    0.000000    0.000000
      3          1           0       -2.410172   -1.084298    0.000641
      4          1           0        2.410172    1.084286   -0.005180
      5          1           0       -2.410174    1.084297    0.000884
      6          1           0        2.410174   -1.084277    0.006698
 ---------------------------------------------------------------------

 Alpha  occ. eigenvalues --   -7.11398  -7.11397  -0.57858  -0.57505  -0.45051
 Alpha  occ. eigenvalues --   -0.44943  -0.20408
 Alpha virt. eigenvalues --   -0.06691  -0.05177  -0.03895   0.02284   0.03262
 Alpha virt. eigenvalues --    0.03851   0.05464   0.06239   0.07262   0.08263
 Alpha virt. eigenvalues --    0.10065   0.15438   0.16101   0.17131   0.24352

  Beta  occ. eigenvalues --   -7.11398  -7.11397  -0.57858  -0.57505  -0.45051
  Beta  occ. eigenvalues --   -0.44943  -0.20408
  Beta virt. eigenvalues --   -0.06691  -0.05177  -0.03895   0.02284   0.03262
  Beta virt. eigenvalues --    0.03851   0.05464   0.06239   0.07262   0.08263
  Beta virt. eigenvalues --    0.10065   0.15438   0.16101   0.17131   0.24352

 Mulliken charges and spin densities:
               1          2
     1  B   -0.057631  -0.000000
     2  B   -0.057631   0.000000
     3  H    0.028815  -0.000000
     4  H    0.028815   0.000000
     5  H    0.028815  -0.000000
     6  H    0.028815   0.000000
 Sum of Mulliken charges =  -0.00000   0.00000

 Dipole moment (field-independent basis, Debye):
    X=              0.0000    Y=              0.0000    Z=              0.0014  Tot=              0.0014
 Quadrupole moment (field-independent basis, Debye-Ang):
   XX=            -11.4482   YY=            -16.9483   ZZ=            -14.5161
   XY=             -0.0000   XZ=              0.0000   YZ=              0.0065

 Normal termination of Gaussian 16 at Mon Apr 21 17:17:57 2025.
