 Gaussian 16, Revision A.03,
 Gaussian 16:  ES64L-G16RevA.03 25-Dec-2016

 --------------------------------------------
 #p opt UM062X/6-311+G** nosymm int=superfine
 --------------------------------------------

 -------------------
 Title Card Required
 -------------------
 Symbolic Z-matrix:
 Charge =  0 Multiplicity = 1

 SCF Done:  E(UM062X) =  -437.158092911     A.U. after   16 cycles
 SCF Done:  E(UM062X) =  -437.160736275     A.U. after   16 cycles
 SCF Done:  E(UM062X) =  -437.161625201     A.U. after   19 cycles
 SCF Done:  E(UM062X) =  -437.161626301     A.U. after    8 cycles
 Optimization completed.
    -- Stationary point found.

                          Input orientation:
 ---------------------------------------------------------------------
 Center     Atomic      Atomic             Coordinates (Angstroms)
 Number     Number       Type             X           Y           Z
 ---------------------------------------------------------------------
      1          6           0       -2.077140    0.000000    0.000000
      2         16           0        2.077140    0.000000    0.000000
      3          1           0       -2.764201   -0.867616   -0.000047
      4          1           0       -2.765177    0.866842   -0.000171
 ---------------------------------------------------------------------

 Alpha  occ. eigenvalues --  -89.94368 -10.62530  -8.30415  -6.23202  -6.21619
 Alpha  occ. eigenvalues --   -6.21619  -0.77094  -0.74518  -0.49265  -0.32978
 Alpha  occ. eigenvalues --   -0.31846  -0.31838
 Alpha virt. eigenvalues --   -0.16824  -0.09596   0.01480   0.04622   0.05421
 Alpha virt. eigenvalues --    0.06439   0.07990   0.08745   0.08878   0.13918
 Alpha virt. eigenvalues --    0.17354   0.18630   0.35080   0.36636   0.36676

  Beta  occ. eigenvalues --  -89.94368 -10.62530  -8.30415  -6.23202  -6.21619
  Beta  occ. eigenvalues --   -6.21619  -0.77094  -0.74518  -0.49265  -0.32978
  Beta  occ. eigenvalues --   -0.31846  -0.31838
  Beta virt. eigenvalues --   -0.16824  -0.09596   0.01480   0.04622   0.05421
  Beta virt. eigenvalues --    0.06439   0.07990   0.08745   0.08878   0.13918
  Beta virt. eigenvalues --    0.17354   0.18630   0.35080   0.36636   0.36676

 Mulliken charges and spin densities:
               1          2
     1  C   -0.278501  -0.000000
     2  S   -0.002741   0.000000
     3  H    0.140616   0.000000
     4  H    0.140625  -0.000000
 Sum of Mulliken charges =   0.00000   0.00000

 Dipole moment (field-independent basis, Debye):
    X=             -2.5769    Y=             -0.0011    Z=             -0.0003  Tot=              2.5769
 Quadrupole moment (field-independent basis, Debye-Ang):
   XX=            -10.0865   YY=            -22.3732   ZZ=            -21.7228
   XY=              0.0004   XZ=              0.0008   YZ=              0.0000

 Normal termination of Gaussian 16 at Mon Apr 21 19:46:13 2025.
