 Gaussian 16, Revision A.03,
 Gaussian 16:  ES64L-G16RevA.03 25-Dec-2016

 ----------------------------------------------------------------------
 #p opt UM062X/6-311+G** nosymm int=superfine SCF=(MaxCycle=200,NoVarAc
 c,noincfock) guess=read
 ----------------------------------------------------------------------

 -------------------
 Title Card Required
 -------------------
 Symbolic Z-matrix:
 Charge =  0 Multiplicity = 1

 SCF Done:  E(UM062X) =  -151.309695634     A.U. after   21 cycles
 SCF Done:  E(UM062X) =  -151.310333108     A.U. after   18 cycles
 SCF Done:  E(UM062X) =  -151.311396378     A.U. after   22 cycles
 SCF Done:  E(UM062X) =  -151.312164591     A.U. after   21 cycles
 SCF Done:  E(UM062X) =  -151.312572948     A.U. after   16 cycles
 SCF Done:  E(UM062X) =  -151.312703803     A.U. after   20 cycles
 SCF Done:  E(UM062X) =  -151.312715636     A.U. after   15 cycles
 SCF Done:  E(UM062X) =  -151.312720408     A.U. after   18 cycles
 SCF Done:  E(UM062X) =  -151.312720725     A.U. after   14 cycles
 Optimization completed.
    -- Stationary point found.

                          Input orientation:
 ---------------------------------------------------------------------
 Center     Atomic      Atomic             Coordinates (Angstroms)
 Number     Number       Type             X           Y           Z
 ---------------------------------------------------------------------
      1          8           0       -1.811938    0.000000    0.000000
      2          8           0        1.811938    0.000000    0.000000
      3          1           0       -1.614686   -0.760467   -0.575615
      4          1           0        1.614951    0.759390    0.577125
 ---------------------------------------------------------------------

 Alpha  occ. eigenvalues --  -19.72488 -19.72487  -1.13039  -1.12809  -0.56811
 Alpha  occ. eigenvalues --   -0.56673  -0.44247  -0.44075  -0.36447
 Alpha virt. eigenvalues --   -0.26978   0.05065   0.07599   0.14985   0.15080
 Alpha virt. eigenvalues --    0.17258   0.18363   0.19898   0.20453   0.20636
 Alpha virt. eigenvalues --    0.30948   0.48925   0.51504   0.99708   1.00958

  Beta  occ. eigenvalues --  -19.72488 -19.72487  -1.13039  -1.12809  -0.56811
  Beta  occ. eigenvalues --   -0.56673  -0.44247  -0.44075  -0.36447
  Beta virt. eigenvalues --   -0.26978   0.05065   0.07599   0.14985   0.15080
  Beta virt. eigenvalues --    0.17258   0.18363   0.19898   0.20453   0.20636
  Beta virt. eigenvalues --    0.30948   0.48925   0.51504   0.99708   1.00958

 Mulliken charges and spin densities:
               1          2
     1  O   -0.267813   0.000000
     2  O   -0.267833  -0.000000
     3  H    0.267825   0.000000
     4  H    0.267822   0.000000
 Sum of Mulliken charges =  -0.00000   0.00000

 Dipole moment (field-independent basis, Debye):
    X=              0.0004    Y=             -0.0022    Z=              0.0030  Tot=              0.0037
 Quadrupole moment (field-independent basis, Debye-Ang):
   XX=            -13.3942   YY=            -10.5690   ZZ=            -11.9300
   XY=              5.0137   XZ=              3.8026   YZ=              2.4302

 Normal termination of Gaussian 16 at Tue Apr 22 00:16:22 2025.
