 Gaussian 16, Revision A.03,
 Gaussian 16:  ES64L-G16RevA.03 25-Dec-2016

 --------------------------------------------
 #p opt UM062X/6-311+G** nosymm int=superfine
 --------------------------------------------

 -------------------
 Title Card Required
 -------------------
 Symbolic Z-matrix:
 Charge =  0 Multiplicity = 1

 SCF Done:  E(UM062X) =  -114.084627152     A.U. after   18 cycles
 SCF Done:  E(UM062X) =  -114.087400755     A.U. after   10 cycles
 SCF Done:  E(UM062X) =  -114.088267309     A.U. after    9 cycles
 SCF Done:  E(UM062X) =  -114.088271010     A.U. after    8 cycles
 Optimization completed.
    -- Stationary point found.

                          Input orientation:
 ---------------------------------------------------------------------
 Center     Atomic      Atomic             Coordinates (Angstroms)
 Number     Number       Type             X           Y           Z
 ---------------------------------------------------------------------
      1          6           0       -1.898311    0.000000    0.000000
      2          8           0        1.898311    0.000000    0.000000
      3          1           0       -2.586307   -0.867119    0.000001
      4          1           0       -2.586312    0.867115    0.000002
 ---------------------------------------------------------------------

 Alpha  occ. eigenvalues --  -19.75028 -10.62262  -1.04757  -0.76839  -0.49001
 Alpha  occ. eigenvalues --   -0.43658  -0.43654  -0.32576
 Alpha virt. eigenvalues --   -0.17696  -0.09313   0.01804   0.06068   0.07978
 Alpha virt. eigenvalues --    0.08342   0.15910   0.16278   0.18714   0.19237
 Alpha virt. eigenvalues --    0.21216   0.25008   0.43818   0.47651   0.57925

  Beta  occ. eigenvalues --  -19.75028 -10.62262  -1.04757  -0.76839  -0.49001
  Beta  occ. eigenvalues --   -0.43658  -0.43654  -0.32576
  Beta virt. eigenvalues --   -0.17696  -0.09313   0.01804   0.06068   0.07978
  Beta virt. eigenvalues --    0.08342   0.15910   0.16278   0.18714   0.19237
  Beta virt. eigenvalues --    0.21216   0.25008   0.43818   0.47651   0.57925

 Mulliken charges and spin densities:
               1          2
     1  C   -0.266167  -0.000000
     2  O   -0.012245   0.000000
     3  H    0.139206   0.000000
     4  H    0.139206   0.000000
 Sum of Mulliken charges =  -0.00000   0.00000

 Dipole moment (field-independent basis, Debye):
    X=             -2.5572    Y=             -0.0000    Z=              0.0000  Tot=              2.5572
 Quadrupole moment (field-independent basis, Debye-Ang):
   XX=             -4.8799   YY=            -13.1527   ZZ=            -12.4877
   XY=              0.0000   XZ=             -0.0000   YZ=             -0.0000

 Normal termination of Gaussian 16 at Mon Apr 21 18:56:23 2025.
