 Gaussian 16, Revision A.03,
 Gaussian 16:  ES64L-G16RevA.03 25-Dec-2016

 ---------------------------------------
 #p UM062X/6-311+G** force int=superfine
 ---------------------------------------

 -------------------
 Title Card Required
 -------------------
 Symbolic Z-matrix:
 Charge =  0 Multiplicity = 1

                         Standard orientation:
 ---------------------------------------------------------------------
 Center     Atomic      Atomic             Coordinates (Angstroms)
 Number     Number       Type             X           Y           Z
 ---------------------------------------------------------------------
      1          6           0        0.985026   -0.000001   -0.000000
      2          6           0       -0.985026    0.000001    0.000000
      3          1           0       -1.284649   -0.447320    0.942669
      4          1           0        1.284651    0.592745    0.858707
      5          1           0       -1.284653   -0.592743   -0.858706
      6          1           0       -1.284700    1.040020   -0.083958
      7          1           0        1.284648    0.447320   -0.942669
      8          1           0        1.284701   -1.040019    0.083959
 ---------------------------------------------------------------------

 SCF Done:  E(UM062X) =  -79.7488305093     A.U. after    9 cycles

 The electronic state is 1-A.
 Alpha  occ. eigenvalues --  -10.54367 -10.54356  -0.79420  -0.72321  -0.48488
 Alpha  occ. eigenvalues --   -0.48488  -0.43998  -0.43998  -0.34091
 Alpha virt. eigenvalues --    0.02312   0.02948   0.05639   0.05639   0.08521
 Alpha virt. eigenvalues --    0.08521   0.09430   0.12142   0.14136   0.18233
 Alpha virt. eigenvalues --    0.18234   0.21983   0.21984   0.24283   0.27114

  Beta  occ. eigenvalues --  -10.54367 -10.54356  -0.79420  -0.72321  -0.48488
  Beta  occ. eigenvalues --   -0.48488  -0.43998  -0.43998  -0.34091
  Beta virt. eigenvalues --    0.02312   0.02948   0.05639   0.05639   0.08521
  Beta virt. eigenvalues --    0.08521   0.09430   0.12142   0.14136   0.18233
  Beta virt. eigenvalues --    0.18234   0.21983   0.21984   0.24283   0.27114

 Mulliken charges and spin densities:
               1          2
     1  C   -0.495806   0.000000
     2  C   -0.495806  -0.000000
     3  H    0.165269  -0.000000
     4  H    0.165269  -0.000000
     5  H    0.165269   0.000000
     6  H    0.165268   0.000000
     7  H    0.165269  -0.000000
     8  H    0.165268  -0.000000
 Sum of Mulliken charges =  -0.00000   0.00000

 Dipole moment (field-independent basis, Debye):
    X=              0.0000    Y=             -0.0000    Z=             -0.0000  Tot=              0.0000
 Quadrupole moment (field-independent basis, Debye-Ang):
   XX=            -15.5965   YY=            -14.8915   ZZ=            -14.8916
   XY=             -0.0001   XZ=              0.0000   YZ=             -0.0000

 Normal termination of Gaussian 16 at Tue Nov 19 12:50:04 2024.
