 Gaussian 16, Revision A.03,
 Gaussian 16:  ES64L-G16RevA.03 25-Dec-2016

 --------------------------------------------
 #p opt UM062X/6-311+G** nosymm int=superfine
 --------------------------------------------

 -------------------
 Title Card Required
 -------------------
 Symbolic Z-matrix:
 Charge =  0 Multiplicity = 1

 SCF Done:  E(UM062X) =  -79.7963783268     A.U. after    8 cycles
 SCF Done:  E(UM062X) =  -79.7965700464     A.U. after    7 cycles
 SCF Done:  E(UM062X) =  -79.7965735819     A.U. after    6 cycles
 Optimization completed.
    -- Stationary point found.

                          Input orientation:
 ---------------------------------------------------------------------
 Center     Atomic      Atomic             Coordinates (Angstroms)
 Number     Number       Type             X           Y           Z
 ---------------------------------------------------------------------
      1          6           0       -0.748276    0.000000    0.000000
      2          6           0        0.748353    0.000000    0.000000
      3          1           0        1.150393   -0.879167    0.508734
      4          1           0       -1.150307   -0.880166   -0.507015
      5          1           0        1.150384    0.880166    0.507013
      6          1           0        1.150387   -0.000985   -1.015755
      7          1           0       -1.150317    0.879167   -0.508735
      8          1           0       -1.150312    0.000984    1.015754
 ---------------------------------------------------------------------

 Alpha  occ. eigenvalues --  -10.51974 -10.51931  -0.85445  -0.69850  -0.50477
 Alpha  occ. eigenvalues --   -0.50477  -0.43395  -0.39947  -0.39947
 Alpha virt. eigenvalues --    0.02176   0.04120   0.05448   0.05448   0.08792
 Alpha virt. eigenvalues --    0.08792   0.08895   0.13970   0.18811   0.18811
 Alpha virt. eigenvalues --    0.20970   0.20970   0.24128   0.27536   0.30009

  Beta  occ. eigenvalues --  -10.51974 -10.51931  -0.85445  -0.69850  -0.50477
  Beta  occ. eigenvalues --   -0.50477  -0.43395  -0.39947  -0.39947
  Beta virt. eigenvalues --    0.02176   0.04120   0.05448   0.05448   0.08792
  Beta virt. eigenvalues --    0.08792   0.08895   0.13970   0.18811   0.18811
  Beta virt. eigenvalues --    0.20970   0.20970   0.24128   0.27536   0.30009

 Mulliken charges and spin densities:
               1          2
     1  C   -0.467029   0.000000
     2  C   -0.467029  -0.000000
     3  H    0.155676   0.000000
     4  H    0.155676   0.000000
     5  H    0.155676   0.000000
     6  H    0.155677   0.000000
     7  H    0.155676   0.000000
     8  H    0.155677   0.000000
 Sum of Mulliken charges =  -0.00000  -0.00000

 Dipole moment (field-independent basis, Debye):
    X=             -0.0000    Y=             -0.0000    Z=             -0.0000  Tot=              0.0000
 Quadrupole moment (field-independent basis, Debye-Ang):
   XX=            -15.6312   YY=            -14.9680   ZZ=            -14.9680
   XY=             -0.0000   XZ=             -0.0000   YZ=             -0.0000

 Normal termination of Gaussian 16 at Tue Nov 19 11:53:00 2024.
