 Gaussian 16, Revision A.03,
 Gaussian 16:  ES64L-G16RevA.03 25-Dec-2016

 --------------------------------------------
 #p opt UM062X/6-311+G** nosymm int=superfine
 --------------------------------------------

 -------------------
 Title Card Required
 -------------------
 Symbolic Z-matrix:
 Charge =  0 Multiplicity = 1

 SCF Done:  E(UM062X) =  -95.5736321543     A.U. after   18 cycles
 SCF Done:  E(UM062X) =  -95.5884797900     A.U. after   13 cycles
 SCF Done:  E(UM062X) =  -95.5988311385     A.U. after   14 cycles
 SCF Done:  E(UM062X) =  -95.5992466447     A.U. after   11 cycles
 SCF Done:  E(UM062X) =  -95.5997472155     A.U. after   13 cycles
 SCF Done:  E(UM062X) =  -95.6000890124     A.U. after   13 cycles
 SCF Done:  E(UM062X) =  -95.6002080778     A.U. after   12 cycles
 SCF Done:  E(UM062X) =  -95.6002429483     A.U. after   10 cycles
 SCF Done:  E(UM062X) =  -95.6002461124     A.U. after   11 cycles
 SCF Done:  E(UM062X) =  -95.6002465569     A.U. after    9 cycles
 SCF Done:  E(UM062X) =  -95.6002482546     A.U. after   11 cycles
 SCF Done:  E(UM062X) =  -95.6002491850     A.U. after   10 cycles
 SCF Done:  E(UM062X) =  -95.6002494969     A.U. after   11 cycles
 Optimization completed.
    -- Stationary point found.

                          Input orientation:
 ---------------------------------------------------------------------
 Center     Atomic      Atomic             Coordinates (Angstroms)
 Number     Number       Type             X           Y           Z
 ---------------------------------------------------------------------
      1          6           0       -2.030542    0.000000    0.000000
      2          7           0        2.030542    0.000000    0.000000
      3          1           0        1.972788   -1.014653    0.140577
      4          1           0       -2.002946    1.080060    0.013712
      5          1           0        1.973550    0.371143    0.954793
      6          1           0       -2.002724   -0.525796   -0.943526
      7          1           0       -2.151310   -0.549879    0.922454
 ---------------------------------------------------------------------

 Alpha  occ. eigenvalues --  -14.74715 -10.62166  -0.90150  -0.81163  -0.53343
 Alpha  occ. eigenvalues --   -0.53204  -0.50669  -0.35895  -0.24230
 Alpha virt. eigenvalues --   -0.15165   0.01747   0.04550   0.04839   0.07016
 Alpha virt. eigenvalues --    0.09940   0.12973   0.15796   0.16696   0.16719
 Alpha virt. eigenvalues --    0.17562   0.20394   0.21925   0.26616   0.41024

  Beta  occ. eigenvalues --  -14.74715 -10.62166  -0.90150  -0.81163  -0.53343
  Beta  occ. eigenvalues --   -0.53204  -0.50669  -0.35895  -0.24230
  Beta virt. eigenvalues --   -0.15165   0.01747   0.04550   0.04839   0.07016
  Beta virt. eigenvalues --    0.09940   0.12973   0.15796   0.16696   0.16719
  Beta virt. eigenvalues --    0.17562   0.20394   0.21925   0.26616   0.41024

 Mulliken charges and spin densities:
               1          2
     1  C   -0.425004   0.000000
     2  N   -0.578645  -0.000000
     3  H    0.209505  -0.000000
     4  H    0.197885  -0.000000
     5  H    0.209511  -0.000000
     6  H    0.197952  -0.000000
     7  H    0.188798  -0.000000
 Sum of Mulliken charges =  -0.00000   0.00000

 Dipole moment (field-independent basis, Debye):
    X=             -3.5986    Y=             -1.0041    Z=              1.7092  Tot=              4.1085
 Quadrupole moment (field-independent basis, Debye-Ang):
   XX=            -15.9606   YY=            -13.4623   ZZ=            -14.2734
   XY=             -2.0520   XZ=              3.4967   YZ=              0.7282

 Normal termination of Gaussian 16 at Mon Apr 21 18:17:46 2025.
