 Gaussian 16, Revision A.03,
 Gaussian 16:  ES64L-G16RevA.03 25-Dec-2016

 --------------------------------------------
 #p opt UM062X/6-311+G** nosymm int=superfine
 --------------------------------------------

 -------------------
 Title Card Required
 -------------------
 Symbolic Z-matrix:
 Charge =  1 Multiplicity = 2

 SCF Done:  E(UM062X) =  -92.6417200817     A.U. after   97 cycles
 SCF Done:  E(UM062X) =  -92.6421747199     A.U. after   99 cycles
 SCF Done:  E(UM062X) =  -92.6421800821     A.U. after   35 cycles
 Optimization completed.
    -- Stationary point found.

                          Input orientation:
 ---------------------------------------------------------------------
 Center     Atomic      Atomic             Coordinates (Angstroms)
 Number     Number       Type             X           Y           Z
 ---------------------------------------------------------------------
      1          6           0       -1.526540    0.000000    0.000000
      2          7           0        1.526540    0.000000    0.000000
      3          1           0       -2.650324   -0.000000   -0.000000
 ---------------------------------------------------------------------

 Alpha  occ. eigenvalues --  -15.10848 -11.02872  -1.14371  -0.99930  -0.66264
 Alpha  occ. eigenvalues --   -0.66247  -0.63052
 Alpha virt. eigenvalues --   -0.47073  -0.37691  -0.33928  -0.15940  -0.09956
 Alpha virt. eigenvalues --   -0.09492  -0.08571  -0.04370  -0.01146  -0.00993
 Alpha virt. eigenvalues --   -0.00128   0.07892   0.22632   0.29985   0.30156

  Beta  occ. eigenvalues --  -15.06996 -11.05420  -1.09378  -0.92720  -0.79216
  Beta  occ. eigenvalues --   -0.67937
  Beta virt. eigenvalues --   -0.43481  -0.28228  -0.27374  -0.27333  -0.15895
  Beta virt. eigenvalues --   -0.11391  -0.09429  -0.09331  -0.06811  -0.00105
  Beta virt. eigenvalues --    0.00718   0.00806   0.05550   0.22726   0.29734

 Mulliken charges and spin densities:
               1          2
     1  C    0.404899  -1.656288
     2  N    0.230004   2.766358
     3  H    0.365097  -0.110070
 Sum of Mulliken charges =   1.00000   1.00000

 Dipole moment (field-independent basis, Debye):
    X=             -5.6574    Y=             -0.0000    Z=             -0.0000  Tot=              5.6574
 Quadrupole moment (field-independent basis, Debye-Ang):
   XX=              9.2465   YY=             -9.2393   ZZ=            -10.8175
   XY=              0.0000   XZ=              0.0000   YZ=              0.1580

 Normal termination of Gaussian 16 at Mon Apr 21 18:37:30 2025.
