 Gaussian 16, Revision A.03,
 Gaussian 16:  ES64L-G16RevA.03 25-Dec-2016

 --------------------------------------------
 #p opt UM062X/6-311+G** nosymm int=superfine
 --------------------------------------------

 -------------------
 Title Card Required
 -------------------
 Symbolic Z-matrix:
 Charge =  1 Multiplicity = 2

 SCF Done:  E(UM062X) =  -76.8773455649     A.U. after   31 cycles
 SCF Done:  E(UM062X) =  -76.8857276967     A.U. after    9 cycles
 SCF Done:  E(UM062X) =  -76.8857333665     A.U. after    7 cycles
 Optimization completed.
    -- Stationary point found.

                          Input orientation:
 ---------------------------------------------------------------------
 Center     Atomic      Atomic             Coordinates (Angstroms)
 Number     Number       Type             X           Y           Z
 ---------------------------------------------------------------------
      1          6           0       -0.577849    0.000000    0.000000
      2          6           0        0.577849    0.000000    0.000000
      3          1           0       -1.656322   -0.000000    0.000000
      4          1           0        1.656321    0.000000    0.000000
 ---------------------------------------------------------------------

 Alpha  occ. eigenvalues --  -10.92694 -10.92290  -1.26151  -0.96517  -0.90251
 Alpha  occ. eigenvalues --   -0.75652  -0.72723
 Alpha virt. eigenvalues --   -0.24894  -0.22927  -0.14706  -0.14575  -0.11723
 Alpha virt. eigenvalues --   -0.10671  -0.10399  -0.04763  -0.04481  -0.03978
 Alpha virt. eigenvalues --    0.02335   0.04544   0.17661   0.18000   0.28177

  Beta  occ. eigenvalues --  -10.92425 -10.92052  -1.21071  -0.94957  -0.89640
  Beta  occ. eigenvalues --   -0.70151
  Beta virt. eigenvalues --   -0.47905  -0.21433  -0.19151  -0.15645  -0.14060
  Beta virt. eigenvalues --   -0.11772  -0.10912  -0.10563  -0.04197  -0.03712
  Beta virt. eigenvalues --   -0.02961   0.02262   0.04843   0.18138   0.18767

 Mulliken charges and spin densities:
               1          2
     1  C    0.205644   0.519432
     2  C    0.205644   0.519432
     3  H    0.294356  -0.019432
     4  H    0.294356  -0.019432
 Sum of Mulliken charges =   1.00000   1.00000

 Dipole moment (field-independent basis, Debye):
    X=              0.0000    Y=              0.0000    Z=              0.0000  Tot=              0.0000
 Quadrupole moment (field-independent basis, Debye-Ang):
   XX=             -1.1027   YY=             -9.4694   ZZ=            -10.9808
   XY=              0.0000   XZ=              0.0000   YZ=              0.4164

 Normal termination of Gaussian 16 at Tue Nov 19 12:59:44 2024.
