 Gaussian 16, Revision A.03,
 Gaussian 16:  ES64L-G16RevA.03 25-Dec-2016

 --------------------------------------------
 #p opt UM062X/6-311+G** nosymm int=superfine
 --------------------------------------------

 -------------------
 Title Card Required
 -------------------
 Symbolic Z-matrix:
 Charge =  0 Multiplicity = 1

 SCF Done:  E(UM062X) =  -110.197000222     A.U. after   12 cycles
 SCF Done:  E(UM062X) =  -110.200747765     A.U. after   13 cycles
 SCF Done:  E(UM062X) =  -110.205942118     A.U. after   15 cycles
 SCF Done:  E(UM062X) =  -110.206571972     A.U. after   15 cycles
 SCF Done:  E(UM062X) =  -110.206572789     A.U. after   12 cycles
 Optimization completed.
    -- Stationary point found.

                          Input orientation:
 ---------------------------------------------------------------------
 Center     Atomic      Atomic             Coordinates (Angstroms)
 Number     Number       Type             X           Y           Z
 ---------------------------------------------------------------------
      1          7           0       -1.565428    0.000000    0.000000
      2          7           0        1.565428    0.000000    0.000000
      3          1           0       -1.358556   -1.018078    0.000000
      4          1           0        1.358556    1.018078    0.000000
 ---------------------------------------------------------------------

 Alpha  occ. eigenvalues --  -14.88680 -14.88677  -0.93042  -0.92022  -0.49272
 Alpha  occ. eigenvalues --   -0.48658  -0.32407  -0.30656
 Alpha virt. eigenvalues --   -0.20931  -0.18995   0.05336   0.07206   0.10715
 Alpha virt. eigenvalues --    0.11620   0.13297   0.14791   0.15611   0.18134
 Alpha virt. eigenvalues --    0.19558   0.23032   0.51941   0.55106   0.71024

  Beta  occ. eigenvalues --  -14.88680 -14.88677  -0.93042  -0.92022  -0.49272
  Beta  occ. eigenvalues --   -0.48658  -0.32407  -0.30656
  Beta virt. eigenvalues --   -0.20931  -0.18995   0.05336   0.07206   0.10715
  Beta virt. eigenvalues --    0.11620   0.13297   0.14791   0.15611   0.18134
  Beta virt. eigenvalues --    0.19558   0.23032   0.51941   0.55106   0.71024

 Mulliken charges and spin densities:
               1          2
     1  N   -0.239292  -0.000000
     2  N   -0.239292   0.000000
     3  H    0.239292   0.000000
     4  H    0.239292  -0.000000
 Sum of Mulliken charges =  -0.00000  -0.00000

 Dipole moment (field-independent basis, Debye):
    X=             -0.0000    Y=             -0.0000    Z=              0.0000  Tot=              0.0000
 Quadrupole moment (field-independent basis, Debye-Ang):
   XX=            -14.4267   YY=            -11.2054   ZZ=            -14.2045
   XY=              5.2137   XZ=             -0.0000   YZ=             -0.0000

 Normal termination of Gaussian 16 at Thu May 15 15:40:08 2025.
