 Gaussian 16, Revision A.03,
 Gaussian 16:  ES64L-G16RevA.03 25-Dec-2016

 --------------------------------------------
 #p opt UM062X/6-311+G** nosymm int=superfine
 --------------------------------------------

 -------------------
 Title Card Required
 -------------------
 Symbolic Z-matrix:
 Charge =  0 Multiplicity = 1

 SCF Done:  E(UM062X) =  -382.342532559     A.U. after   11 cycles
 SCF Done:  E(UM062X) =  -382.348608300     A.U. after   10 cycles
 SCF Done:  E(UM062X) =  -382.350319497     A.U. after   10 cycles
 SCF Done:  E(UM062X) =  -382.350339641     A.U. after    8 cycles
 SCF Done:  E(UM062X) =  -382.350347879     A.U. after    9 cycles
 SCF Done:  E(UM062X) =  -382.350348330     A.U. after    8 cycles
 SCF Done:  E(UM062X) =  -382.350348417     A.U. after    7 cycles
 Optimization completed.
    -- Stationary point found.

                          Input orientation:
 ---------------------------------------------------------------------
 Center     Atomic      Atomic             Coordinates (Angstroms)
 Number     Number       Type             X           Y           Z
 ---------------------------------------------------------------------
      1          6           0       -1.331264    0.000000    0.000000
      2         15           0        1.331264    0.000000    0.000000
      3          1           0        1.333761   -1.418097    0.027253
      4          1           0       -1.535760    1.036994    0.231277
      5          1           0        1.333697    0.084991    1.415785
      6          1           0       -1.535727   -0.310746   -1.016022
      7          1           0       -1.550624   -0.719739    0.777694
 ---------------------------------------------------------------------

 Alpha  occ. eigenvalues --  -78.03075 -10.57084  -6.85401  -4.96930  -4.96887
 Alpha  occ. eigenvalues --   -4.96688  -0.77582  -0.69178  -0.48775  -0.48765
 Alpha  occ. eigenvalues --   -0.43503  -0.34963  -0.28940
 Alpha virt. eigenvalues --   -0.04656   0.01635   0.04006   0.04484   0.04903
 Alpha virt. eigenvalues --    0.06434   0.06744   0.07563   0.07668   0.12949
 Alpha virt. eigenvalues --    0.17538   0.18889   0.19204   0.25584   0.30176

  Beta  occ. eigenvalues --  -78.03075 -10.57084  -6.85401  -4.96930  -4.96887
  Beta  occ. eigenvalues --   -4.96688  -0.77582  -0.69178  -0.48775  -0.48765
  Beta  occ. eigenvalues --   -0.43503  -0.34963  -0.28940
  Beta virt. eigenvalues --   -0.04656   0.01635   0.04006   0.04484   0.04903
  Beta virt. eigenvalues --    0.06434   0.06744   0.07563   0.07668   0.12949
  Beta virt. eigenvalues --    0.17538   0.18889   0.19204   0.25584   0.30176

 Mulliken charges and spin densities:
               1          2
     1  C   -0.556360   0.000000
     2  P   -0.017662   0.000000
     3  H    0.013893  -0.000000
     4  H    0.182357  -0.000000
     5  H    0.013901  -0.000000
     6  H    0.182368   0.000000
     7  H    0.181503  -0.000000
 Sum of Mulliken charges =  -0.00000   0.00000

 Dipole moment (field-independent basis, Debye):
    X=             -0.7678    Y=             -0.5097    Z=              0.5518  Tot=              1.0742
 Quadrupole moment (field-independent basis, Debye-Ang):
   XX=            -22.8876   YY=            -22.1235   ZZ=            -22.2367
   XY=             -1.0829   XZ=              1.1722   YZ=              0.7133

 Normal termination of Gaussian 16 at Mon Apr 21 19:05:05 2025.
