 Gaussian 16, Revision A.03,
 Gaussian 16:  ES64L-G16RevA.03 25-Dec-2016

 --------------------------------------------
 #p opt UM062X/6-311+G** nosymm int=superfine
 --------------------------------------------

 -------------------
 Title Card Required
 -------------------
 Symbolic Z-matrix:
 Charge =  0 Multiplicity = 1

 SCF Done:  E(UM062X) =  -379.589696771     A.U. after   16 cycles
 SCF Done:  E(UM062X) =  -379.591016594     A.U. after   11 cycles
 SCF Done:  E(UM062X) =  -379.591021743     A.U. after   10 cycles
 Optimization completed.
    -- Stationary point found.

                          Input orientation:
 ---------------------------------------------------------------------
 Center     Atomic      Atomic             Coordinates (Angstroms)
 Number     Number       Type             X           Y           Z
 ---------------------------------------------------------------------
      1          6           0       -1.640377    0.000000    0.000000
      2         15           0        1.640377    0.000000    0.000000
      3          1           0       -2.761154   -0.000000    0.000000
 ---------------------------------------------------------------------

 Alpha  occ. eigenvalues --  -78.08177 -10.71361  -6.90001  -5.01872  -5.00983
 Alpha  occ. eigenvalues --   -5.00983  -0.76158  -0.61103  -0.42050  -0.24564
 Alpha  occ. eigenvalues --   -0.24564
 Alpha virt. eigenvalues --   -0.14686  -0.14686  -0.11541   0.01222   0.04039
 Alpha virt. eigenvalues --    0.05964   0.05964   0.07597   0.08799   0.08799
 Alpha virt. eigenvalues --    0.13788   0.17523   0.32930   0.32930   0.34083

  Beta  occ. eigenvalues --  -78.08177 -10.71361  -6.90001  -5.01872  -5.00983
  Beta  occ. eigenvalues --   -5.00983  -0.76158  -0.61103  -0.42050  -0.24564
  Beta  occ. eigenvalues --   -0.24564
  Beta virt. eigenvalues --   -0.14686  -0.14686  -0.11541   0.01222   0.04039
  Beta virt. eigenvalues --    0.05964   0.05964   0.07597   0.08799   0.08799
  Beta virt. eigenvalues --    0.13788   0.17523   0.32930   0.32930   0.34083

 Mulliken charges and spin densities:
               1          2
     1  C   -0.161046   0.000000
     2  P   -0.015131  -0.000000
     3  H    0.176176  -0.000000
 Sum of Mulliken charges =  -0.00000  -0.00000

 Dipole moment (field-independent basis, Debye):
    X=             -2.3889    Y=             -0.0000    Z=              0.0000  Tot=              2.3889
 Quadrupole moment (field-independent basis, Debye-Ang):
   XX=            -10.6016   YY=            -24.0639   ZZ=            -24.0639
   XY=             -0.0000   XZ=              0.0000   YZ=              0.0000

 Normal termination of Gaussian 16 at Mon Apr 21 19:30:30 2025.
