 Gaussian 16, Revision A.03,
 Gaussian 16:  ES64L-G16RevA.03 25-Dec-2016

 -------------------------------------------------------------------
 #p opt UM062X/6-311+G** nosymm int=superfine SCF=NoVarAcc SCF=tight
 -------------------------------------------------------------------

 -------------------
 Title Card Required
 -------------------
 Symbolic Z-matrix:
 Charge =  1 Multiplicity = 2

 SCF Done:  E(UM062X) =  -77.8883820224     A.U. after   11 cycles
 SCF Done:  E(UM062X) =  -77.8924534060     A.U. after   10 cycles
 SCF Done:  E(UM062X) =  -77.8952601027     A.U. after   10 cycles
 SCF Done:  E(UM062X) =  -77.8952643050     A.U. after    7 cycles
 Optimization completed.
    -- Stationary point found.

                          Input orientation:
 ---------------------------------------------------------------------
 Center     Atomic      Atomic             Coordinates (Angstroms)
 Number     Number       Type             X           Y           Z
 ---------------------------------------------------------------------
      1          6           0       -3.606027    0.000000    0.000000
      2          6           0        3.606027    0.000000    0.000000
      3          1           0       -4.169338   -0.941175   -0.000000
      4          1           0       -4.169273    0.941213    0.000000
      5          1           0        4.169338    0.941175    0.000000
      6          1           0        4.169273   -0.941213    0.000000
 ---------------------------------------------------------------------

 Alpha  occ. eigenvalues --  -10.86153 -10.86153  -0.97721  -0.97720  -0.72348
 Alpha  occ. eigenvalues --   -0.72348  -0.55211  -0.55206
 Alpha virt. eigenvalues --   -0.29429  -0.29426  -0.10256  -0.10034  -0.06175
 Alpha virt. eigenvalues --   -0.06042  -0.05594  -0.04390  -0.03768  -0.01884
 Alpha virt. eigenvalues --    0.02216   0.02440   0.02520   0.03220   0.28533

  Beta  occ. eigenvalues --  -10.85423 -10.85423  -0.95594  -0.95569  -0.71346
  Beta  occ. eigenvalues --   -0.71346  -0.41740
  Beta virt. eigenvalues --   -0.37388  -0.27824  -0.27814  -0.10547  -0.10311
  Beta virt. eigenvalues --   -0.06769  -0.06085  -0.06067  -0.04910  -0.04259
  Beta virt. eigenvalues --   -0.01718   0.02252   0.02590   0.03001   0.03706

 Mulliken charges and spin densities:
               1          2
     1  C    0.036348   0.486056
     2  C    0.036350   0.486057
     3  H    0.231826   0.006972
     4  H    0.231825   0.006972
     5  H    0.231826   0.006972
     6  H    0.231825   0.006972
 Sum of Mulliken charges =   1.00000   1.00000

 Dipole moment (field-independent basis, Debye):
    X=              0.0000    Y=              0.0000    Z=              0.0000  Tot=              0.0000
 Quadrupole moment (field-independent basis, Debye-Ang):
   XX=             73.6033   YY=             -9.5007   ZZ=            -10.6685
   XY=             -0.0003   XZ=              0.0000   YZ=              0.0000

 Normal termination of Gaussian 16 at Tue Dec  3 15:41:17 2024.
