 Gaussian 16, Revision A.03,
 Gaussian 16:  ES64L-G16RevA.03 25-Dec-2016

 ---------------------------------------
 #p UM062X/6-311+G** force int=superfine
 ---------------------------------------

 -------------------
 Title Card Required
 -------------------
 Symbolic Z-matrix:
 Charge =  0 Multiplicity = 1

                         Standard orientation:
 ---------------------------------------------------------------------
 Center     Atomic      Atomic             Coordinates (Angstroms)
 Number     Number       Type             X           Y           Z
 ---------------------------------------------------------------------
      1          6           0       -0.565054   -0.000009    0.000005
      2          6           0        0.565054    0.000009   -0.000006
      3          1           0        1.058058    0.968525   -0.205838
      4          1           0       -1.058075    0.662529    0.735832
      5          1           0        1.058075   -0.662530   -0.735830
      6          1           0        1.058100   -0.306001    0.941662
      7          1           0       -1.058058   -0.968524    0.205840
      8          1           0       -1.058100    0.306002   -0.941661
 ---------------------------------------------------------------------

 SCF Done:  E(UM062X) =  -79.6304037278     A.U. after    9 cycles

 The electronic state is 1-A.
 Alpha  occ. eigenvalues --  -10.49923 -10.49474  -0.95156  -0.67674  -0.55133
 Alpha  occ. eigenvalues --   -0.55132  -0.51705  -0.34770  -0.34769
 Alpha virt. eigenvalues --    0.02040   0.04182   0.04687   0.04687   0.08617
 Alpha virt. eigenvalues --    0.08985   0.08985   0.14263   0.18724   0.18724
 Alpha virt. eigenvalues --    0.20023   0.20024   0.23989   0.27848   0.39308

  Beta  occ. eigenvalues --  -10.49923 -10.49474  -0.95156  -0.67674  -0.55133
  Beta  occ. eigenvalues --   -0.55132  -0.51705  -0.34770  -0.34769
  Beta virt. eigenvalues --    0.02040   0.04182   0.04687   0.04687   0.08617
  Beta virt. eigenvalues --    0.08985   0.08985   0.14263   0.18724   0.18724
  Beta virt. eigenvalues --    0.20023   0.20024   0.23989   0.27848   0.39308

 Mulliken charges and spin densities:
               1          2
     1  C   -0.424443  -0.000000
     2  C   -0.424443   0.000000
     3  H    0.141481  -0.000000
     4  H    0.141480   0.000000
     5  H    0.141480   0.000000
     6  H    0.141482  -0.000000
     7  H    0.141481   0.000000
     8  H    0.141482   0.000000
 Sum of Mulliken charges =  -0.00000   0.00000

 Dipole moment (field-independent basis, Debye):
    X=             -0.0000    Y=             -0.0000    Z=              0.0000  Tot=              0.0000
 Quadrupole moment (field-independent basis, Debye-Ang):
   XX=            -15.6550   YY=            -14.9442   ZZ=            -14.9445
   XY=             -0.0000   XZ=              0.0001   YZ=             -0.0000

 Normal termination of Gaussian 16 at Tue Nov 19 12:37:29 2024.
