 Gaussian 16, Revision A.03,
 Gaussian 16:  ES64L-G16RevA.03 25-Dec-2016

 --------------------------------------------
 #p opt UM062X/6-311+G** nosymm int=superfine
 --------------------------------------------

 -------------------
 Title Card Required
 -------------------
 Symbolic Z-matrix:
 Charge =  0 Multiplicity = 1

 SCF Done:  E(UM062X) =  -51.9893837077     A.U. after    8 cycles
 SCF Done:  E(UM062X) =  -51.9894088797     A.U. after    7 cycles
 SCF Done:  E(UM062X) =  -51.9759223262     A.U. after   11 cycles
 SCF Done:  E(UM062X) =  -51.9913252467     A.U. after    8 cycles
 SCF Done:  E(UM062X) =  -51.9986917070     A.U. after   10 cycles
 SCF Done:  E(UM062X) =  -52.0043259275     A.U. after   10 cycles
 SCF Done:  E(UM062X) =  -51.9975516053     A.U. after   10 cycles
 SCF Done:  E(UM062X) =  -52.0051374702     A.U. after    9 cycles
 SCF Done:  E(UM062X) =  -52.0051710707     A.U. after    9 cycles
 SCF Done:  E(UM062X) =  -52.0051034351     A.U. after    8 cycles
 SCF Done:  E(UM062X) =  -52.0051654168     A.U. after    8 cycles
 SCF Done:  E(UM062X) =  -52.0051707249     A.U. after    8 cycles
 SCF Done:  E(UM062X) =  -52.0051710513     A.U. after    7 cycles
 SCF Done:  E(UM062X) =  -52.0051720941     A.U. after    7 cycles
 Optimization completed.
    -- Stationary point found.

                          Input orientation:
 ---------------------------------------------------------------------
 Center     Atomic      Atomic             Coordinates (Angstroms)
 Number     Number       Type             X           Y           Z
 ---------------------------------------------------------------------
      1          5           0       -0.895607    0.000000    0.000000
      2          5           0        0.895607    0.000000    0.000000
      3          1           0       -1.512300   -0.723395   -0.719717
      4          1           0        1.512289    0.719946   -0.723176
      5          1           0       -1.511485    0.723536    0.720328
      6          1           0        1.511489   -0.720124    0.723735
 ---------------------------------------------------------------------

 Alpha  occ. eigenvalues --   -7.05244  -7.05207  -0.60769  -0.53321  -0.41327
 Alpha  occ. eigenvalues --   -0.41327  -0.34634
 Alpha virt. eigenvalues --   -0.03098  -0.03097   0.02303   0.03121   0.04690
 Alpha virt. eigenvalues --    0.04690   0.06736   0.07750   0.07750   0.11350
 Alpha virt. eigenvalues --    0.15502   0.20736   0.22583   0.22696   0.22696

  Beta  occ. eigenvalues --   -7.05244  -7.05207  -0.60769  -0.53321  -0.41327
  Beta  occ. eigenvalues --   -0.41327  -0.34634
  Beta virt. eigenvalues --   -0.03098  -0.03097   0.02303   0.03121   0.04690
  Beta virt. eigenvalues --    0.04690   0.06736   0.07750   0.07750   0.11350
  Beta virt. eigenvalues --    0.15502   0.20736   0.22583   0.22696   0.22696

 Mulliken charges and spin densities:
               1          2
     1  B   -0.035242   0.000000
     2  B   -0.035242  -0.000000
     3  H    0.017627  -0.000000
     4  H    0.017627   0.000000
     5  H    0.017615   0.000000
     6  H    0.017615   0.000000
 Sum of Mulliken charges =  -0.00000   0.00000

 Dipole moment (field-independent basis, Debye):
    X=              0.0000    Y=              0.0000    Z=             -0.0003  Tot=              0.0003
 Quadrupole moment (field-independent basis, Debye-Ang):
   XX=            -16.8269   YY=            -14.8057   ZZ=            -14.8056
   XY=             -0.0000   XZ=              0.0001   YZ=             -0.0000

 Normal termination of Gaussian 16 at Mon Apr 21 17:01:02 2025.
