 Gaussian 16, Revision A.03,
 Gaussian 16:  ES64L-G16RevA.03 25-Dec-2016

 --------------------------------------------
 #p opt UM062X/6-311+G** nosymm int=superfine
 --------------------------------------------

 -------------------
 Title Card Required
 -------------------
 Symbolic Z-matrix:
 Charge =  0 Multiplicity = 1

 SCF Done:  E(UM062X) =  -111.756639715     A.U. after   12 cycles
 SCF Done:  E(UM062X) =  -111.774401673     A.U. after   14 cycles
 SCF Done:  E(UM062X) =  -111.778947411     A.U. after   13 cycles
 SCF Done:  E(UM062X) =  -111.779820307     A.U. after   11 cycles
 SCF Done:  E(UM062X) =  -111.781084454     A.U. after   13 cycles
 SCF Done:  E(UM062X) =  -111.781286508     A.U. after   11 cycles
 SCF Done:  E(UM062X) =  -111.781350521     A.U. after   10 cycles
 SCF Done:  E(UM062X) =  -111.781351142     A.U. after    9 cycles
 SCF Done:  E(UM062X) =  -111.781351191     A.U. after    7 cycles
 Optimization completed.
    -- Stationary point found.

                          Input orientation:
 ---------------------------------------------------------------------
 Center     Atomic      Atomic             Coordinates (Angstroms)
 Number     Number       Type             X           Y           Z
 ---------------------------------------------------------------------
      1          7           0       -1.011540    0.000000    0.000000
      2          7           0        1.011540    0.000000    0.000000
      3          1           0       -1.067300   -0.817277   -0.612844
      4          1           0        1.067360    0.412297   -0.934632
      5          1           0       -1.067377   -0.412351    0.934606
      6          1           0        1.067298    0.817316    0.612794
 ---------------------------------------------------------------------

 Alpha  occ. eigenvalues --  -14.78712 -14.78705  -0.97577  -0.90432  -0.56162
 Alpha  occ. eigenvalues --   -0.51774  -0.41669  -0.40808  -0.33888
 Alpha virt. eigenvalues --   -0.03773   0.04532   0.07991   0.08850   0.11903
 Alpha virt. eigenvalues --    0.13415   0.13502   0.15516   0.16069   0.21398
 Alpha virt. eigenvalues --    0.22680   0.27068   0.28020   0.51514   0.52254

  Beta  occ. eigenvalues --  -14.78712 -14.78705  -0.97577  -0.90432  -0.56162
  Beta  occ. eigenvalues --   -0.51774  -0.41669  -0.40808  -0.33888
  Beta virt. eigenvalues --   -0.03773   0.04532   0.07991   0.08850   0.11903
  Beta virt. eigenvalues --    0.13415   0.13502   0.15516   0.16069   0.21398
  Beta virt. eigenvalues --    0.22680   0.27068   0.28020   0.51514   0.52254

 Mulliken charges and spin densities:
               1          2
     1  N   -0.521469   0.000000
     2  N   -0.521465  -0.000000
     3  H    0.260731  -0.000000
     4  H    0.260733  -0.000000
     5  H    0.260736  -0.000000
     6  H    0.260734  -0.000000
 Sum of Mulliken charges =  -0.00000   0.00000

 Dipole moment (field-independent basis, Debye):
    X=             -0.0000    Y=             -0.0000    Z=             -0.0001  Tot=              0.0001
 Quadrupole moment (field-independent basis, Debye-Ang):
   XX=            -15.3234   YY=            -13.9794   ZZ=            -11.2022
   XY=              4.9103   XZ=             -1.2853   YZ=              0.7803

 Normal termination of Gaussian 16 at Thu May 15 14:29:04 2025.
