 Gaussian 16, Revision A.03,
 Gaussian 16:  ES64L-G16RevA.03 25-Dec-2016

 --------------------------------------------
 #p opt UM062X/6-311+G** nosymm int=superfine
 --------------------------------------------

 -------------------
 Title Card Required
 -------------------
 Symbolic Z-matrix:
 Charge =  0 Multiplicity = 1

 SCF Done:  E(UM062X) =  -77.2725616407     A.U. after    9 cycles
 SCF Done:  E(UM062X) =  -77.2881720278     A.U. after    9 cycles
 SCF Done:  E(UM062X) =  -77.2881780929     A.U. after    6 cycles
 Optimization completed.
    -- Stationary point found.

                          Input orientation:
 ---------------------------------------------------------------------
 Center     Atomic      Atomic             Coordinates (Angstroms)
 Number     Number       Type             X           Y           Z
 ---------------------------------------------------------------------
      1          6           0       -0.664352    0.000000    0.000000
      2          6           0        0.664352    0.000000    0.000000
      3          1           0       -1.731521    0.000000   -0.000000
      4          1           0        1.731521   -0.000000   -0.000000
 ---------------------------------------------------------------------

 Alpha  occ. eigenvalues --  -10.58457 -10.58337  -0.82726  -0.66338  -0.56359
 Alpha  occ. eigenvalues --   -0.33872  -0.33872
 Alpha virt. eigenvalues --    0.02268   0.02268   0.02499   0.02512   0.07868
 Alpha virt. eigenvalues --    0.07868   0.09311   0.13035   0.13035   0.14321
 Alpha virt. eigenvalues --    0.18965   0.23957   0.36311   0.45334   0.57926

  Beta  occ. eigenvalues --  -10.58457 -10.58337  -0.82726  -0.66338  -0.56359
  Beta  occ. eigenvalues --   -0.33872  -0.33872
  Beta virt. eigenvalues --    0.02268   0.02268   0.02499   0.02512   0.07868
  Beta virt. eigenvalues --    0.07868   0.09311   0.13035   0.13035   0.14321
  Beta virt. eigenvalues --    0.18965   0.23957   0.36311   0.45334   0.57926

 Mulliken charges and spin densities:
               1          2
     1  C   -0.198233   0.000000
     2  C   -0.198234  -0.000000
     3  H    0.198234   0.000000
     4  H    0.198234   0.000000
 Sum of Mulliken charges =  -0.00000  -0.00000

 Dipole moment (field-independent basis, Debye):
    X=             -0.0000    Y=              0.0000    Z=             -0.0000  Tot=              0.0000
 Quadrupole moment (field-independent basis, Debye-Ang):
   XX=             -6.4254   YY=            -14.4045   ZZ=            -14.4045
   XY=             -0.0000   XZ=              0.0000   YZ=             -0.0000

 Normal termination of Gaussian 16 at Tue Dec  3 20:05:21 2024.
