 Gaussian 16, Revision A.03,
 Gaussian 16:  ES64L-G16RevA.03 25-Dec-2016

 ---------------------------------------
 #p UM062X/6-311+G** force int=superfine
 ---------------------------------------

 -------------------
 Title Card Required
 -------------------
 Symbolic Z-matrix:
 Charge =  1 Multiplicity = 2

                         Standard orientation:
 ---------------------------------------------------------------------
 Center     Atomic      Atomic             Coordinates (Angstroms)
 Number     Number       Type             X           Y           Z
 ---------------------------------------------------------------------
      1          6           0        0.000000    0.000000    0.509501
      2          6           0        0.000000    0.000000   -0.509501
      3          1           0        0.000000    0.000000    1.583734
      4          1           0        0.000000    0.000000   -1.583734
 ---------------------------------------------------------------------

 SCF Done:  E(UM062X) =  -76.7669597111     A.U. after    9 cycles

 Unable to determine electronic state:  an orbital has unidentified symmetry.
 Alpha  occ. eigenvalues --  -10.90856 -10.89669  -1.31013  -0.95452  -0.91140
 Alpha  occ. eigenvalues --   -0.80755  -0.77406
 Alpha virt. eigenvalues --   -0.20674  -0.18860  -0.14694  -0.13960  -0.11933
 Alpha virt. eigenvalues --   -0.11270  -0.10946  -0.03755  -0.03098  -0.02749
 Alpha virt. eigenvalues --    0.02420   0.04347   0.17199   0.20223   0.26249

  Beta  occ. eigenvalues --  -10.90527 -10.89396  -1.25305  -0.93926  -0.90360
  Beta  occ. eigenvalues --   -0.74777
  Beta virt. eigenvalues --   -0.51008  -0.17641  -0.16160  -0.15596  -0.13516
  Beta virt. eigenvalues --   -0.11886  -0.11452  -0.11049  -0.02665  -0.02235
  Beta virt. eigenvalues --   -0.01696   0.02575   0.04747   0.17830   0.20618

 Mulliken charges and spin densities:
               1          2
     1  C    0.229833   0.520410
     2  C    0.229833   0.520410
     3  H    0.270167  -0.020410
     4  H    0.270167  -0.020410
 Sum of Mulliken charges =   1.00000   1.00000

 Dipole moment (field-independent basis, Debye):
    X=              0.0000    Y=              0.0000    Z=             -0.0000  Tot=              0.0000
 Quadrupole moment (field-independent basis, Debye-Ang):
   XX=            -10.5294   YY=             -8.9437   ZZ=             -1.9257
   XY=             -0.0000   XZ=             -0.0000   YZ=             -0.0000

 Normal termination of Gaussian 16 at Tue Nov 19 13:27:21 2024.
