 Gaussian 16, Revision A.03,
 Gaussian 16:  ES64L-G16RevA.03 25-Dec-2016

 --------------------------------------------
 #p opt UM062X/6-311+G** nosymm int=superfine
 --------------------------------------------

 -------------------
 Title Card Required
 -------------------
 Symbolic Z-matrix:
 Charge =  1 Multiplicity = 2

 SCF Done:  E(UM062X) =  -76.0444790526     A.U. after    9 cycles
 SCF Done:  E(UM062X) =  -76.2371238930     A.U. after   10 cycles
 SCF Done:  E(UM062X) =  -76.3310762003     A.U. after   11 cycles
 SCF Done:  E(UM062X) =  -76.3313550786     A.U. after    8 cycles
 SCF Done:  E(UM062X) =  -76.3313565149     A.U. after    7 cycles
 Optimization completed.
    -- Stationary point found.

                          Input orientation:
 ---------------------------------------------------------------------
 Center     Atomic      Atomic             Coordinates (Angstroms)
 Number     Number       Type             X           Y           Z
 ---------------------------------------------------------------------
      1          6           0       -0.428726    0.000000    0.000000
      2          6           0        0.428726    0.000000    0.000000
      3          1           0       -1.497085    0.000000    0.000000
      4          1           0        1.497085   -0.000000   -0.000000
 ---------------------------------------------------------------------

 Alpha  occ. eigenvalues --  -10.92385 -10.87659  -1.34096  -0.94027  -0.91959
 Alpha  occ. eigenvalues --   -0.88842  -0.84849
 Alpha virt. eigenvalues --   -0.15700  -0.14919  -0.14297  -0.13411  -0.12060
 Alpha virt. eigenvalues --   -0.11930  -0.11695  -0.02070  -0.01113  -0.00890
 Alpha virt. eigenvalues --    0.02617   0.03812   0.16933   0.22831   0.23546

  Beta  occ. eigenvalues --  -10.91883 -10.87316  -1.27320  -0.92521  -0.90915
  Beta  occ. eigenvalues --   -0.82119
  Beta virt. eigenvalues --   -0.56120  -0.15466  -0.13565  -0.13093  -0.12999
  Beta virt. eigenvalues --   -0.12129  -0.11814  -0.11734  -0.00570  -0.00504
  Beta virt. eigenvalues --    0.00621   0.03062   0.04341   0.17335   0.22254

 Mulliken charges and spin densities:
               1          2
     1  C    0.258701   0.523455
     2  C    0.258700   0.523455
     3  H    0.241300  -0.023455
     4  H    0.241299  -0.023455
 Sum of Mulliken charges =   1.00000   1.00000

 Dipole moment (field-independent basis, Debye):
    X=             -0.0000    Y=              0.0000    Z=              0.0000  Tot=              0.0000
 Quadrupole moment (field-independent basis, Debye-Ang):
   XX=             -2.7480   YY=             -8.6304   ZZ=             -9.5879
   XY=             -0.0000   XZ=             -0.0000   YZ=              0.5055

 Normal termination of Gaussian 16 at Tue Nov 19 12:42:19 2024.
