 Gaussian 16, Revision A.03,
 Gaussian 16:  ES64L-G16RevA.03 25-Dec-2016

 ---------------------------------------------------------
 #p opt UM062X/6-311+G** nosymm int=superfine SCF=NoVarAcc
 ---------------------------------------------------------

 -------------------
 Title Card Required
 -------------------
 Symbolic Z-matrix:
 Charge =  1 Multiplicity = 2

 SCF Done:  E(UM062X) =  -77.8863544005     A.U. after    9 cycles
 SCF Done:  E(UM062X) =  -77.8871831722     A.U. after    9 cycles
 SCF Done:  E(UM062X) =  -77.8876377638     A.U. after   13 cycles
 SCF Done:  E(UM062X) =  -77.8876396084     A.U. after   14 cycles
 Optimization completed.
    -- Stationary point found.

                          Input orientation:
 ---------------------------------------------------------------------
 Center     Atomic      Atomic             Coordinates (Angstroms)
 Number     Number       Type             X           Y           Z
 ---------------------------------------------------------------------
      1          6           0       -1.531027    0.000000    0.000000
      2          6           0        1.531027    0.000000    0.000000
      3          1           0       -1.905338   -1.019551   -0.000030
      4          1           0       -1.905317    1.019560   -0.000030
      5          1           0        1.905339    1.019551    0.000030
      6          1           0        1.905318   -1.019559    0.000030
 ---------------------------------------------------------------------

 Alpha  occ. eigenvalues --  -10.91593 -10.91588  -1.01979  -1.00844  -0.79106
 Alpha  occ. eigenvalues --   -0.78762  -0.54792  -0.49938
 Alpha virt. eigenvalues --   -0.39786  -0.37087  -0.13021  -0.10513  -0.10476
 Alpha virt. eigenvalues --   -0.07555  -0.07437  -0.06167  -0.04817  -0.04438
 Alpha virt. eigenvalues --   -0.02984   0.01576   0.02024   0.09335   0.21703

  Beta  occ. eigenvalues --  -10.91324 -10.91322  -0.99202  -0.98290  -0.78749
  Beta  occ. eigenvalues --   -0.78412  -0.52809
  Beta virt. eigenvalues --   -0.34898  -0.31223  -0.29468  -0.14012  -0.10875
  Beta virt. eigenvalues --   -0.10803  -0.07411  -0.07330  -0.06165  -0.04384
  Beta virt. eigenvalues --   -0.03876  -0.03428  -0.00150   0.02202   0.10229

 Mulliken charges and spin densities:
               1          2
     1  C   -0.061499   0.540695
     2  C   -0.061499   0.540696
     3  H    0.280750  -0.020348
     4  H    0.280750  -0.020348
     5  H    0.280750  -0.020348
     6  H    0.280749  -0.020348
 Sum of Mulliken charges =   1.00000   1.00000

 Dipole moment (field-independent basis, Debye):
    X=              0.0000    Y=              0.0000    Z=              0.0000  Tot=              0.0000
 Quadrupole moment (field-independent basis, Debye-Ang):
   XX=              6.4339   YY=             -7.7354   ZZ=            -13.0252
   XY=              0.0000   XZ=              0.0002   YZ=             -0.0000

 Normal termination of Gaussian 16 at Tue Dec  3 13:26:29 2024.
