 Gaussian 16, Revision A.03,
 Gaussian 16:  ES64L-G16RevA.03 25-Dec-2016

 --------------------------------------------
 #p opt UM062X/6-311+G** nosymm int=superfine
 --------------------------------------------

 -------------------
 Title Card Required
 -------------------
 Symbolic Z-matrix:
 Charge =  0 Multiplicity = 1

 SCF Done:  E(UM062X) =  -95.5776716343     A.U. after   18 cycles
 SCF Done:  E(UM062X) =  -95.5927527877     A.U. after   13 cycles
 SCF Done:  E(UM062X) =  -95.6034219178     A.U. after   14 cycles
 SCF Done:  E(UM062X) =  -95.6038789853     A.U. after   13 cycles
 SCF Done:  E(UM062X) =  -95.6043975464     A.U. after   13 cycles
 SCF Done:  E(UM062X) =  -95.6046826982     A.U. after   13 cycles
 SCF Done:  E(UM062X) =  -95.6047656191     A.U. after   13 cycles
 SCF Done:  E(UM062X) =  -95.6047849436     A.U. after   12 cycles
 SCF Done:  E(UM062X) =  -95.6047865372     A.U. after   11 cycles
 SCF Done:  E(UM062X) =  -95.6047871793     A.U. after   11 cycles
 SCF Done:  E(UM062X) =  -95.6047887102     A.U. after   10 cycles
 SCF Done:  E(UM062X) =  -95.6047900102     A.U. after   11 cycles
 SCF Done:  E(UM062X) =  -95.6047904238     A.U. after   11 cycles
 Optimization completed.
    -- Stationary point found.

                          Input orientation:
 ---------------------------------------------------------------------
 Center     Atomic      Atomic             Coordinates (Angstroms)
 Number     Number       Type             X           Y           Z
 ---------------------------------------------------------------------
      1          6           0       -1.955542    0.000000    0.000000
      2          7           0        1.955542    0.000000    0.000000
      3          1           0        1.897659   -1.014873    0.138909
      4          1           0       -1.933260    1.080189    0.011885
      5          1           0        1.898411    0.369333    0.955485
      6          1           0       -1.933659   -0.526297   -0.943386
      7          1           0       -2.076961   -0.548816    0.923015
 ---------------------------------------------------------------------

 Alpha  occ. eigenvalues --  -14.74762 -10.62151  -0.90161  -0.81095  -0.53280
 Alpha  occ. eigenvalues --   -0.53124  -0.50672  -0.35911  -0.24501
 Alpha virt. eigenvalues --   -0.14818   0.01748   0.04579   0.04890   0.07060
 Alpha virt. eigenvalues --    0.09931   0.13006   0.15829   0.16729   0.16760
 Alpha virt. eigenvalues --    0.17819   0.20443   0.22064   0.26635   0.41053

  Beta  occ. eigenvalues --  -14.74762 -10.62151  -0.90161  -0.81095  -0.53280
  Beta  occ. eigenvalues --   -0.53124  -0.50672  -0.35911  -0.24501
  Beta virt. eigenvalues --   -0.14818   0.01748   0.04579   0.04890   0.07060
  Beta virt. eigenvalues --    0.09931   0.13006   0.15829   0.16729   0.16760
  Beta virt. eigenvalues --    0.17819   0.20443   0.22064   0.26635   0.41053

 Mulliken charges and spin densities:
               1          2
     1  C   -0.428195  -0.000000
     2  N   -0.578000   0.000000
     3  H    0.209510  -0.000000
     4  H    0.199009   0.000000
     5  H    0.209515  -0.000000
     6  H    0.199033   0.000000
     7  H    0.189129   0.000000
 Sum of Mulliken charges =  -0.00000  -0.00000

 Dipole moment (field-independent basis, Debye):
    X=             -3.5051    Y=             -1.0038    Z=              1.7020  Tot=              4.0237
 Quadrupole moment (field-independent basis, Debye-Ang):
   XX=            -15.8745   YY=            -13.4609   ZZ=            -14.2654
   XY=             -1.9867   XZ=              3.3718   YZ=              0.7282

 Normal termination of Gaussian 16 at Mon Apr 21 18:18:35 2025.
