 Gaussian 16, Revision A.03,
 Gaussian 16:  ES64L-G16RevA.03 25-Dec-2016

 ---------------------------------------------------------
 #p opt UM062X/6-311+G** nosymm int=superfine SCF=NoVarAcc
 ---------------------------------------------------------

 -------------------
 Title Card Required
 -------------------
 Symbolic Z-matrix:
 Charge =  0 Multiplicity = 1

 SCF Done:  E(UM062X) =  -78.2060400853     A.U. after    9 cycles
 SCF Done:  E(UM062X) =  -78.2225984311     A.U. after    9 cycles
 SCF Done:  E(UM062X) =  -78.2369605047     A.U. after    8 cycles
 SCF Done:  E(UM062X) =  -78.2372297765     A.U. after    8 cycles
 Optimization completed.
    -- Stationary point found.

                          Input orientation:
 ---------------------------------------------------------------------
 Center     Atomic      Atomic             Coordinates (Angstroms)
 Number     Number       Type             X           Y           Z
 ---------------------------------------------------------------------
      1          6           0       -4.035595    0.000000    0.000000
      2          6           0        4.035595    0.000000    0.000000
      3          1           0       -4.734542   -0.860927    0.000000
      4          1           0       -4.734513    0.860944    0.000000
      5          1           0        4.734542    0.860927    0.000000
      6          1           0        4.734513   -0.860944    0.000000
 ---------------------------------------------------------------------

 Alpha  occ. eigenvalues --  -10.60554 -10.60554  -0.75489  -0.75489  -0.47360
 Alpha  occ. eigenvalues --   -0.47360  -0.31159  -0.31154
 Alpha virt. eigenvalues --   -0.08003  -0.07995   0.02496   0.02594   0.06637
 Alpha virt. eigenvalues --    0.07057   0.08037   0.08606   0.08949   0.11317
 Alpha virt. eigenvalues --    0.17750   0.17956   0.19690   0.19713   0.44071

  Beta  occ. eigenvalues --  -10.60554 -10.60554  -0.75489  -0.75489  -0.47360
  Beta  occ. eigenvalues --   -0.47360  -0.31159  -0.31154
  Beta virt. eigenvalues --   -0.08003  -0.07995   0.02496   0.02594   0.06637
  Beta virt. eigenvalues --    0.07057   0.08037   0.08606   0.08949   0.11317
  Beta virt. eigenvalues --    0.17750   0.17956   0.19690   0.19713   0.44071

 Mulliken charges and spin densities:
               1          2
     1  C   -0.252234  -0.000000
     2  C   -0.252234  -0.000000
     3  H    0.126117  -0.000000
     4  H    0.126117  -0.000000
     5  H    0.126117   0.000000
     6  H    0.126117  -0.000000
 Sum of Mulliken charges =  -0.00000  -0.00000

 Dipole moment (field-independent basis, Debye):
    X=              0.0000    Y=             -0.0000    Z=              0.0000  Tot=              0.0000
 Quadrupole moment (field-independent basis, Debye-Ang):
   XX=             15.2959   YY=            -14.4654   ZZ=            -12.8686
   XY=             -0.0002   XZ=             -0.0000   YZ=             -0.0000

 Normal termination of Gaussian 16 at Tue Dec  3 17:40:08 2024.
