 Gaussian 16, Revision A.03,
 Gaussian 16:  ES64L-G16RevA.03 25-Dec-2016

 --------------------------------------------
 #p opt UM062X/6-311+G** nosymm int=superfine
 --------------------------------------------

 -------------------
 Title Card Required
 -------------------
 Symbolic Z-matrix:
 Charge =  1 Multiplicity = 2

 SCF Done:  E(UM062X) =  -75.7798777387     A.U. after   43 cycles
 SCF Done:  E(UM062X) =  -76.0194694481     A.U. after   10 cycles
 SCF Done:  E(UM062X) =  -76.1519067380     A.U. after   69 cycles
 SCF Done:  E(UM062X) =  -76.1522883589     A.U. after    9 cycles
 SCF Done:  E(UM062X) =  -76.1522944257     A.U. after    9 cycles
 Optimization completed.
    -- Stationary point found.

                          Input orientation:
 ---------------------------------------------------------------------
 Center     Atomic      Atomic             Coordinates (Angstroms)
 Number     Number       Type             X           Y           Z
 ---------------------------------------------------------------------
      1          6           0       -0.410086    0.000000    0.000000
      2          6           0        0.410086    0.000000    0.000000
      3          1           0       -1.476734   -0.000000    0.000000
      4          1           0        1.476733    0.000000    0.000000
 ---------------------------------------------------------------------

 Alpha  occ. eigenvalues --  -10.94181 -10.87635  -1.33902  -0.93689  -0.92038
 Alpha  occ. eigenvalues --   -0.91190  -0.87023
 Alpha virt. eigenvalues --   -0.14989  -0.14685  -0.13407  -0.13310  -0.12223
 Alpha virt. eigenvalues --   -0.11871  -0.11825  -0.01501  -0.00546  -0.00452
 Alpha virt. eigenvalues --    0.02695   0.03661   0.17055   0.22852   0.23389

  Beta  occ. eigenvalues --  -10.93615 -10.87252  -1.26885  -0.92179  -0.90951
  Beta  occ. eigenvalues --   -0.84233
  Beta virt. eigenvalues --   -0.57635  -0.15449  -0.13012  -0.12789  -0.12388
  Beta virt. eigenvalues --   -0.12288  -0.11912  -0.11719  -0.00277   0.00179
  Beta virt. eigenvalues --    0.01287   0.03212   0.04210   0.17376   0.21691

 Mulliken charges and spin densities:
               1          2
     1  C    0.264348   0.524352
     2  C    0.264347   0.524352
     3  H    0.235653  -0.024352
     4  H    0.235652  -0.024352
 Sum of Mulliken charges =   1.00000   1.00000

 Dipole moment (field-independent basis, Debye):
    X=             -0.0000    Y=             -0.0000    Z=              0.0000  Tot=              0.0000
 Quadrupole moment (field-independent basis, Debye-Ang):
   XX=             -2.9219   YY=             -8.4884   ZZ=             -9.4245
   XY=              0.0000   XZ=              0.0000   YZ=              0.4815

 Normal termination of Gaussian 16 at Tue Nov 19 12:39:27 2024.
