 Gaussian 16, Revision A.03,
 Gaussian 16:  ES64L-G16RevA.03 25-Dec-2016

 ---------------------------------------------------------
 #p opt UM062X/6-311+G** nosymm int=superfine SCF=NoVarAcc
 ---------------------------------------------------------

 -------------------
 Title Card Required
 -------------------
 Symbolic Z-matrix:
 Charge =  0 Multiplicity = 1

 SCF Done:  E(UM062X) =  -76.8167558618     A.U. after   15 cycles
 SCF Done:  E(UM062X) =  -76.8167637561     A.U. after   28 cycles
 Optimization completed.
    -- Stationary point found.

                          Input orientation:
 ---------------------------------------------------------------------
 Center     Atomic      Atomic             Coordinates (Angstroms)
 Number     Number       Type             X           Y           Z
 ---------------------------------------------------------------------
      1          6           0       -5.432625    0.000000    0.000000
      2          6           0        5.432625    0.000000    0.000000
      3          1           0       -6.552894   -0.000007    0.000007
      4          1           0        6.552894    0.000005   -0.000005
 ---------------------------------------------------------------------

 Alpha  occ. eigenvalues --  -10.66694 -10.66694  -0.72479  -0.72476  -0.38657
 Alpha  occ. eigenvalues --   -0.38655  -0.19424
 Alpha virt. eigenvalues --   -0.16819  -0.09681  -0.09681   0.03325   0.03336
 Alpha virt. eigenvalues --    0.08136   0.08147   0.08185   0.08382   0.08962
 Alpha virt. eigenvalues --    0.08973   0.17368   0.17390   0.45395   0.45491

  Beta  occ. eigenvalues --  -10.66694 -10.66694  -0.72479  -0.72476  -0.38657
  Beta  occ. eigenvalues --   -0.38655  -0.19424
  Beta virt. eigenvalues --   -0.16819  -0.09681  -0.09681   0.03325   0.03336
  Beta virt. eigenvalues --    0.08136   0.08147   0.08185   0.08382   0.08962
  Beta virt. eigenvalues --    0.08973   0.17368   0.17390   0.45395   0.45491

 Mulliken charges and spin densities:
               1          2
     1  C   -0.129146   0.000002
     2  C   -0.129146  -0.000002
     3  H    0.129146   0.000000
     4  H    0.129146  -0.000000
 Sum of Mulliken charges =  -0.00000  -0.00000

 Dipole moment (field-independent basis, Debye):
    X=              0.0000    Y=             -0.0000    Z=              0.0000  Tot=              0.0000
 Quadrupole moment (field-independent basis, Debye-Ang):
   XX=             21.1456   YY=            -14.5899   ZZ=            -14.5883
   XY=              0.0001   XZ=             -0.0001   YZ=             -2.7033

 Normal termination of Gaussian 16 at Tue Dec  3 20:21:23 2024.
