 Gaussian 16, Revision A.03,
 Gaussian 16:  ES64L-G16RevA.03 25-Dec-2016

 ---------------------------------------------------
 #p UM062X/6-311+G** force int=superfine pop=saveNBO
 ---------------------------------------------------

 -------------------
 Title Card Required
 -------------------
 Symbolic Z-matrix:
 Charge =  0 Multiplicity = 1

                         Standard orientation:
 ---------------------------------------------------------------------
 Center     Atomic      Atomic             Coordinates (Angstroms)
 Number     Number       Type             X           Y           Z
 ---------------------------------------------------------------------
      1          6           0        0.000000    0.000000   -2.457158
      2         16           0        0.000000    0.000000    0.921434
 ---------------------------------------------------------------------

 SCF Done:  E(UM062X) =  -435.837348564     A.U. after   26 cycles

 The electronic state is 1-SG.
 Alpha  occ. eigenvalues --  -89.92670 -10.76720  -8.28685  -6.21381  -6.19949
 Alpha  occ. eigenvalues --   -6.19949  -0.73223  -0.68499  -0.32628  -0.30537
 Alpha  occ. eigenvalues --   -0.30537
 Alpha virt. eigenvalues --   -0.15352  -0.14681  -0.14681   0.03207   0.05161
 Alpha virt. eigenvalues --    0.05879   0.05879   0.08693   0.08693   0.08882
 Alpha virt. eigenvalues --    0.13978   0.36116   0.36530   0.36530   0.52556

  Beta  occ. eigenvalues --  -89.92670 -10.76720  -8.28685  -6.21381  -6.19949
  Beta  occ. eigenvalues --   -6.19949  -0.73223  -0.68499  -0.32628  -0.30537
  Beta  occ. eigenvalues --   -0.30537
  Beta virt. eigenvalues --   -0.15352  -0.14681  -0.14681   0.03207   0.05161
  Beta virt. eigenvalues --    0.05879   0.05879   0.08693   0.08693   0.08882
  Beta virt. eigenvalues --    0.13978   0.36116   0.36530   0.36530   0.52556

 Mulliken charges and spin densities:
               1          2
     1  C    0.147648   0.000000
     2  S   -0.147648  -0.000000
 Sum of Mulliken charges =  -0.00000   0.00000

 Dipole moment (field-independent basis, Debye):
    X=              0.0000    Y=              0.0000    Z=             -2.4488  Tot=              2.4488
 Quadrupole moment (field-independent basis, Debye-Ang):
   XX=            -20.6918   YY=            -20.6918   ZZ=            -14.7335
   XY=              0.0000   XZ=              0.0000   YZ=              0.0000

 Summary of Natural Population Analysis:

                                       Natural Population
                Natural  -----------------------------------------------
    Atom  No    Charge         Core      Valence    Rydberg      Total
 -----------------------------------------------------------------------
      C    1    0.09759      1.00000     1.90192    0.00049     2.90241
      S    2   -0.09759      4.99999     3.09666    0.00094     8.09759
 =======================================================================
   * Total *    0.00000      5.99999     4.99858    0.00143    11.00000

 Normal termination of Gaussian 16 at Mon Apr 21 19:45:51 2025.
