 Gaussian 16, Revision A.03,
 Gaussian 16:  ES64L-G16RevA.03 25-Dec-2016

 ---------------------------------------------------
 #p UM062X/6-311+G** force int=superfine pop=saveNBO
 ---------------------------------------------------

 -------------------
 Title Card Required
 -------------------
 Symbolic Z-matrix:
 Charge =  0 Multiplicity = 1

                         Standard orientation:
 ---------------------------------------------------------------------
 Center     Atomic      Atomic             Coordinates (Angstroms)
 Number     Number       Type             X           Y           Z
 ---------------------------------------------------------------------
      1         16           0        0.000000    0.000000    1.500200
      2         16           0        0.000000    0.000000   -1.500200
 ---------------------------------------------------------------------

 SCF Done:  E(UM062X) =  -796.129085346     A.U. after    9 cycles

 Unable to determine electronic state:  partially filled degenerate orbitals.
 Alpha  occ. eigenvalues --  -89.99268 -89.99268  -8.34936  -8.34936  -6.26966
 Alpha  occ. eigenvalues --   -6.26966  -6.26965  -6.26965  -6.26120  -6.26120
 Alpha  occ. eigenvalues --   -0.79766  -0.76356  -0.37056  -0.35841  -0.33532
 Alpha  occ. eigenvalues --   -0.33201
 Alpha virt. eigenvalues --   -0.21937  -0.17398   0.03115   0.03755   0.04943
 Alpha virt. eigenvalues --    0.05478   0.07289   0.07498   0.07744   0.13607
 Alpha virt. eigenvalues --    0.31556   0.31786   0.32733   0.36303   0.37205

  Beta  occ. eigenvalues --  -89.99268 -89.99268  -8.34936  -8.34936  -6.26966
  Beta  occ. eigenvalues --   -6.26966  -6.26965  -6.26965  -6.26120  -6.26120
  Beta  occ. eigenvalues --   -0.79766  -0.76356  -0.37056  -0.35841  -0.33532
  Beta  occ. eigenvalues --   -0.33201
  Beta virt. eigenvalues --   -0.21937  -0.17398   0.03115   0.03755   0.04943
  Beta virt. eigenvalues --    0.05478   0.07289   0.07498   0.07744   0.13607
  Beta virt. eigenvalues --    0.31556   0.31786   0.32733   0.36303   0.37205

 Mulliken charges and spin densities:
               1          2
     1  S   -0.000000  -0.000000
     2  S   -0.000000  -0.000000
 Sum of Mulliken charges =  -0.00000  -0.00000

 Dipole moment (field-independent basis, Debye):
    X=             -0.0000    Y=              0.0000    Z=              0.0000  Tot=              0.0000
 Quadrupole moment (field-independent basis, Debye-Ang):
   XX=            -30.2244   YY=            -25.3318   ZZ=            -22.8245
   XY=              0.0000   XZ=             -0.0000   YZ=              0.0000

 Summary of Natural Population Analysis:

                                       Natural Population
                Natural  -----------------------------------------------
    Atom  No    Charge         Core      Valence    Rydberg      Total
 -----------------------------------------------------------------------
      S    1   -0.00000      4.99999     2.99879    0.00122     8.00000
      S    2   -0.00000      4.99999     2.99879    0.00122     8.00000
 =======================================================================
   * Total *   -0.00000      9.99998     5.99758    0.00243    16.00000

 Normal termination of Gaussian 16 at Mon Apr 21 20:03:22 2025.
