 Gaussian 16, Revision A.03,
 Gaussian 16:  ES64L-G16RevA.03 25-Dec-2016

 --------------------------------------------
 #p opt UM062X/6-311+G** nosymm int=superfine
 --------------------------------------------

 -------------------
 Title Card Required
 -------------------
 Symbolic Z-matrix:
 Charge =  0 Multiplicity = 1

 SCF Done:  E(UM062X) =  -581.140237493     A.U. after    9 cycles
 SCF Done:  E(UM062X) =  -581.160279479     A.U. after    8 cycles
 SCF Done:  E(UM062X) =  -581.172808015     A.U. after    8 cycles
 SCF Done:  E(UM062X) =  -581.172828065     A.U. after    7 cycles
 Optimization completed.
    -- Stationary point found.

                          Input orientation:
 ---------------------------------------------------------------------
 Center     Atomic      Atomic             Coordinates (Angstroms)
 Number     Number       Type             X           Y           Z
 ---------------------------------------------------------------------
      1         14           0       -2.087518    0.000000    0.000000
      2         14           0        2.087518    0.000000    0.000000
      3          1           0       -3.154288   -1.082432    0.000154
      4          1           0        3.154288    1.082432   -0.000430
      5          1           0       -3.154293    1.082428    0.000387
      6          1           0        3.154293   -1.082427    0.000971
 ---------------------------------------------------------------------

 Alpha  occ. eigenvalues --  -67.01112 -67.01111  -5.55843  -5.55842  -3.87082
 Alpha  occ. eigenvalues --   -3.87082  -3.86542  -3.86542  -3.86407  -3.86407
 Alpha  occ. eigenvalues --   -0.57171  -0.56991  -0.37667  -0.37599  -0.29794
 Alpha  occ. eigenvalues --   -0.26366
 Alpha virt. eigenvalues --   -0.08370  -0.07268   0.02097   0.02245   0.03144
 Alpha virt. eigenvalues --    0.04573   0.05843   0.06139   0.06400   0.06675
 Alpha virt. eigenvalues --    0.08992   0.09338   0.11614   0.14173   0.28992

  Beta  occ. eigenvalues --  -67.01112 -67.01111  -5.55843  -5.55842  -3.87082
  Beta  occ. eigenvalues --   -3.87082  -3.86542  -3.86542  -3.86407  -3.86407
  Beta  occ. eigenvalues --   -0.57171  -0.56991  -0.37667  -0.37599  -0.29794
  Beta  occ. eigenvalues --   -0.26366
  Beta virt. eigenvalues --   -0.08370  -0.07268   0.02097   0.02245   0.03144
  Beta virt. eigenvalues --    0.04573   0.05843   0.06139   0.06400   0.06675
  Beta virt. eigenvalues --    0.08992   0.09338   0.11614   0.14173   0.28992

 Mulliken charges and spin densities:
               1          2
     1  Si   0.320103   0.000000
     2  Si   0.320103  -0.000000
     3  H   -0.160051  -0.000000
     4  H   -0.160051   0.000000
     5  H   -0.160051  -0.000000
     6  H   -0.160051  -0.000000
 Sum of Mulliken charges =  -0.00000  -0.00000

 Dipole moment (field-independent basis, Debye):
    X=              0.0000    Y=              0.0000    Z=              0.0001  Tot=              0.0001
 Quadrupole moment (field-independent basis, Debye-Ang):
   XX=            -36.5026   YY=            -32.7977   ZZ=            -24.4055
   XY=             -0.0000   XZ=              0.0000   YZ=              0.0023

 Normal termination of Gaussian 16 at Mon Apr 21 20:34:37 2025.
