 Gaussian 16, Revision A.03,
 Gaussian 16:  ES64L-G16RevA.03 25-Dec-2016

 ---------------------------------------
 #p UM062X/6-311+G** force int=superfine
 ---------------------------------------

 -------------------
 Title Card Required
 -------------------
 Symbolic Z-matrix:
 Charge =  0 Multiplicity = 1

                         Standard orientation:
 ---------------------------------------------------------------------
 Center     Atomic      Atomic             Coordinates (Angstroms)
 Number     Number       Type             X           Y           Z
 ---------------------------------------------------------------------
      1          6           0        0.001912   -0.046088   -1.113881
      2          6           0       -0.001912    0.046088    1.113881
      3          1           0       -0.492133   -0.876406    1.400089
      4          1           0        0.565905   -0.946515   -1.324529
      5          1           0       -0.565903    0.946515    1.324532
      6          1           0        1.051023    0.099000    1.362380
      7          1           0        0.492132    0.876406   -1.400088
      8          1           0       -1.051023   -0.099001   -1.362383
 ---------------------------------------------------------------------

 SCF Done:  E(UM062X) =  -79.7104968578     A.U. after    8 cycles

 The electronic state is 1-A.
 Alpha  occ. eigenvalues --  -10.55208 -10.55202  -0.78051  -0.73432  -0.48268
 Alpha  occ. eigenvalues --   -0.48267  -0.45447  -0.45447  -0.30495
 Alpha virt. eigenvalues --    0.00741   0.02431   0.05591   0.05591   0.08299
 Alpha virt. eigenvalues --    0.08365   0.08365   0.09804   0.13266   0.18166
 Alpha virt. eigenvalues --    0.18166   0.22102   0.22103   0.24357   0.26563

  Beta  occ. eigenvalues --  -10.55208 -10.55202  -0.78051  -0.73432  -0.48268
  Beta  occ. eigenvalues --   -0.48267  -0.45447  -0.45447  -0.30495
  Beta virt. eigenvalues --    0.00741   0.02431   0.05591   0.05591   0.08299
  Beta virt. eigenvalues --    0.08365   0.08365   0.09804   0.13266   0.18166
  Beta virt. eigenvalues --    0.18166   0.22102   0.22103   0.24357   0.26563

 Mulliken charges and spin densities:
               1          2
     1  C   -0.504668  -0.000000
     2  C   -0.504669   0.000000
     3  H    0.168223  -0.000000
     4  H    0.168223   0.000000
     5  H    0.168223  -0.000000
     6  H    0.168223  -0.000000
     7  H    0.168223   0.000000
     8  H    0.168223   0.000000
 Sum of Mulliken charges =  -0.00000  -0.00000

 Dipole moment (field-independent basis, Debye):
    X=              0.0000    Y=             -0.0000    Z=             -0.0000  Tot=              0.0000
 Quadrupole moment (field-independent basis, Debye-Ang):
   XX=            -14.8356   YY=            -14.8368   ZZ=            -15.5510
   XY=              0.0001   XZ=              0.0012   YZ=             -0.0296

 Normal termination of Gaussian 16 at Tue Nov 19 12:54:08 2024.
