 Gaussian 16, Revision A.03,
 Gaussian 16:  ES64L-G16RevA.03 25-Dec-2016

 --------------------------------------------
 #p opt UM062X/6-311+G** nosymm int=superfine
 --------------------------------------------

 -------------------
 Title Card Required
 -------------------
 Symbolic Z-matrix:
 Charge = -1 Multiplicity = 2

 SCF Done:  E(UM062X) =  -53.1907482249     A.U. after   12 cycles
 SCF Done:  E(UM062X) =  -53.1962117220     A.U. after   11 cycles
 SCF Done:  E(UM062X) =  -53.1974805676     A.U. after   10 cycles
 SCF Done:  E(UM062X) =  -53.1974918753     A.U. after   10 cycles
 Optimization completed.
    -- Stationary point found.

                          Input orientation:
 ---------------------------------------------------------------------
 Center     Atomic      Atomic             Coordinates (Angstroms)
 Number     Number       Type             X           Y           Z
 ---------------------------------------------------------------------
      1          5           0       -2.590672    0.000000    0.000000
      2          5           0        2.590672    0.000000    0.000000
      3          1           0        2.630949   -1.196974   -0.000016
      4          1           0       -2.630405   -0.598499    1.036626
      5          1           0        2.630581    0.598516   -1.036609
      6          1           0        2.630330    0.598486    1.036636
      7          1           0       -2.630957    1.196974   -0.000001
      8          1           0       -2.630498   -0.598503   -1.036620
 ---------------------------------------------------------------------

 Alpha  occ. eigenvalues --   -6.85884  -6.85883  -0.41104  -0.40950  -0.23024
 Alpha  occ. eigenvalues --   -0.23024  -0.22976  -0.22976   0.01607
 Alpha virt. eigenvalues --    0.08931   0.16020   0.17202   0.17202   0.17760
 Alpha virt. eigenvalues --    0.17832   0.17832   0.23569   0.23883   0.32501
 Alpha virt. eigenvalues --    0.32502   0.32891   0.32892   0.33193   0.38127

  Beta  occ. eigenvalues --   -6.85847  -6.85847  -0.39488  -0.39392  -0.22883
  Beta  occ. eigenvalues --   -0.22883  -0.22821  -0.22821
  Beta virt. eigenvalues --    0.02653   0.12343   0.12615   0.13780   0.13780
  Beta virt. eigenvalues --    0.17158   0.17159   0.18332   0.22681   0.24442
  Beta virt. eigenvalues --    0.30880   0.31539   0.31540   0.31900   0.31901

 Mulliken charges and spin densities:
               1          2
     1  B   -0.367159   0.545561
     2  B   -0.367159   0.545561
     3  H   -0.044285  -0.015180
     4  H   -0.044276  -0.015189
     5  H   -0.044283  -0.015191
     6  H   -0.044274  -0.015189
     7  H   -0.044285  -0.015180
     8  H   -0.044280  -0.015191
 Sum of Mulliken charges =  -1.00000   1.00000

 Dipole moment (field-independent basis, Debye):
    X=              0.0000    Y=             -0.0000    Z=              0.0001  Tot=              0.0001
 Quadrupole moment (field-independent basis, Debye-Ang):
   XX=            -55.6216   YY=            -24.4235   ZZ=            -24.4235
   XY=              0.0001   XZ=              0.0000   YZ=              0.0000

 Normal termination of Gaussian 16 at Mon Apr 21 16:56:29 2025.
