 Gaussian 16, Revision A.03,
 Gaussian 16:  ES64L-G16RevA.03 25-Dec-2016

 --------------------------------------------
 #p opt UM062X/6-311+G** nosymm int=superfine
 --------------------------------------------

 -------------------
 Title Card Required
 -------------------
 Symbolic Z-matrix:
 Charge =  0 Multiplicity = 1

 SCF Done:  E(UM062X) =  -382.314889457     A.U. after   12 cycles
 SCF Done:  E(UM062X) =  -382.322565975     A.U. after   10 cycles
 SCF Done:  E(UM062X) =  -382.325403374     A.U. after   10 cycles
 SCF Done:  E(UM062X) =  -382.325426749     A.U. after    9 cycles
 SCF Done:  E(UM062X) =  -382.325442218     A.U. after    9 cycles
 SCF Done:  E(UM062X) =  -382.325443836     A.U. after    8 cycles
 Optimization completed.
    -- Stationary point found.

                          Input orientation:
 ---------------------------------------------------------------------
 Center     Atomic      Atomic             Coordinates (Angstroms)
 Number     Number       Type             X           Y           Z
 ---------------------------------------------------------------------
      1          6           0       -1.456264    0.000000    0.000000
      2         15           0        1.456264    0.000000    0.000000
      3          1           0        1.432208   -1.418304    0.029904
      4          1           0       -1.616461    1.043369    0.233772
      5          1           0        1.432200    0.084109    1.416100
      6          1           0       -1.616440   -0.312867   -1.022441
      7          1           0       -1.630518   -0.725203    0.782939
 ---------------------------------------------------------------------

 Alpha  occ. eigenvalues --  -78.03231 -10.57858  -6.85560  -4.97087  -4.97031
 Alpha  occ. eigenvalues --   -4.96839  -0.77681  -0.69327  -0.49334  -0.49274
 Alpha  occ. eigenvalues --   -0.43586  -0.34792  -0.27496
 Alpha virt. eigenvalues --   -0.07054   0.01812   0.04006   0.04347   0.04695
 Alpha virt. eigenvalues --    0.06424   0.06834   0.07370   0.07510   0.12532
 Alpha virt. eigenvalues --    0.17534   0.18842   0.19091   0.24904   0.30087

  Beta  occ. eigenvalues --  -78.03231 -10.57858  -6.85560  -4.97087  -4.97031
  Beta  occ. eigenvalues --   -4.96839  -0.77681  -0.69327  -0.49334  -0.49274
  Beta  occ. eigenvalues --   -0.43586  -0.34792  -0.27496
  Beta virt. eigenvalues --   -0.07054   0.01812   0.04006   0.04347   0.04695
  Beta virt. eigenvalues --    0.06424   0.06834   0.07370   0.07510   0.12532
  Beta virt. eigenvalues --    0.17534   0.18842   0.19091   0.24904   0.30087

 Mulliken charges and spin densities:
               1          2
     1  C   -0.549805  -0.000000
     2  P   -0.026243   0.000000
     3  H    0.011404   0.000000
     4  H    0.184884   0.000000
     5  H    0.011417   0.000000
     6  H    0.184903   0.000000
     7  H    0.183440   0.000000
 Sum of Mulliken charges =  -0.00000   0.00000

 Dipole moment (field-independent basis, Debye):
    X=             -0.8951    Y=             -0.5254    Z=              0.5695  Tot=              1.1839
 Quadrupole moment (field-independent basis, Debye-Ang):
   XX=            -22.6801   YY=            -22.1886   ZZ=            -22.3024
   XY=             -1.0981   XZ=              1.1903   YZ=              0.7061

 Normal termination of Gaussian 16 at Mon Apr 21 19:04:38 2025.
