 Gaussian 16, Revision A.03,
 Gaussian 16:  ES64L-G16RevA.03 25-Dec-2016

 --------------------------------------------
 #p opt UM062X/6-311+G** nosymm int=superfine
 --------------------------------------------

 -------------------
 Title Card Required
 -------------------
 Symbolic Z-matrix:
 Charge =  1 Multiplicity = 2

 SCF Done:  E(UM062X) =  -76.5843789711     A.U. after   13 cycles
 SCF Done:  E(UM062X) =  -76.5847139183     A.U. after   13 cycles
 Optimization completed.
    -- Stationary point found.

                          Input orientation:
 ---------------------------------------------------------------------
 Center     Atomic      Atomic             Coordinates (Angstroms)
 Number     Number       Type             X           Y           Z
 ---------------------------------------------------------------------
      1          6           0       -1.982160    0.000000    0.000000
      2          6           0        1.982160    0.000000    0.000000
      3          1           0       -3.099730   -0.000000   -0.000000
      4          1           0        3.099729   -0.000000    0.000000
 ---------------------------------------------------------------------

 Alpha  occ. eigenvalues --  -10.94297 -10.94297  -0.97986  -0.97878  -0.63709
 Alpha  occ. eigenvalues --   -0.62714  -0.47749
 Alpha virt. eigenvalues --   -0.40598  -0.33131  -0.32855  -0.12165  -0.11276
 Alpha virt. eigenvalues --   -0.07620  -0.07203  -0.05503  -0.04702  -0.04369
 Alpha virt. eigenvalues --   -0.01598  -0.00443   0.05753   0.26496   0.29318

  Beta  occ. eigenvalues --  -10.93884 -10.93884  -0.95592  -0.95551  -0.62368
  Beta  occ. eigenvalues --   -0.61302
  Beta virt. eigenvalues --   -0.31289  -0.30934  -0.29692  -0.29282  -0.12630
  Beta virt. eigenvalues --   -0.11204  -0.06971  -0.06168  -0.06114  -0.03947
  Beta virt. eigenvalues --   -0.03009  -0.02020   0.01115   0.07426   0.25627

 Mulliken charges and spin densities:
               1          2
     1  C    0.271540   0.516414
     2  C    0.271540   0.516414
     3  H    0.228460  -0.016414
     4  H    0.228460  -0.016414
 Sum of Mulliken charges =   1.00000   1.00000

 Dipole moment (field-independent basis, Debye):
    X=             -0.0000    Y=              0.0000    Z=             -0.0000  Tot=              0.0000
 Quadrupole moment (field-independent basis, Debye-Ang):
   XX=             24.3779   YY=             -9.5868   ZZ=            -11.3797
   XY=              0.0000   XZ=              0.0000   YZ=              0.4458

 Normal termination of Gaussian 16 at Tue Dec  3 11:33:54 2024.
