 Gaussian 16, Revision A.03,
 Gaussian 16:  ES64L-G16RevA.03 25-Dec-2016

 --------------------------------------------
 #p opt UM062X/6-311+G** nosymm int=superfine
 --------------------------------------------

 -------------------
 Title Card Required
 -------------------
 Symbolic Z-matrix:
 Charge =  0 Multiplicity = 1

 SCF Done:  E(UM062X) =  -77.3060694630     A.U. after    9 cycles
 SCF Done:  E(UM062X) =  -77.3096518320     A.U. after    9 cycles
 SCF Done:  E(UM062X) =  -77.3096922608     A.U. after    8 cycles
 Optimization completed.
    -- Stationary point found.

                          Input orientation:
 ---------------------------------------------------------------------
 Center     Atomic      Atomic             Coordinates (Angstroms)
 Number     Number       Type             X           Y           Z
 ---------------------------------------------------------------------
      1          6           0       -0.628441    0.000000    0.000000
      2          6           0        0.628441    0.000000    0.000000
      3          1           0       -1.694118    0.000000   -0.000000
      4          1           0        1.694118    0.000000   -0.000000
 ---------------------------------------------------------------------

 Alpha  occ. eigenvalues --  -10.56506 -10.56320  -0.84170  -0.65476  -0.56649
 Alpha  occ. eigenvalues --   -0.34885  -0.34885
 Alpha virt. eigenvalues --    0.02570   0.02701   0.03628   0.03628   0.07735
 Alpha virt. eigenvalues --    0.07735   0.09299   0.13921   0.13921   0.15264
 Alpha virt. eigenvalues --    0.19469   0.24214   0.38425   0.44992   0.57356

  Beta  occ. eigenvalues --  -10.56506 -10.56320  -0.84170  -0.65476  -0.56649
  Beta  occ. eigenvalues --   -0.34885  -0.34885
  Beta virt. eigenvalues --    0.02570   0.02701   0.03628   0.03628   0.07735
  Beta virt. eigenvalues --    0.07735   0.09299   0.13921   0.13921   0.15264
  Beta virt. eigenvalues --    0.19469   0.24214   0.38425   0.44992   0.57356

 Mulliken charges and spin densities:
               1          2
     1  C   -0.185479   0.000000
     2  C   -0.185479  -0.000000
     3  H    0.185479   0.000000
     4  H    0.185479  -0.000000
 Sum of Mulliken charges =  -0.00000   0.00000

 Dipole moment (field-independent basis, Debye):
    X=             -0.0000    Y=              0.0000    Z=             -0.0000  Tot=              0.0000
 Quadrupole moment (field-independent basis, Debye-Ang):
   XX=             -6.6820   YY=            -14.0787   ZZ=            -14.0787
   XY=              0.0000   XZ=             -0.0000   YZ=              0.0000

 Normal termination of Gaussian 16 at Tue Dec  3 20:04:04 2024.
