 Gaussian 16, Revision A.03,
 Gaussian 16:  ES64L-G16RevA.03 25-Dec-2016

 ---------------------------------------------------
 #p UM062X/6-311+G** force int=superfine pop=saveNBO
 ---------------------------------------------------

 -------------------
 Title Card Required
 -------------------
 Symbolic Z-matrix:
 Charge =  0 Multiplicity = 3

                         Standard orientation:
 ---------------------------------------------------------------------
 Center     Atomic      Atomic             Coordinates (Angstroms)
 Number     Number       Type             X           Y           Z
 ---------------------------------------------------------------------
      1          5           0       -0.000000    0.000000    0.753410
      2          5           0        0.000000    0.000000   -0.753410
      3          1           0        0.000000    0.000000    1.925953
      4          1           0       -0.000000    0.000000   -1.925953
 ---------------------------------------------------------------------

 SCF Done:  E(UM062X) =  -50.7547912327     A.U. after   10 cycles

 The electronic state is 3-SG.
 Alpha  occ. eigenvalues --   -7.06143  -7.06002  -0.62227  -0.52164  -0.44724
 Alpha  occ. eigenvalues --   -0.28006  -0.28006
 Alpha virt. eigenvalues --    0.02414   0.02414   0.02517   0.02699   0.05314
 Alpha virt. eigenvalues --    0.05314   0.07081   0.09317   0.09317   0.12015
 Alpha virt. eigenvalues --    0.16039   0.22780   0.33239   0.34749   0.38577

  Beta  occ. eigenvalues --   -7.05884  -7.05725  -0.55765  -0.50360  -0.43874
  Beta virt. eigenvalues --   -0.08049  -0.08049   0.01076   0.03017   0.03922
  Beta virt. eigenvalues --    0.03922   0.05212   0.08313   0.08313   0.10405
  Beta virt. eigenvalues --    0.14107   0.14107   0.18517   0.24086   0.34357

 Mulliken charges and spin densities:
               1          2
     1  B   -0.040249   1.036981
     2  B   -0.040249   1.036981
     3  H    0.040249  -0.036981
     4  H    0.040249  -0.036981
 Sum of Mulliken charges =  -0.00000   2.00000

 Dipole moment (field-independent basis, Debye):
    X=              0.0000    Y=             -0.0000    Z=             -0.0000  Tot=              0.0000
 Quadrupole moment (field-independent basis, Debye-Ang):
   XX=            -14.1468   YY=            -14.1468   ZZ=            -12.4605
   XY=             -0.0000   XZ=             -0.0000   YZ=              0.0000

 Summary of Natural Population Analysis:

                                       Natural Population
                Natural  -----------------------------------------------
    Atom  No    Charge         Core      Valence    Rydberg      Total
 -----------------------------------------------------------------------
      B    1    0.56369      0.99962     0.93500    0.00169     1.93631
      B    2    0.56369      0.99962     0.93500    0.00169     1.93631
      H    3   -0.06369      0.00000     0.56260    0.00109     0.56369
      H    4   -0.06369      0.00000     0.56260    0.00109     0.56369
 =======================================================================
   * Total *    1.00000      1.99924     2.99520    0.00556     5.00000

 Optimization completed.
    -- Stationary point found.
 Normal termination of Gaussian 16 at Wed Apr 16 00:05:21 2025.
