 Gaussian 16, Revision A.03,
 Gaussian 16:  ES64L-G16RevA.03 25-Dec-2016

 --------------------------------------------
 #p opt UM062X/6-311+G** nosymm int=superfine
 --------------------------------------------

 -------------------
 Title Card Required
 -------------------
 Symbolic Z-matrix:
 Charge = -1 Multiplicity = 2

 SCF Done:  E(UM062X) =  -53.2018744877     A.U. after   11 cycles
 SCF Done:  E(UM062X) =  -53.2058418693     A.U. after   11 cycles
 SCF Done:  E(UM062X) =  -53.2067032395     A.U. after   10 cycles
 SCF Done:  E(UM062X) =  -53.2067093628     A.U. after    8 cycles
 Optimization completed.
    -- Stationary point found.

                          Input orientation:
 ---------------------------------------------------------------------
 Center     Atomic      Atomic             Coordinates (Angstroms)
 Number     Number       Type             X           Y           Z
 ---------------------------------------------------------------------
      1          5           0       -2.015672    0.000000    0.000000
      2          5           0        2.015672    0.000000    0.000000
      3          1           0        2.082761   -1.196878   -0.000015
      4          1           0       -2.082558   -0.598438    1.036542
      5          1           0        2.082716    0.598456   -1.036522
      6          1           0        2.082497    0.598424    1.036553
      7          1           0       -2.082769    1.196877   -0.000001
      8          1           0       -2.082647   -0.598443   -1.036533
 ---------------------------------------------------------------------

 Alpha  occ. eigenvalues --   -6.84538  -6.84537  -0.39942  -0.39403  -0.21759
 Alpha  occ. eigenvalues --   -0.21759  -0.21500  -0.21500   0.01080
 Alpha virt. eigenvalues --    0.11690   0.16837   0.17725   0.17725   0.18345
 Alpha virt. eigenvalues --    0.18345   0.19240   0.22891   0.23898   0.32869
 Alpha virt. eigenvalues --    0.32869   0.34485   0.34486   0.36684   0.38830

  Beta  occ. eigenvalues --   -6.84500  -6.84500  -0.38189  -0.37839  -0.21592
  Beta  occ. eigenvalues --   -0.21592  -0.21329  -0.21328
  Beta virt. eigenvalues --    0.10827   0.13479   0.13714   0.15073   0.15073
  Beta virt. eigenvalues --    0.17870   0.17870   0.21242   0.22228   0.25220
  Beta virt. eigenvalues --    0.31802   0.31802   0.33699   0.33701   0.35448

 Mulliken charges and spin densities:
               1          2
     1  B   -0.344474   0.560645
     2  B   -0.344475   0.560645
     3  H   -0.051844  -0.020211
     4  H   -0.051839  -0.020217
     5  H   -0.051845  -0.020216
     6  H   -0.051837  -0.020217
     7  H   -0.051844  -0.020211
     8  H   -0.051842  -0.020217
 Sum of Mulliken charges =  -1.00000   1.00000

 Dipole moment (field-independent basis, Debye):
    X=             -0.0000    Y=             -0.0000    Z=              0.0001  Tot=              0.0001
 Quadrupole moment (field-independent basis, Debye-Ang):
   XX=            -43.5917   YY=            -24.3056   ZZ=            -24.3055
   XY=             -0.0000   XZ=              0.0000   YZ=              0.0000

 Normal termination of Gaussian 16 at Mon Apr 21 16:55:38 2025.
