 Gaussian 16, Revision A.03,
 Gaussian 16:  ES64L-G16RevA.03 25-Dec-2016

 --------------------------------------------
 #p opt UM062X/6-311+G** nosymm int=superfine
 --------------------------------------------

 -------------------
 Title Card Required
 -------------------
 Symbolic Z-matrix:
 Charge =  0 Multiplicity = 1

 SCF Done:  E(UM062X) =  -79.7838508407     A.U. after    8 cycles
 SCF Done:  E(UM062X) =  -79.7879105126     A.U. after    8 cycles
 SCF Done:  E(UM062X) =  -79.7882005183     A.U. after    7 cycles
 Optimization completed.
    -- Stationary point found.

                          Input orientation:
 ---------------------------------------------------------------------
 Center     Atomic      Atomic             Coordinates (Angstroms)
 Number     Number       Type             X           Y           Z
 ---------------------------------------------------------------------
      1          6           0       -0.839902    0.000000    0.000000
      2          6           0        0.839988    0.000000    0.000000
      3          1           0        1.201340   -0.889154    0.514496
      4          1           0       -1.201259   -0.890153   -0.512759
      5          1           0        1.201345    0.890153    0.512758
      6          1           0        1.201291   -0.001003   -1.027292
      7          1           0       -1.201254    0.889154   -0.514496
      8          1           0       -1.201206    0.001002    1.027291
 ---------------------------------------------------------------------

 Alpha  occ. eigenvalues --  -10.53049 -10.53027  -0.82370  -0.70872  -0.49359
 Alpha  occ. eigenvalues --   -0.49359  -0.41796  -0.41795  -0.39417
 Alpha virt. eigenvalues --    0.02219   0.03904   0.05585   0.05585   0.08688
 Alpha virt. eigenvalues --    0.08688   0.09080   0.13703   0.18498   0.18499
 Alpha virt. eigenvalues --    0.21516   0.21517   0.22383   0.24186   0.27792

  Beta  occ. eigenvalues --  -10.53049 -10.53027  -0.82370  -0.70872  -0.49359
  Beta  occ. eigenvalues --   -0.49359  -0.41796  -0.41795  -0.39417
  Beta virt. eigenvalues --    0.02219   0.03904   0.05585   0.05585   0.08688
  Beta virt. eigenvalues --    0.08688   0.09080   0.13703   0.18498   0.18499
  Beta virt. eigenvalues --    0.21516   0.21517   0.22383   0.24186   0.27792

 Mulliken charges and spin densities:
               1          2
     1  C   -0.481507   0.000000
     2  C   -0.481507  -0.000000
     3  H    0.160502   0.000000
     4  H    0.160503  -0.000000
     5  H    0.160503   0.000000
     6  H    0.160502   0.000000
     7  H    0.160502  -0.000000
     8  H    0.160502  -0.000000
 Sum of Mulliken charges =  -0.00000  -0.00000

 Dipole moment (field-independent basis, Debye):
    X=              0.0000    Y=             -0.0000    Z=             -0.0000  Tot=              0.0000
 Quadrupole moment (field-independent basis, Debye-Ang):
   XX=            -15.6238   YY=            -14.9512   ZZ=            -14.9512
   XY=              0.0000   XZ=              0.0001   YZ=             -0.0000

 Normal termination of Gaussian 16 at Tue Nov 19 11:57:08 2024.
