 Gaussian 16, Revision A.03,
 Gaussian 16:  ES64L-G16RevA.03 25-Dec-2016

 ---------------------------------------
 #p UM062X/6-311+G** force int=superfine
 ---------------------------------------

 -------------------
 Title Card Required
 -------------------
 Symbolic Z-matrix:
 Charge =  0 Multiplicity = 1

                         Standard orientation:
 ---------------------------------------------------------------------
 Center     Atomic      Atomic             Coordinates (Angstroms)
 Number     Number       Type             X           Y           Z
 ---------------------------------------------------------------------
      1          6           0        0.000000    0.881620   -0.000000
      2          6           0       -0.000000   -0.881620   -0.000000
      3          1           0        0.957065    1.379757   -0.000000
      4          1           0       -0.956964    1.379784    0.000000
      5          1           0       -0.957065   -1.379757   -0.000000
      6          1           0        0.956964   -1.379784    0.000000
 ---------------------------------------------------------------------

 SCF Done:  E(UM062X) =  -78.4558249475     A.U. after    8 cycles

 The electronic state is 1-AG.
 Alpha  occ. eigenvalues --  -10.59297 -10.59274  -0.79264  -0.69932  -0.52988
 Alpha  occ. eigenvalues --   -0.47709  -0.41633  -0.27982
 Alpha virt. eigenvalues --   -0.03834   0.03312   0.03368   0.05383   0.07579
 Alpha virt. eigenvalues --    0.08717   0.09768   0.11689   0.15585   0.16675
 Alpha virt. eigenvalues --    0.16836   0.21003   0.22484   0.28956   0.40737

  Beta  occ. eigenvalues --  -10.59297 -10.59274  -0.79264  -0.69932  -0.52988
  Beta  occ. eigenvalues --   -0.47709  -0.41633  -0.27982
  Beta virt. eigenvalues --   -0.03834   0.03312   0.03368   0.05383   0.07579
  Beta virt. eigenvalues --    0.08717   0.09768   0.11689   0.15585   0.16675
  Beta virt. eigenvalues --    0.16836   0.21003   0.22484   0.28956   0.40737

 Mulliken charges and spin densities:
               1          2
     1  C   -0.341949  -0.000000
     2  C   -0.341949  -0.000000
     3  H    0.170973   0.000000
     4  H    0.170975   0.000000
     5  H    0.170973   0.000000
     6  H    0.170975   0.000000
 Sum of Mulliken charges =   0.00000   0.00000

 Dipole moment (field-independent basis, Debye):
    X=             -0.0000    Y=              0.0000    Z=             -0.0000  Tot=              0.0000
 Quadrupole moment (field-independent basis, Debye-Ang):
   XX=            -12.1875   YY=            -11.6786   ZZ=            -17.5192
   XY=             -0.0001   XZ=              0.0000   YZ=              0.0000

 Normal termination of Gaussian 16 at Tue Nov 19 11:47:42 2024.
