 Gaussian 16, Revision A.03,
 Gaussian 16:  ES64L-G16RevA.03 25-Dec-2016

 --------------------------------------------
 #p opt UM062X/6-311+G** nosymm int=superfine
 --------------------------------------------

 -------------------
 Title Card Required
 -------------------
 Symbolic Z-matrix:
 Charge =  0 Multiplicity = 1

 SCF Done:  E(UM062X) =  -79.5622984040     A.U. after   10 cycles
 SCF Done:  E(UM062X) =  -79.5664835947     A.U. after    9 cycles
 SCF Done:  E(UM062X) =  -79.5683521755     A.U. after   10 cycles
 SCF Done:  E(UM062X) =  -79.5683688447     A.U. after   10 cycles
 Optimization completed.
    -- Stationary point found.

                          Input orientation:
 ---------------------------------------------------------------------
 Center     Atomic      Atomic             Coordinates (Angstroms)
 Number     Number       Type             X           Y           Z
 ---------------------------------------------------------------------
      1          6           0       -2.071675    0.000000    0.000000
      2          6           0        2.071800    0.000000    0.000000
      3          1           0        2.118208   -0.933791    0.540336
      4          1           0       -2.118065   -0.934844   -0.538512
      5          1           0        2.118194    0.934844    0.538512
      6          1           0        2.118221   -0.001052   -1.078854
      7          1           0       -2.118083    0.933791   -0.540335
      8          1           0       -2.118101    0.001052    1.078854
 ---------------------------------------------------------------------

 Alpha  occ. eigenvalues --  -10.57264 -10.57263  -0.77165  -0.76920  -0.49359
 Alpha  occ. eigenvalues --   -0.49359  -0.49269  -0.49269  -0.21261
 Alpha virt. eigenvalues --   -0.11920   0.03089   0.04881   0.05274   0.05274
 Alpha virt. eigenvalues --    0.07309   0.07309   0.11184   0.12728   0.18716
 Alpha virt. eigenvalues --    0.18716   0.19991   0.19991   0.21398   0.25164

  Beta  occ. eigenvalues --  -10.57264 -10.57263  -0.77165  -0.76920  -0.49359
  Beta  occ. eigenvalues --   -0.49359  -0.49269  -0.49269  -0.21261
  Beta virt. eigenvalues --   -0.11920   0.03089   0.04881   0.05274   0.05274
  Beta virt. eigenvalues --    0.07309   0.07309   0.11184   0.12728   0.18716
  Beta virt. eigenvalues --    0.18716   0.19991   0.19991   0.21398   0.25164

 Mulliken charges and spin densities:
               1          2
     1  C   -0.522756  -0.000000
     2  C   -0.522756   0.000000
     3  H    0.174252  -0.000000
     4  H    0.174252   0.000000
     5  H    0.174252  -0.000000
     6  H    0.174251  -0.000000
     7  H    0.174252   0.000000
     8  H    0.174251   0.000000
 Sum of Mulliken charges =  -0.00000   0.00000

 Dipole moment (field-independent basis, Debye):
    X=             -0.0000    Y=             -0.0000    Z=             -0.0000  Tot=              0.0000
 Quadrupole moment (field-independent basis, Debye-Ang):
   XX=            -15.9930   YY=            -14.8800   ZZ=            -14.8801
   XY=             -0.0000   XZ=             -0.0001   YZ=             -0.0000

 Normal termination of Gaussian 16 at Tue Dec  3 10:09:31 2024.
