 Gaussian 16, Revision A.03,
 Gaussian 16:  ES64L-G16RevA.03 25-Dec-2016

 --------------------------------------------
 #p opt UM062X/6-311+G** nosymm int=superfine
 --------------------------------------------

 -------------------
 Title Card Required
 -------------------
 Symbolic Z-matrix:
 Charge =  0 Multiplicity = 1

 SCF Done:  E(UM062X) =  -77.1649151669     A.U. after    9 cycles
 SCF Done:  E(UM062X) =  -77.2009841304     A.U. after    9 cycles
 SCF Done:  E(UM062X) =  -77.2193558395     A.U. after    9 cycles
 SCF Done:  E(UM062X) =  -77.2194223218     A.U. after    8 cycles
 Optimization completed.
    -- Stationary point found.

                          Input orientation:
 ---------------------------------------------------------------------
 Center     Atomic      Atomic             Coordinates (Angstroms)
 Number     Number       Type             X           Y           Z
 ---------------------------------------------------------------------
      1          6           0       -0.736174    0.000000    0.000000
      2          6           0        0.736174    0.000000    0.000000
      3          1           0       -1.806722   -0.000022    0.000022
      4          1           0        1.806715   -0.000021    0.000021
 ---------------------------------------------------------------------

 Alpha  occ. eigenvalues --  -10.61889 -10.61829  -0.80271  -0.67847  -0.55391
 Alpha  occ. eigenvalues --   -0.32187  -0.32187
 Alpha virt. eigenvalues --   -0.00573  -0.00573   0.01973   0.02414   0.08110
 Alpha virt. eigenvalues --    0.08110   0.09374   0.11395   0.11916   0.11916
 Alpha virt. eigenvalues --    0.18264   0.23413   0.32235   0.46005   0.58617

  Beta  occ. eigenvalues --  -10.61889 -10.61829  -0.80271  -0.67847  -0.55391
  Beta  occ. eigenvalues --   -0.32187  -0.32187
  Beta virt. eigenvalues --   -0.00573  -0.00573   0.01973   0.02414   0.08110
  Beta virt. eigenvalues --    0.08110   0.09374   0.11395   0.11916   0.11916
  Beta virt. eigenvalues --    0.18264   0.23413   0.32235   0.46005   0.58617

 Mulliken charges and spin densities:
               1          2
     1  C   -0.220448   0.000000
     2  C   -0.220449  -0.000000
     3  H    0.220449   0.000000
     4  H    0.220447  -0.000000
 Sum of Mulliken charges =  -0.00000  -0.00000

 Dipole moment (field-independent basis, Debye):
    X=             -0.0000    Y=             -0.0001    Z=              0.0001  Tot=              0.0001
 Quadrupole moment (field-independent basis, Debye-Ang):
   XX=             -5.8791   YY=            -15.0000   ZZ=            -15.0000
   XY=              0.0000   XZ=             -0.0000   YZ=             -0.0000

 Normal termination of Gaussian 16 at Tue Dec  3 20:08:37 2024.
