 Gaussian 16, Revision A.03,
 Gaussian 16:  ES64L-G16RevA.03 25-Dec-2016

 --------------------------------------------
 #p opt UM062X/6-311+G** nosymm int=superfine
 --------------------------------------------

 -------------------
 Title Card Required
 -------------------
 Symbolic Z-matrix:
 Charge =  0 Multiplicity = 1

 SCF Done:  E(UM062X) =  -579.873185081     A.U. after   10 cycles
 SCF Done:  E(UM062X) =  -579.875853603     A.U. after   10 cycles
 SCF Done:  E(UM062X) =  -579.875857557     A.U. after    7 cycles
 Optimization completed.
    -- Stationary point found.

                          Input orientation:
 ---------------------------------------------------------------------
 Center     Atomic      Atomic             Coordinates (Angstroms)
 Number     Number       Type             X           Y           Z
 ---------------------------------------------------------------------
      1         14           0       -2.453705    0.000000    0.000000
      2         14           0        2.453705    0.000000    0.000000
      3          1           0       -3.977095   -0.000028   -0.000000
      4          1           0        3.977095    0.000039   -0.000000
 ---------------------------------------------------------------------

 Alpha  occ. eigenvalues --  -67.04486 -67.04486  -5.58926  -5.58925  -3.90041
 Alpha  occ. eigenvalues --   -3.90041  -3.89585  -3.89585  -3.89444  -3.89444
 Alpha  occ. eigenvalues --   -0.54926  -0.54788  -0.33138  -0.32140  -0.17332
 Alpha virt. eigenvalues --   -0.11332  -0.08959  -0.08477   0.02272   0.02934
 Alpha virt. eigenvalues --    0.04424   0.05483   0.05579   0.05885   0.06967
 Alpha virt. eigenvalues --    0.07012   0.08110   0.14305   0.28066   0.29931

  Beta  occ. eigenvalues --  -67.04486 -67.04486  -5.58926  -5.58925  -3.90041
  Beta  occ. eigenvalues --   -3.90041  -3.89585  -3.89585  -3.89444  -3.89444
  Beta  occ. eigenvalues --   -0.54926  -0.54788  -0.33138  -0.32140  -0.17332
  Beta virt. eigenvalues --   -0.11332  -0.08959  -0.08477   0.02272   0.02934
  Beta virt. eigenvalues --    0.04424   0.05483   0.05579   0.05885   0.06967
  Beta virt. eigenvalues --    0.07012   0.08110   0.14305   0.28066   0.29931

 Mulliken charges and spin densities:
               1          2
     1  Si   0.153462   0.000008
     2  Si   0.153465  -0.000008
     3  H   -0.153463  -0.000000
     4  H   -0.153463   0.000000
 Sum of Mulliken charges =  -0.00000   0.00000

 Dipole moment (field-independent basis, Debye):
    X=              0.0000    Y=              0.0000    Z=              0.0000  Tot=              0.0000
 Quadrupole moment (field-independent basis, Debye-Ang):
   XX=            -30.3097   YY=            -24.2309   ZZ=            -35.5733
   XY=             -0.0002   XZ=              0.0000   YZ=             -0.0003

 Normal termination of Gaussian 16 at Mon Apr 21 21:27:06 2025.
