 Gaussian 16, Revision A.03,
 Gaussian 16:  ES64L-G16RevA.03 25-Dec-2016

 --------------------------------------------
 #p opt UM062X/6-311+G** nosymm int=superfine
 --------------------------------------------

 -------------------
 Title Card Required
 -------------------
 Symbolic Z-matrix:
 Charge =  1 Multiplicity = 2

 SCF Done:  E(UM062X) =  -76.6809734828     A.U. after   11 cycles
 SCF Done:  E(UM062X) =  -76.7180977978     A.U. after   10 cycles
 SCF Done:  E(UM062X) =  -76.7593966953     A.U. after   11 cycles
 SCF Done:  E(UM062X) =  -76.7594154057     A.U. after    7 cycles
 Optimization completed.
    -- Stationary point found.

                          Input orientation:
 ---------------------------------------------------------------------
 Center     Atomic      Atomic             Coordinates (Angstroms)
 Number     Number       Type             X           Y           Z
 ---------------------------------------------------------------------
      1          6           0       -0.820172    0.000000    0.000000
      2          6           0        0.820172    0.000000    0.000000
      3          1           0       -1.914419   -0.000000   -0.000000
      4          1           0        1.914427    0.000000   -0.000000
 ---------------------------------------------------------------------

 Alpha  occ. eigenvalues --  -10.99532 -10.99491  -1.11203  -0.99048  -0.85035
 Alpha  occ. eigenvalues --   -0.64356  -0.62201
 Alpha virt. eigenvalues --   -0.35553  -0.33555  -0.25975  -0.14224  -0.11026
 Alpha virt. eigenvalues --   -0.10692  -0.09189  -0.08951  -0.05290  -0.04966
 Alpha virt. eigenvalues --    0.01560   0.03898   0.08159   0.22224   0.31442

  Beta  occ. eigenvalues --  -10.99285 -10.99256  -1.07247  -0.97302  -0.84222
  Beta  occ. eigenvalues --   -0.60176
  Beta virt. eigenvalues --   -0.41264  -0.31841  -0.27541  -0.23844  -0.15290
  Beta virt. eigenvalues --   -0.11322  -0.11105  -0.09559  -0.09377  -0.05195
  Beta virt. eigenvalues --   -0.04876   0.00725   0.04006   0.08526   0.23007

 Mulliken charges and spin densities:
               1          2
     1  C    0.142286   0.521479
     2  C    0.142287   0.521480
     3  H    0.357712  -0.021479
     4  H    0.357715  -0.021480
 Sum of Mulliken charges =   1.00000   1.00000

 Dipole moment (field-independent basis, Debye):
    X=              0.0000    Y=             -0.0000    Z=             -0.0000  Tot=              0.0000
 Quadrupole moment (field-independent basis, Debye-Ang):
   XX=              2.6795   YY=            -12.1171   ZZ=            -11.0984
   XY=              0.0000   XZ=              0.0000   YZ=              0.8952

 Normal termination of Gaussian 16 at Tue Nov 19 13:13:34 2024.
