 Gaussian 16, Revision A.03,
 Gaussian 16:  ES64L-G16RevA.03 25-Dec-2016

 --------------------------------------------
 #p opt UM062X/6-311+G** nosymm int=superfine
 --------------------------------------------

 -------------------
 Title Card Required
 -------------------
 Symbolic Z-matrix:
 Charge =  1 Multiplicity = 2

 SCF Done:  E(UM062X) =  -1615.58276417     A.U. after   22 cycles
 SCF Done:  E(UM062X) =  -1615.58557171     A.U. after   22 cycles
 SCF Done:  E(UM062X) =  -1615.55986543     A.U. after   24 cycles
 SCF Done:  E(UM062X) =  -1615.58028496     A.U. after   24 cycles
 SCF Done:  E(UM062X) =  -1615.58655652     A.U. after   18 cycles
 SCF Done:  E(UM062X) =  -1615.58690995     A.U. after   22 cycles
 SCF Done:  E(UM062X) =  -1615.58413862     A.U. after   22 cycles
 SCF Done:  E(UM062X) =  -1615.58740270     A.U. after   20 cycles
 SCF Done:  E(UM062X) =  -1615.58812974     A.U. after   21 cycles
 SCF Done:  E(UM062X) =  -1615.58761399     A.U. after   20 cycles
 SCF Done:  E(UM062X) =  -1615.58827600     A.U. after   19 cycles
 SCF Done:  E(UM062X) =  -1615.58828224     A.U. after   18 cycles
 SCF Done:  E(UM062X) =  -1615.58828366     A.U. after   14 cycles
 SCF Done:  E(UM062X) =  -1615.58828397     A.U. after   14 cycles
 SCF Done:  E(UM062X) =  -1615.58828406     A.U. after   12 cycles
 Optimization completed.
    -- Stationary point found.

                          Input orientation:
 ---------------------------------------------------------------------
 Center     Atomic      Atomic             Coordinates (Angstroms)
 Number     Number       Type             X           Y           Z
 ---------------------------------------------------------------------
      1          6           0       -1.398119    0.000000    0.000000
      2          6           0        1.398119   -0.000000    0.000000
      3          6           0        0.000017   -2.116348    0.000388
      4          6           0        0.000039   -3.502837    0.000690
      5          6           0       -1.133369   -4.312523    0.239537
      6          6           0       -1.260110   -1.478817    0.215420
      7          6           0        0.662082   -5.707547   -0.140561
      8          1           0        1.283212   -6.581291   -0.276721
      9          6           0       -1.546275    0.801271    1.192657
     10          6           0       -0.662068   -5.707504    0.142282
     11          1           0       -1.283217   -6.581207    0.278612
     12          6           0        1.133419   -4.312597   -0.238050
     13          6           0        1.260110   -1.478865   -0.215022
     14          6           0        1.716359    2.221463   -1.257567
     15          6           0       -1.566136    0.359435   -1.390169
     16          6           0       -1.879746    2.838275    2.512027
     17          1           0       -2.022878    3.912364    2.535745
     18          6           0       -2.326109   -3.683856    0.498160
     19          1           0       -3.237349   -4.236035    0.697439
     20          6           0       -1.597365    1.686724   -1.929239
     21          6           0        2.369176   -2.260860   -0.472441
     22          1           0        3.324961   -1.769457   -0.623087
     23          6           0        1.566402    0.359724    1.390071
     24          6           0        1.597621    1.687104    1.928891
     25          6           0        2.326104   -3.684002   -0.497105
     26          1           0        3.237305   -4.236237   -0.696408
     27          6           0       -1.716499    2.221680    1.257164
     28          6           0       -1.485008    0.117379    2.440442
     29          1           0       -1.313235   -0.948024    2.447489
     30          6           0        1.672358   -0.704165    2.339299
     31          1           0        1.686187   -1.726712    1.994689
     32          6           0       -1.861939    2.129973    3.694965
     33          1           0       -1.999918    2.640161    4.640505
     34          6           0       -2.369194   -2.260722    0.473019
     35          1           0       -3.324999   -1.769274    0.623390
     36          6           0       -1.676319    1.863721   -3.326112
     37          1           0       -1.679137    2.877681   -3.708912
     38          6           0        1.546348    0.801034   -1.192806
     39          6           0       -1.678413    3.136356    0.146253
     40          1           0       -1.720858    4.181104    0.438609
     41          6           0       -1.776944    0.808532   -4.203014
     42          1           0       -1.857852    0.987072   -5.268359
     43          6           0       -1.596673    2.913371   -1.179575
     44          1           0       -1.574162    3.805051   -1.798903
     45          6           0        1.677046    1.864360    3.325710
     46          1           0        1.679886    2.878388    3.708327
     47          6           0       -1.644031    0.751423    3.652219
     48          1           0       -1.593411    0.174207    4.567436
     49          6           0       -1.671734   -0.704632   -2.339250
     50          1           0       -1.685609   -1.727118   -1.994470
     51          6           0        1.778090    0.809337    4.202760
     52          1           0        1.859382    0.988069    5.268044
     53          6           0        1.879940    2.837811   -2.512506
     54          1           0        2.022927    3.911916   -2.536400
     55          6           0        1.792702   -0.492651    3.692108
     56          1           0        1.894573   -1.341730    4.356848
     57          6           0        1.862671    2.129250   -3.695294
     58          1           0        2.000918    2.639249   -4.640897
     59          6           0        1.677773    3.136375   -0.146860
     60          1           0        1.719716    4.181078   -0.439446
     61          6           0       -1.791663   -0.493365   -3.692134
     62          1           0       -1.893292   -1.342566   -4.356755
     63          6           0        1.596243    2.913622    1.179016
     64          1           0        1.573365    3.805405    1.798180
     65          6           0        1.485488    0.116887   -2.440475
     66          1           0        1.313816   -0.948531   -2.447357
     67          6           0        1.644884    0.750689   -3.652329
     68          1           0        1.594623    0.173277   -4.567442
 ---------------------------------------------------------------------

 Alpha  occ. eigenvalues --  -10.70963 -10.70962 -10.68584 -10.68584 -10.68563
 Alpha  occ. eigenvalues --  -10.68563 -10.68233 -10.68233 -10.68163 -10.68163
 Alpha  occ. eigenvalues --  -10.67097 -10.67096 -10.66615 -10.66615 -10.66511
 Alpha  occ. eigenvalues --  -10.66511 -10.66301 -10.65986 -10.65986 -10.65795
 Alpha  occ. eigenvalues --  -10.65795 -10.65765 -10.65764 -10.65722 -10.65721
 Alpha  occ. eigenvalues --  -10.65709 -10.65709 -10.65637 -10.65636 -10.65595
 Alpha  occ. eigenvalues --  -10.65595 -10.65502 -10.65502 -10.65473 -10.65473
 Alpha  occ. eigenvalues --  -10.65299 -10.65299 -10.64968 -10.64968 -10.63957
 Alpha  occ. eigenvalues --  -10.63858 -10.63419  -1.12286  -1.10208  -1.10189
 Alpha  occ. eigenvalues --   -1.08398  -1.07787  -1.05623  -1.04881  -1.02568
 Alpha  occ. eigenvalues --   -1.02108  -1.00915  -1.00432  -0.97954  -0.97632
 Alpha  occ. eigenvalues --   -0.96837  -0.96277  -0.94996  -0.93514  -0.93483
 Alpha  occ. eigenvalues --   -0.92833  -0.91847  -0.87393  -0.87367  -0.84988
 Alpha  occ. eigenvalues --   -0.84766  -0.83097  -0.81459  -0.81144  -0.79825
 Alpha  occ. eigenvalues --   -0.79717  -0.79532  -0.77502  -0.76391  -0.76190
 Alpha  occ. eigenvalues --   -0.75813  -0.75425  -0.73522  -0.70238  -0.69686
 Alpha  occ. eigenvalues --   -0.69024  -0.68541  -0.67751  -0.67644  -0.66942
 Alpha  occ. eigenvalues --   -0.66859  -0.65707  -0.65370  -0.65191  -0.64788
 Alpha  occ. eigenvalues --   -0.63281  -0.62898  -0.62379  -0.62153  -0.61097
 Alpha  occ. eigenvalues --   -0.61042  -0.60642  -0.60486  -0.60105  -0.60068
 Alpha  occ. eigenvalues --   -0.59579  -0.58912  -0.58807  -0.58138  -0.57800
 Alpha  occ. eigenvalues --   -0.57591  -0.56838  -0.55946  -0.55667  -0.55647
 Alpha  occ. eigenvalues --   -0.54972  -0.53982  -0.53095  -0.52844  -0.52653
 Alpha  occ. eigenvalues --   -0.52412  -0.52347  -0.52281  -0.51048  -0.50984
 Alpha  occ. eigenvalues --   -0.50978  -0.50901  -0.50121  -0.49515  -0.49395
 Alpha  occ. eigenvalues --   -0.48841  -0.48527  -0.47850  -0.45018  -0.44680
 Alpha  occ. eigenvalues --   -0.44112  -0.42813  -0.40479  -0.40429  -0.39289
 Alpha  occ. eigenvalues --   -0.38166  -0.37565  -0.37137  -0.31471
 Alpha virt. eigenvalues --   -0.20325  -0.15919  -0.15550  -0.14345  -0.10619
 Alpha virt. eigenvalues --   -0.09963  -0.08903  -0.08542  -0.08364  -0.07567
 Alpha virt. eigenvalues --   -0.07516  -0.07448  -0.06652  -0.06365  -0.06140

  Beta  occ. eigenvalues --  -10.70822 -10.70822 -10.68624 -10.68624 -10.68595
  Beta  occ. eigenvalues --  -10.68595 -10.68192 -10.68192 -10.68120 -10.68120
  Beta  occ. eigenvalues --  -10.67115 -10.67114 -10.66609 -10.66609 -10.66501
  Beta  occ. eigenvalues --  -10.66501 -10.66273 -10.65948 -10.65948 -10.65765
  Beta  occ. eigenvalues --  -10.65764 -10.65733 -10.65733 -10.65709 -10.65708
  Beta  occ. eigenvalues --  -10.65695 -10.65694 -10.65655 -10.65654 -10.65613
  Beta  occ. eigenvalues --  -10.65613 -10.65488 -10.65488 -10.65484 -10.65484
  Beta  occ. eigenvalues --  -10.65315 -10.65315 -10.64966 -10.64965 -10.63957
  Beta  occ. eigenvalues --  -10.63858 -10.63417  -1.12127  -1.10101  -1.10050
  Beta  occ. eigenvalues --   -1.08285  -1.07688  -1.05460  -1.04754  -1.02448
  Beta  occ. eigenvalues --   -1.02002  -1.00750  -1.00260  -0.97852  -0.97539
  Beta  occ. eigenvalues --   -0.96719  -0.96176  -0.94947  -0.93450  -0.93386
  Beta  occ. eigenvalues --   -0.92754  -0.91760  -0.87106  -0.87008  -0.84920
  Beta  occ. eigenvalues --   -0.84704  -0.83018  -0.81366  -0.81032  -0.79742
  Beta  occ. eigenvalues --   -0.79647  -0.79461  -0.77390  -0.76237  -0.76042
  Beta  occ. eigenvalues --   -0.75650  -0.75389  -0.73400  -0.70122  -0.69541
  Beta  occ. eigenvalues --   -0.68889  -0.68431  -0.67699  -0.67597  -0.66820
  Beta  occ. eigenvalues --   -0.66756  -0.65628  -0.65228  -0.65052  -0.64688
  Beta  occ. eigenvalues --   -0.63056  -0.62853  -0.62298  -0.62073  -0.60908
  Beta  occ. eigenvalues --   -0.60768  -0.60478  -0.60351  -0.60044  -0.60016
  Beta  occ. eigenvalues --   -0.59454  -0.58777  -0.58723  -0.58065  -0.57585
  Beta  occ. eigenvalues --   -0.57337  -0.56640  -0.55617  -0.55617  -0.55591
  Beta  occ. eigenvalues --   -0.54953  -0.53658  -0.52984  -0.52759  -0.52579
  Beta  occ. eigenvalues --   -0.52344  -0.52240  -0.52211  -0.50957  -0.50909
  Beta  occ. eigenvalues --   -0.50815  -0.50495  -0.49546  -0.49272  -0.48897
  Beta  occ. eigenvalues --   -0.48568  -0.48471  -0.47532  -0.44461  -0.44138
  Beta  occ. eigenvalues --   -0.43386  -0.42470  -0.40362  -0.40089  -0.38688
  Beta  occ. eigenvalues --   -0.37999  -0.37322  -0.37013
  Beta virt. eigenvalues --   -0.21645  -0.17798  -0.15692  -0.15501  -0.14389
  Beta virt. eigenvalues --   -0.10342  -0.09565  -0.08529  -0.08444  -0.08181
  Beta virt. eigenvalues --   -0.07579  -0.07572  -0.07206  -0.06633  -0.06303

 Mulliken charges and spin densities:
               1          2
     1  C    0.007605   0.348345
     2  C    0.007625   0.348398
     3  C    0.239255   0.007112
     4  C    0.180307  -0.001078
     5  C    0.163611   0.005689
     6  C   -0.020756  -0.030351
     7  C   -0.303355   0.001025
     8  H    0.176230  -0.000039
     9  C    0.190529  -0.052141
    10  C   -0.303604   0.001023
    11  H    0.176229  -0.000039
    12  C    0.163449   0.005678
    13  C   -0.020807  -0.030354
    14  C    0.437808   0.039642
    15  C    0.413032  -0.066775
    16  C   -0.371629  -0.032647
    17  H    0.165796   0.001082
    18  C   -0.517477  -0.000076
    19  H    0.175948   0.000267
    20  C    0.222243   0.105643
    21  C   -0.090744   0.019051
    22  H    0.174692  -0.000210
    23  C    0.412940  -0.066765
    24  C    0.222089   0.105661
    25  C   -0.517418  -0.000075
    26  H    0.175945   0.000267
    27  C    0.438379   0.039727
    28  C    0.004835   0.076134
    29  H    0.206851  -0.003700
    30  C   -0.270059   0.030973
    31  H    0.226460  -0.002365
    32  C   -0.391297   0.056094
    33  H    0.182122  -0.003114
    34  C   -0.090570   0.019042
    35  H    0.174672  -0.000209
    36  C   -0.030641  -0.055929
    37  H    0.162070   0.001497
    38  C    0.190601  -0.052074
    39  C   -0.290820   0.061627
    40  H    0.166280  -0.003492
    41  C   -0.250810   0.062507
    42  H    0.180658  -0.003134
    43  C   -0.318513   0.012489
    44  H    0.160535  -0.000777
    45  C   -0.030838  -0.055938
    46  H    0.162078   0.001497
    47  C   -0.105391  -0.036831
    48  H    0.168825  -0.000214
    49  C   -0.270043   0.030951
    50  H    0.226461  -0.002365
    51  C   -0.251022   0.062459
    52  H    0.180662  -0.003131
    53  C   -0.371685  -0.032627
    54  H    0.165802   0.001081
    55  C   -0.509834  -0.034447
    56  H    0.175676   0.001126
    57  C   -0.391579   0.056071
    58  H    0.182119  -0.003113
    59  C   -0.289850   0.061654
    60  H    0.166254  -0.003494
    61  C   -0.510657  -0.034469
    62  H    0.175679   0.001126
    63  C   -0.318092   0.012456
    64  H    0.160505  -0.000777
    65  C    0.004664   0.076135
    66  H    0.206824  -0.003700
    67  C   -0.105685  -0.036862
    68  H    0.168831  -0.000214
 Sum of Mulliken charges =   1.00000   1.00000

 Dipole moment (field-independent basis, Debye):
    X=              0.0009    Y=              2.4291    Z=             -0.0004  Tot=              2.4291
 Quadrupole moment (field-independent basis, Debye-Ang):
   XX=           -222.5506   YY=           -175.0602   ZZ=           -176.1864
   XY=             -0.0028   XZ=             -1.4381   YZ=              0.0001

 Normal termination of Gaussian 16 at Fri Nov  8 23:30:45 2024.
