 Gaussian 16, Revision A.03,
 Gaussian 16:  ES64L-G16RevA.03 25-Dec-2016

 -------------------------------------
 #p opt UM062X/6-311+G** int=superfine
 -------------------------------------

 -------------------
 Title Card Required
 -------------------
 Symbolic Z-matrix:
 Charge =  1 Multiplicity = 2

 SCF Done:  E(UM062X) =  -78.1841722195     A.U. after    9 cycles
 SCF Done:  E(UM062X) =  -78.1841766939     A.U. after    6 cycles
 Optimization completed.
    -- Stationary point found.

                         Standard orientation:
 ---------------------------------------------------------------------
 Center     Atomic      Atomic             Coordinates (Angstroms)
 Number     Number       Type             X           Y           Z
 ---------------------------------------------------------------------
      1          6           0       -0.000000    0.706955   -0.000000
      2          6           0        0.000000   -0.706955   -0.000000
      3          1           0       -0.934616    1.260984   -0.000000
      4          1           0        0.934913    1.260520   -0.000000
      5          1           0        0.934616   -1.260984   -0.000000
      6          1           0       -0.934913   -1.260520   -0.000000
 ---------------------------------------------------------------------

 The electronic state is 2-AU.
 Alpha  occ. eigenvalues --  -10.89606 -10.89528  -1.18475  -0.97740  -0.84741
 Alpha  occ. eigenvalues --   -0.79497  -0.72849  -0.66698
 Alpha virt. eigenvalues --   -0.29464  -0.14690  -0.12632  -0.12450  -0.09709
 Alpha virt. eigenvalues --   -0.07773  -0.06885  -0.04808  -0.04465  -0.02520
 Alpha virt. eigenvalues --   -0.00546   0.01919   0.07476   0.10795   0.20333

  Beta  occ. eigenvalues --  -10.89375 -10.89311  -1.14497  -0.95815  -0.83633
  Beta  occ. eigenvalues --   -0.78552  -0.72529
  Beta virt. eigenvalues --   -0.42113  -0.22383  -0.16443  -0.12579  -0.12578
  Beta virt. eigenvalues --   -0.10210  -0.08644  -0.06945  -0.04768  -0.03669
  Beta virt. eigenvalues --   -0.02027  -0.00862   0.02221   0.08878   0.11253

 Mulliken charges and spin densities:
               1          2
     1  C   -0.052086   0.537725
     2  C   -0.052086   0.537725
     3  H    0.276067  -0.018859
     4  H    0.276019  -0.018866
     5  H    0.276067  -0.018859
     6  H    0.276019  -0.018866
 Sum of Mulliken charges =   1.00000   1.00000

 Dipole moment (field-independent basis, Debye):
    X=             -0.0000    Y=             -0.0000    Z=             -0.0000  Tot=              0.0000
 Quadrupole moment (field-independent basis, Debye-Ang):
   XX=             -8.4648   YY=             -5.5370   ZZ=            -11.4958
   XY=             -0.0010   XZ=             -0.0000   YZ=              0.0000

 Normal termination of Gaussian 16 at Sun Nov 24 10:52:27 2024.
