 Gaussian 16, Revision A.03,
 Gaussian 16:  ES64L-G16RevA.03 25-Dec-2016

 ---------------------------------------
 #p UM062X/6-311+G** force int=superfine
 ---------------------------------------

 -------------------
 Title Card Required
 -------------------
 Symbolic Z-matrix:
 Charge =  0 Multiplicity = 1

                         Standard orientation:
 ---------------------------------------------------------------------
 Center     Atomic      Atomic             Coordinates (Angstroms)
 Number     Number       Type             X           Y           Z
 ---------------------------------------------------------------------
      1          6           0       -0.496331   -0.000013    0.000001
      2          6           0        0.496331    0.000013   -0.000002
      3          1           0        1.033254    0.975901   -0.079410
      4          1           0       -1.033275    0.556730    0.805430
      5          1           0        1.033276   -0.556733   -0.805427
      6          1           0        1.033283   -0.419182    0.884838
      7          1           0       -1.033253   -0.975901    0.079415
      8          1           0       -1.033282    0.419184   -0.884838
 ---------------------------------------------------------------------

 SCF Done:  E(UM062X) =  -79.3863864866     A.U. after   10 cycles

 The electronic state is 1-A.
 Alpha  occ. eigenvalues --  -10.50370 -10.48967  -0.99015  -0.66852  -0.58171
 Alpha  occ. eigenvalues --   -0.58170  -0.54462  -0.32256  -0.32255
 Alpha virt. eigenvalues --    0.01911   0.04090   0.04090   0.04113   0.08544
 Alpha virt. eigenvalues --    0.09051   0.09051   0.14272   0.17168   0.17169
 Alpha virt. eigenvalues --    0.20780   0.20781   0.23756   0.27503   0.41143

  Beta  occ. eigenvalues --  -10.50370 -10.48967  -0.99015  -0.66852  -0.58171
  Beta  occ. eigenvalues --   -0.58170  -0.54462  -0.32256  -0.32255
  Beta virt. eigenvalues --    0.01911   0.04090   0.04090   0.04113   0.08544
  Beta virt. eigenvalues --    0.09051   0.09051   0.14272   0.17168   0.17169
  Beta virt. eigenvalues --    0.20780   0.20781   0.23756   0.27503   0.41143

 Mulliken charges and spin densities:
               1          2
     1  C   -0.407160   0.000000
     2  C   -0.407160  -0.000000
     3  H    0.135722   0.000000
     4  H    0.135719   0.000000
     5  H    0.135719   0.000000
     6  H    0.135719  -0.000000
     7  H    0.135722   0.000000
     8  H    0.135719   0.000000
 Sum of Mulliken charges =  -0.00000   0.00000

 Dipole moment (field-independent basis, Debye):
    X=             -0.0000    Y=             -0.0000    Z=              0.0000  Tot=              0.0000
 Quadrupole moment (field-independent basis, Debye-Ang):
   XX=            -15.7118   YY=            -14.9533   ZZ=            -14.9536
   XY=              0.0000   XZ=              0.0000   YZ=             -0.0000

 Normal termination of Gaussian 16 at Tue Nov 19 12:35:13 2024.
