 Gaussian 16, Revision A.03,
 Gaussian 16:  ES64L-G16RevA.03 25-Dec-2016

 ---------------------------------------
 #p UM062X/6-311+G** force int=superfine
 ---------------------------------------

 -------------------
 Title Card Required
 -------------------
 Symbolic Z-matrix:
 Charge =  0 Multiplicity = 1

                         Standard orientation:
 ---------------------------------------------------------------------
 Center     Atomic      Atomic             Coordinates (Angstroms)
 Number     Number       Type             X           Y           Z
 ---------------------------------------------------------------------
      1          7           0        0.000000    0.000000    1.520048
      2          7           0        0.000000    0.000000   -1.520048
 ---------------------------------------------------------------------

 SCF Done:  E(UM062X) =  -108.769543935     A.U. after   10 cycles

 The electronic state is 1-SGG.
 Alpha  occ. eigenvalues --  -14.96872 -14.96867  -0.87803  -0.86343  -0.35125
 Alpha  occ. eigenvalues --   -0.33356  -0.33356
 Alpha virt. eigenvalues --   -0.23407  -0.23407  -0.21241   0.07181   0.09317
 Alpha virt. eigenvalues --    0.11224   0.11224   0.15058   0.15058   0.15917
 Alpha virt. eigenvalues --    0.22508   0.70736   0.76426   0.76426   0.79600

  Beta  occ. eigenvalues --  -14.96872 -14.96867  -0.87803  -0.86343  -0.35125
  Beta  occ. eigenvalues --   -0.33356  -0.33356
  Beta virt. eigenvalues --   -0.23407  -0.23407  -0.21241   0.07181   0.09317
  Beta virt. eigenvalues --    0.11224   0.11224   0.15058   0.15058   0.15917
  Beta virt. eigenvalues --    0.22508   0.70736   0.76426   0.76426   0.79600

 Mulliken charges and spin densities:
               1          2
     1  N   -0.000000  -0.000000
     2  N   -0.000000  -0.000000
 Sum of Mulliken charges =  -0.00000  -0.00000

 Dipole moment (field-independent basis, Debye):
    X=              0.0000    Y=             -0.0000    Z=              0.0000  Tot=              0.0000
 Quadrupole moment (field-independent basis, Debye-Ang):
   XX=            -12.4452   YY=            -12.4452   ZZ=            -10.6126
   XY=              0.0000   XZ=             -0.0000   YZ=              0.0000

 Optimization completed.
    -- Stationary point found.
 Normal termination of Gaussian 16 at Wed Feb 26 13:55:49 2025.
