 Gaussian 16, Revision A.03,
 Gaussian 16:  ES64L-G16RevA.03 25-Dec-2016

 --------------------------------------------
 #p opt UM062X/6-311+G** nosymm int=superfine
 --------------------------------------------

 -------------------
 Title Card Required
 -------------------
 Symbolic Z-matrix:
 Charge =  1 Multiplicity = 2

 SCF Done:  E(UM062X) =  -379.295685531     A.U. after   31 cycles
 SCF Done:  E(UM062X) =  -379.296461175     A.U. after   22 cycles
 SCF Done:  E(UM062X) =  -379.296462757     A.U. after   12 cycles
 Optimization completed.
    -- Stationary point found.

                          Input orientation:
 ---------------------------------------------------------------------
 Center     Atomic      Atomic             Coordinates (Angstroms)
 Number     Number       Type             X           Y           Z
 ---------------------------------------------------------------------
      1          6           0       -2.094427    0.000000    0.000000
      2         15           0        2.094427    0.000000    0.000000
      3          1           0       -3.215632    0.000000   -0.000000
 ---------------------------------------------------------------------

 Alpha  occ. eigenvalues --  -78.31531 -10.97299  -7.13091  -5.25236  -5.24885
 Alpha  occ. eigenvalues --   -5.23836  -0.99286  -0.85067  -0.65211  -0.50723
 Alpha  occ. eigenvalues --   -0.45083
 Alpha virt. eigenvalues --   -0.38179  -0.34736  -0.33406  -0.13215  -0.09550
 Alpha virt. eigenvalues --   -0.08449  -0.08105  -0.06559  -0.05405  -0.05034
 Alpha virt. eigenvalues --   -0.02518   0.00077   0.16792   0.17339   0.17596

  Beta  occ. eigenvalues --  -78.30777 -10.97259  -7.12863  -5.24671  -5.23689
  Beta  occ. eigenvalues --   -5.22954  -0.99078  -0.79881  -0.65044  -0.44073
  Beta virt. eigenvalues --   -0.37110  -0.34568  -0.32232  -0.28422  -0.13606
  Beta virt. eigenvalues --   -0.10693  -0.08265  -0.08090  -0.06423  -0.05067
  Beta virt. eigenvalues --   -0.04635  -0.02771  -0.00155   0.14859   0.15571

 Mulliken charges and spin densities:
               1          2
     1  C    0.275050   0.049530
     2  P    0.485774   0.952409
     3  H    0.239176  -0.001939
 Sum of Mulliken charges =   1.00000   1.00000

 Dipole moment (field-independent basis, Debye):
    X=             -2.3689    Y=             -0.0000    Z=             -0.0000  Tot=              2.3689
 Quadrupole moment (field-independent basis, Debye-Ang):
   XX=             16.6896   YY=            -19.4470   ZZ=            -17.1997
   XY=              0.0000   XZ=              0.0000   YZ=              1.1158

 Normal termination of Gaussian 16 at Mon Apr 21 19:27:48 2025.
