 Gaussian 16, Revision A.03,
 Gaussian 16:  ES64L-G16RevA.03 25-Dec-2016

 ---------------------------------------------------------
 #p opt UM062X/6-311+G** nosymm int=superfine SCF=NoVarAcc
 ---------------------------------------------------------

 -------------------
 Title Card Required
 -------------------
 Symbolic Z-matrix:
 Charge =  1 Multiplicity = 2

 SCF Done:  E(UM062X) =  -77.9140000841     A.U. after   10 cycles
 SCF Done:  E(UM062X) =  -77.9181455951     A.U. after    9 cycles
 SCF Done:  E(UM062X) =  -77.9207116076     A.U. after    9 cycles
 SCF Done:  E(UM062X) =  -77.9207150998     A.U. after    7 cycles
 Optimization completed.
    -- Stationary point found.

                          Input orientation:
 ---------------------------------------------------------------------
 Center     Atomic      Atomic             Coordinates (Angstroms)
 Number     Number       Type             X           Y           Z
 ---------------------------------------------------------------------
      1          6           0       -1.681027    0.000000    0.000000
      2          6           0        1.681027    0.000000    0.000000
      3          1           0       -2.239876   -0.941748   -0.000000
      4          1           0       -2.239824    0.941778   -0.000000
      5          1           0        2.239876    0.941748   -0.000000
      6          1           0        2.239824   -0.941778   -0.000000
 ---------------------------------------------------------------------

 Alpha  occ. eigenvalues --  -10.89106 -10.89105  -1.00437  -1.00190  -0.75050
 Alpha  occ. eigenvalues --   -0.74921  -0.59737  -0.56192
 Alpha virt. eigenvalues --   -0.32551  -0.31727  -0.13062  -0.10947  -0.09545
 Alpha virt. eigenvalues --   -0.07508  -0.06745  -0.05346  -0.04479  -0.01802
 Alpha virt. eigenvalues --   -0.00879  -0.00111   0.01998   0.06686   0.25400

  Beta  occ. eigenvalues --  -10.88264 -10.88263  -0.98238  -0.97848  -0.74024
  Beta  occ. eigenvalues --   -0.73874  -0.49389
  Beta virt. eigenvalues --   -0.34574  -0.30694  -0.29672  -0.12891  -0.11037
  Beta virt. eigenvalues --   -0.09401  -0.07308  -0.06742  -0.04654  -0.03962
  Beta virt. eigenvalues --   -0.01528  -0.00301   0.00269   0.02058   0.07433

 Mulliken charges and spin densities:
               1          2
     1  C    0.017756   0.485847
     2  C    0.017756   0.485847
     3  H    0.241123   0.007077
     4  H    0.241122   0.007076
     5  H    0.241123   0.007077
     6  H    0.241122   0.007076
 Sum of Mulliken charges =   1.00000   1.00000

 Dipole moment (field-independent basis, Debye):
    X=             -0.0000    Y=             -0.0000    Z=             -0.0000  Tot=              0.0000
 Quadrupole moment (field-independent basis, Debye-Ang):
   XX=             12.3004   YY=             -9.4292   ZZ=            -10.7349
   XY=             -0.0000   XZ=              0.0000   YZ=             -0.0000

 Normal termination of Gaussian 16 at Tue Dec  3 13:28:49 2024.
