 Gaussian 16, Revision A.03,
 Gaussian 16:  ES64L-G16RevA.03 25-Dec-2016

 ---------------------------------------------------
 #p UM062X/6-311+G** force int=superfine pop=saveNBO
 ---------------------------------------------------

 -------------------
 Title Card Required
 -------------------
 Symbolic Z-matrix:
 Charge =  0 Multiplicity = 1

                         Standard orientation:
 ---------------------------------------------------------------------
 Center     Atomic      Atomic             Coordinates (Angstroms)
 Number     Number       Type             X           Y           Z
 ---------------------------------------------------------------------
      1         15           0        0.000000    0.000000    1.363495
      2         15           0        0.000000    0.000000   -1.363495
 ---------------------------------------------------------------------

 SCF Done:  E(UM062X) =  -682.479984822     A.U. after    9 cycles

 The electronic state is 1-SGG.
 Alpha  occ. eigenvalues --  -78.11163 -78.11163  -6.92714  -6.92711  -5.04058
 Alpha  occ. eigenvalues --   -5.04058  -5.04057  -5.04057  -5.03960  -5.03957
 Alpha  occ. eigenvalues --   -0.67345  -0.60102  -0.32094  -0.28022  -0.28022
 Alpha virt. eigenvalues --   -0.13856  -0.13856  -0.06529   0.02475   0.03713
 Alpha virt. eigenvalues --    0.04547   0.04547   0.06016   0.06693   0.06693
 Alpha virt. eigenvalues --    0.11943   0.29287   0.30564   0.30564   0.32666

  Beta  occ. eigenvalues --  -78.11163 -78.11163  -6.92714  -6.92711  -5.04058
  Beta  occ. eigenvalues --   -5.04058  -5.04057  -5.04057  -5.03960  -5.03957
  Beta  occ. eigenvalues --   -0.67345  -0.60102  -0.32094  -0.28022  -0.28022
  Beta virt. eigenvalues --   -0.13856  -0.13856  -0.06529   0.02475   0.03713
  Beta virt. eigenvalues --    0.04547   0.04547   0.06016   0.06693   0.06693
  Beta virt. eigenvalues --    0.11943   0.29287   0.30564   0.30564   0.32666

 Mulliken charges and spin densities:
               1          2
     1  P   -0.000000   0.000000
     2  P   -0.000000   0.000000
 Sum of Mulliken charges =  -0.00000   0.00000

 Dipole moment (field-independent basis, Debye):
    X=             -0.0000    Y=              0.0000    Z=              0.0000  Tot=              0.0000
 Quadrupole moment (field-independent basis, Debye-Ang):
   XX=            -28.7878   YY=            -28.7878   ZZ=            -25.1966
   XY=              0.0000   XZ=             -0.0000   YZ=              0.0000

 Summary of Natural Population Analysis:

                                       Natural Population
                Natural  -----------------------------------------------
    Atom  No    Charge         Core      Valence    Rydberg      Total
 -----------------------------------------------------------------------
      P    1   -0.00000      4.99996     2.49706    0.00297     7.50000
      P    2   -0.00000      4.99996     2.49706    0.00297     7.50000
 =======================================================================
   * Total *   -0.00000      9.99993     4.99412    0.00595    15.00000

 Normal termination of Gaussian 16 at Mon Apr 21 21:20:43 2025.
