 Gaussian 16, Revision A.03,
 Gaussian 16:  ES64L-G16RevA.03 25-Dec-2016

 --------------------------------------------
 #p opt UM062X/6-311+G** nosymm int=superfine
 --------------------------------------------

 -------------------
 Title Card Required
 -------------------
 Symbolic Z-matrix:
 Charge =  0 Multiplicity = 1

 SCF Done:  E(UM062X) =  -379.954206901     A.U. after   11 cycles
 SCF Done:  E(UM062X) =  -379.954217772     A.U. after    8 cycles
 Optimization completed.
    -- Stationary point found.

                          Input orientation:
 ---------------------------------------------------------------------
 Center     Atomic      Atomic             Coordinates (Angstroms)
 Number     Number       Type             X           Y           Z
 ---------------------------------------------------------------------
      1          6           0       -0.840377    0.000000    0.000000
      2         15           0        0.840377    0.000000    0.000000
      3          1           0       -1.918026    0.000000   -0.000000
 ---------------------------------------------------------------------

 Alpha  occ. eigenvalues --  -78.05357 -10.60649  -6.87550  -4.98994  -4.98994
 Alpha  occ. eigenvalues --   -4.98878  -0.78638  -0.62407  -0.42493  -0.32379
 Alpha  occ. eigenvalues --   -0.32379
 Alpha virt. eigenvalues --   -0.04105  -0.04105   0.01320   0.03034   0.04890
 Alpha virt. eigenvalues --    0.04890   0.07050   0.11089   0.11089   0.11980
 Alpha virt. eigenvalues --    0.16405   0.22955   0.32751   0.32751   0.36674

  Beta  occ. eigenvalues --  -78.05357 -10.60649  -6.87550  -4.98994  -4.98994
  Beta  occ. eigenvalues --   -4.98878  -0.78638  -0.62407  -0.42493  -0.32379
  Beta  occ. eigenvalues --   -0.32379
  Beta virt. eigenvalues --   -0.04105  -0.04105   0.01320   0.03034   0.04890
  Beta virt. eigenvalues --    0.04890   0.07050   0.11089   0.11089   0.11980
  Beta virt. eigenvalues --    0.16405   0.22955   0.32751   0.32751   0.36674

 Mulliken charges and spin densities:
               1          2
     1  C   -0.282785   0.000000
     2  P    0.088972  -0.000000
     3  H    0.193813   0.000000
 Sum of Mulliken charges =  -0.00000   0.00000

 Dipole moment (field-independent basis, Debye):
    X=             -0.2822    Y=              0.0000    Z=             -0.0000  Tot=              0.2822
 Quadrupole moment (field-independent basis, Debye-Ang):
   XX=            -15.4286   YY=            -20.6428   ZZ=            -20.6428
   XY=             -0.0000   XZ=              0.0000   YZ=              0.0000

 Normal termination of Gaussian 16 at Mon Apr 21 19:28:58 2025.
