 Gaussian 16, Revision A.03,
 Gaussian 16:  ES64L-G16RevA.03 25-Dec-2016

 ---------------------------------------------------
 #p UM062X/6-311+G** force int=superfine pop=saveNBO
 ---------------------------------------------------

 -------------------
 Title Card Required
 -------------------
 Symbolic Z-matrix:
 Charge =  0 Multiplicity = 1

                         Standard orientation:
 ---------------------------------------------------------------------
 Center     Atomic      Atomic             Coordinates (Angstroms)
 Number     Number       Type             X           Y           Z
 ---------------------------------------------------------------------
      1          8           0        0.000000    0.000000   -2.760091
      2         16           0        0.000000    0.000000    1.380045
 ---------------------------------------------------------------------

 SCF Done:  E(UM062X) =  -473.003742490     A.U. after   18 cycles

 Unable to determine electronic state:  partially filled degenerate orbitals.
 Alpha  occ. eigenvalues --  -89.96919 -19.77006  -8.32974  -6.25772  -6.24178
 Alpha  occ. eigenvalues --   -6.24162  -1.06707  -0.77041  -0.45596  -0.45583
 Alpha  occ. eigenvalues --   -0.34296  -0.34216
 Alpha virt. eigenvalues --   -0.19622  -0.19442   0.03600   0.04791   0.05687
 Alpha virt. eigenvalues --    0.05695   0.14457   0.17701   0.17862   0.21796
 Alpha virt. eigenvalues --    0.33805   0.35007   0.35797   0.59024   0.77587

  Beta  occ. eigenvalues --  -89.96919 -19.77006  -8.32974  -6.25772  -6.24178
  Beta  occ. eigenvalues --   -6.24162  -1.06707  -0.77041  -0.45596  -0.45583
  Beta  occ. eigenvalues --   -0.34296  -0.34216
  Beta virt. eigenvalues --   -0.19622  -0.19442   0.03600   0.04791   0.05687
  Beta virt. eigenvalues --    0.05695   0.14457   0.17701   0.17862   0.21796
  Beta virt. eigenvalues --    0.33805   0.35007   0.35797   0.59024   0.77587

 Mulliken charges and spin densities:
               1          2
     1  O   -0.007949   0.000000
     2  S    0.007949   0.000000
 Sum of Mulliken charges =  -0.00000   0.00000

 Dipole moment (field-independent basis, Debye):
    X=              0.0000    Y=              0.0000    Z=              0.2406  Tot=              0.2406
 Quadrupole moment (field-independent basis, Debye-Ang):
   XX=            -15.6835   YY=            -21.1482   ZZ=            -19.0428
   XY=              0.0000   XZ=              0.0000   YZ=              0.0000

 Summary of Natural Population Analysis:

                                       Natural Population
                Natural  -----------------------------------------------
    Atom  No    Charge         Core      Valence    Rydberg      Total
 -----------------------------------------------------------------------
      O    1   -0.00464      1.00000     3.00451    0.00013     4.00464
      S    2    0.00464      4.99999     2.99493    0.00044     7.99536
 =======================================================================
   * Total *   -0.00000      5.99999     5.99944    0.00057    12.00000

 Normal termination of Gaussian 16 at Mon Apr 21 20:01:25 2025.
