 Gaussian 16, Revision A.03,
 Gaussian 16:  ES64L-G16RevA.03 25-Dec-2016

 --------------------------------------------
 #p opt UM062X/6-311+G** nosymm int=superfine
 --------------------------------------------

 -------------------
 Title Card Required
 -------------------
 Symbolic Z-matrix:
 Charge =  0 Multiplicity = 1

 SCF Done:  E(UM062X) =  -797.472076643     A.U. after   13 cycles
 SCF Done:  E(UM062X) =  -797.473558876     A.U. after   12 cycles
 SCF Done:  E(UM062X) =  -797.474185596     A.U. after   12 cycles
 SCF Done:  E(UM062X) =  -797.474218621     A.U. after   12 cycles
 SCF Done:  E(UM062X) =  -797.474220769     A.U. after   10 cycles
 SCF Done:  E(UM062X) =  -797.474211306     A.U. after   11 cycles
 SCF Done:  E(UM062X) =  -797.474221538     A.U. after   11 cycles
 SCF Done:  E(UM062X) =  -797.474221763     A.U. after   10 cycles
 SCF Done:  E(UM062X) =  -797.474221818     A.U. after   10 cycles
 SCF Done:  E(UM062X) =  -797.474221821     A.U. after    9 cycles
 Optimization completed.
    -- Stationary point found.

                          Input orientation:
 ---------------------------------------------------------------------
 Center     Atomic      Atomic             Coordinates (Angstroms)
 Number     Number       Type             X           Y           Z
 ---------------------------------------------------------------------
      1         16           0       -1.493191    0.000000    0.000000
      2         16           0        1.493191    0.000000    0.000000
      3          1           0       -1.452999   -1.342191   -0.083819
      4          1           0        1.452671    0.118392    1.339437
 ---------------------------------------------------------------------

 Alpha  occ. eigenvalues --  -89.94634 -89.94634  -8.30774  -8.30773  -6.22933
 Alpha  occ. eigenvalues --   -6.22933  -6.22667  -6.22666  -6.22117  -6.22116
 Alpha  occ. eigenvalues --   -0.82711  -0.80020  -0.47436  -0.47250  -0.35878
 Alpha  occ. eigenvalues --   -0.33431  -0.33071
 Alpha virt. eigenvalues --   -0.15983   0.01914   0.03217   0.04709   0.05034
 Alpha virt. eigenvalues --    0.06213   0.07342   0.07394   0.07529   0.11521
 Alpha virt. eigenvalues --    0.13225   0.30506   0.31026   0.32234   0.35787

  Beta  occ. eigenvalues --  -89.94634 -89.94634  -8.30774  -8.30773  -6.22933
  Beta  occ. eigenvalues --   -6.22933  -6.22667  -6.22666  -6.22117  -6.22116
  Beta  occ. eigenvalues --   -0.82711  -0.80020  -0.47436  -0.47250  -0.35878
  Beta  occ. eigenvalues --   -0.33431  -0.33071
  Beta virt. eigenvalues --   -0.15983   0.01914   0.03217   0.04709   0.05034
  Beta virt. eigenvalues --    0.06213   0.07342   0.07394   0.07529   0.11521
  Beta virt. eigenvalues --    0.13225   0.30506   0.31026   0.32234   0.35787

 Mulliken charges and spin densities:
               1          2
     1  S   -0.088681   0.000000
     2  S   -0.088676  -0.000000
     3  H    0.088689  -0.000000
     4  H    0.088668   0.000000
 Sum of Mulliken charges =   0.00000   0.00000

 Dipole moment (field-independent basis, Debye):
    X=             -0.0005    Y=             -0.9749    Z=              1.0005  Tot=              1.3969
 Quadrupole moment (field-independent basis, Debye-Ang):
   XX=            -25.4568   YY=            -27.9083   ZZ=            -27.9403
   XY=              2.0076   XZ=              1.9560   YZ=              0.6194

 Normal termination of Gaussian 16 at Mon Apr 21 21:16:29 2025.
