 Gaussian 16, Revision A.03,
 Gaussian 16:  ES64L-G16RevA.03 25-Dec-2016

 --------------------------------------------
 #p opt UM062X/6-311+G** nosymm int=superfine
 --------------------------------------------

 -------------------
 Title Card Required
 -------------------
 Symbolic Z-matrix:
 Charge = -1 Multiplicity = 2

 SCF Done:  E(UM062X) =  -53.2102230586     A.U. after   11 cycles
 SCF Done:  E(UM062X) =  -53.2132211460     A.U. after   10 cycles
 SCF Done:  E(UM062X) =  -53.2138704276     A.U. after   10 cycles
 SCF Done:  E(UM062X) =  -53.2138721377     A.U. after    8 cycles
 Optimization completed.
    -- Stationary point found.

                          Input orientation:
 ---------------------------------------------------------------------
 Center     Atomic      Atomic             Coordinates (Angstroms)
 Number     Number       Type             X           Y           Z
 ---------------------------------------------------------------------
      1          5           0       -1.765672    0.000000    0.000000
      2          5           0        1.765672    0.000000    0.000000
      3          1           0        1.851296   -1.196288   -0.000013
      4          1           0       -1.851326   -0.598129    1.036022
      5          1           0        1.851473    0.598147   -1.036000
      6          1           0        1.851275    0.598115    1.036033
      7          1           0       -1.851303    1.196288    0.000000
      8          1           0       -1.851414   -0.598134   -1.036012
 ---------------------------------------------------------------------

 Alpha  occ. eigenvalues --   -6.83665  -6.83664  -0.39444  -0.38386  -0.21129
 Alpha  occ. eigenvalues --   -0.21129  -0.20567  -0.20567   0.00566
 Alpha virt. eigenvalues --    0.13336   0.17103   0.17726   0.17726   0.18641
 Alpha virt. eigenvalues --    0.18641   0.20404   0.22737   0.23311   0.32934
 Alpha virt. eigenvalues --    0.32935   0.35418   0.35418   0.38211   0.39387

  Beta  occ. eigenvalues --   -6.83625  -6.83625  -0.37519  -0.36847  -0.20904
  Beta  occ. eigenvalues --   -0.20904  -0.20404  -0.20404
  Beta virt. eigenvalues --    0.12893   0.14096   0.15192   0.15979   0.15979
  Beta virt. eigenvalues --    0.18209   0.18209   0.22584   0.23174   0.26294
  Beta virt. eigenvalues --    0.32061   0.32061   0.34967   0.34968   0.37941

 Mulliken charges and spin densities:
               1          2
     1  B   -0.320435   0.580801
     2  B   -0.320435   0.580801
     3  H   -0.059835  -0.026913
     4  H   -0.059863  -0.026944
     5  H   -0.059869  -0.026944
     6  H   -0.059861  -0.026944
     7  H   -0.059836  -0.026913
     8  H   -0.059866  -0.026944
 Sum of Mulliken charges =  -1.00000   1.00000

 Dipole moment (field-independent basis, Debye):
    X=              0.0000    Y=             -0.0000    Z=              0.0001  Tot=              0.0001
 Quadrupole moment (field-independent basis, Debye-Ang):
   XX=            -39.5899   YY=            -24.2198   ZZ=            -24.2200
   XY=             -0.0001   XZ=              0.0000   YZ=              0.0000

 Normal termination of Gaussian 16 at Mon Apr 21 16:54:30 2025.
