 Gaussian 16, Revision A.03,
 Gaussian 16:  ES64L-G16RevA.03 25-Dec-2016

 --------------------------------------------
 #p opt UM062X/6-311+G** nosymm int=superfine
 --------------------------------------------

 -------------------
 Title Card Required
 -------------------
 Symbolic Z-matrix:
 Charge =  1 Multiplicity = 2

 SCF Done:  E(UM062X) =  -580.922854075     A.U. after   11 cycles
 SCF Done:  E(UM062X) =  -580.923165916     A.U. after    8 cycles
 SCF Done:  E(UM062X) =  -580.923272578     A.U. after   10 cycles
 SCF Done:  E(UM062X) =  -580.923199716     A.U. after   13 cycles
 SCF Done:  E(UM062X) =  -580.923273637     A.U. after   13 cycles
 Optimization completed.
    -- Stationary point found.

                          Input orientation:
 ---------------------------------------------------------------------
 Center     Atomic      Atomic             Coordinates (Angstroms)
 Number     Number       Type             X           Y           Z
 ---------------------------------------------------------------------
      1         14           0       -1.466295    0.000000    0.000000
      2         14           0        1.466295    0.000000    0.000000
      3          1           0       -2.157624   -1.294980   -0.000199
      4          1           0        2.157624    1.294980    0.000506
      5          1           0       -2.157626    1.294979    0.001255
      6          1           0        2.157627   -1.294979   -0.000546
 ---------------------------------------------------------------------

 Alpha  occ. eigenvalues --  -67.26770 -67.26770  -5.81091  -5.81090  -4.12738
 Alpha  occ. eigenvalues --   -4.12737  -4.12056  -4.12050  -4.11904  -4.11904
 Alpha  occ. eigenvalues --   -0.82290  -0.79213  -0.64213  -0.63389  -0.53950
 Alpha  occ. eigenvalues --   -0.43182
 Alpha virt. eigenvalues --   -0.29885  -0.26630  -0.14148  -0.13357  -0.11547
 Alpha virt. eigenvalues --   -0.10777  -0.09141  -0.08985  -0.07798  -0.07004
 Alpha virt. eigenvalues --   -0.06942  -0.05656  -0.01677   0.01614   0.12170

  Beta  occ. eigenvalues --  -67.26479 -67.26479  -5.81005  -5.81005  -4.12025
  Beta  occ. eigenvalues --   -4.12024  -4.11989  -4.11982  -4.11799  -4.11798
  Beta  occ. eigenvalues --   -0.80361  -0.77763  -0.64181  -0.63472  -0.53120
  Beta virt. eigenvalues --   -0.29103  -0.24491  -0.24424  -0.14494  -0.13928
  Beta virt. eigenvalues --   -0.11894  -0.11206  -0.09446  -0.08835  -0.07346
  Beta virt. eigenvalues --   -0.06770  -0.06681  -0.03871  -0.03354   0.01387

 Mulliken charges and spin densities:
               1          2
     1  Si   0.437065   0.554187
     2  Si   0.437065   0.554184
     3  H    0.031467  -0.027093
     4  H    0.031467  -0.027093
     5  H    0.031467  -0.027093
     6  H    0.031467  -0.027093
 Sum of Mulliken charges =   1.00000   1.00000

 Dipole moment (field-independent basis, Debye):
    X=              0.0000    Y=              0.0000    Z=             -0.0001  Tot=              0.0001
 Quadrupole moment (field-independent basis, Debye-Ang):
   XX=             -8.8980   YY=            -23.6502   ZZ=            -24.6802
   XY=             -0.0000   XZ=              0.0001   YZ=              0.0005

 Normal termination of Gaussian 16 at Mon Apr 21 20:22:42 2025.
