 Gaussian 16, Revision A.03,
 Gaussian 16:  ES64L-G16RevA.03 25-Dec-2016

 --------------------------------------------
 #p opt UM062X/6-311+G** nosymm int=superfine
 --------------------------------------------

 -------------------
 Title Card Required
 -------------------
 Symbolic Z-matrix:
 Charge =  0 Multiplicity = 1

 SCF Done:  E(UM062X) =  -76.9677799195     A.U. after   11 cycles
 SCF Done:  E(UM062X) =  -77.0509137810     A.U. after    8 cycles
 SCF Done:  E(UM062X) =  -77.1469252342     A.U. after    9 cycles
 SCF Done:  E(UM062X) =  -77.1714676164     A.U. after    9 cycles
 SCF Done:  E(UM062X) =  -77.1727380260     A.U. after    7 cycles
 SCF Done:  E(UM062X) =  -77.1729063418     A.U. after    7 cycles
 Optimization completed.
    -- Stationary point found.

                          Input orientation:
 ---------------------------------------------------------------------
 Center     Atomic      Atomic             Coordinates (Angstroms)
 Number     Number       Type             X           Y           Z
 ---------------------------------------------------------------------
      1          6           0       -0.371208    0.000000    0.000000
      2          6           0        0.371208    0.000000    0.000000
      3          1           0       -1.116048   -0.835368   -0.000000
      4          1           0       -1.116096    0.835188   -0.000000
      5          1           0        1.116048    0.835368    0.000000
      6          1           0        1.116096   -0.835188    0.000000
 ---------------------------------------------------------------------

 Alpha  occ. eigenvalues --  -10.59131 -10.46394  -0.92530  -0.64418  -0.60350
 Alpha  occ. eigenvalues --   -0.53528  -0.52393  -0.27795
 Alpha virt. eigenvalues --    0.02816   0.02873   0.04169   0.05680   0.08114
 Alpha virt. eigenvalues --    0.09419   0.09838   0.14563   0.15938   0.18766
 Alpha virt. eigenvalues --    0.25289   0.25721   0.37010   0.41724   0.43952

  Beta  occ. eigenvalues --  -10.59131 -10.46394  -0.92530  -0.64418  -0.60350
  Beta  occ. eigenvalues --   -0.53528  -0.52393  -0.27795
  Beta virt. eigenvalues --    0.02816   0.02873   0.04169   0.05680   0.08114
  Beta virt. eigenvalues --    0.09419   0.09838   0.14563   0.15938   0.18766
  Beta virt. eigenvalues --    0.25289   0.25721   0.37010   0.41724   0.43952

 Mulliken charges and spin densities:
               1          2
     1  C   -0.242926  -0.000000
     2  C   -0.242926   0.000000
     3  H    0.121443   0.000000
     4  H    0.121482   0.000000
     5  H    0.121443  -0.000000
     6  H    0.121482  -0.000000
 Sum of Mulliken charges =  -0.00000  -0.00000

 Dipole moment (field-independent basis, Debye):
    X=             -0.0000    Y=              0.0000    Z=              0.0000  Tot=              0.0000
 Quadrupole moment (field-independent basis, Debye-Ang):
   XX=            -12.7418   YY=            -12.6571   ZZ=            -13.0635
   XY=             -0.0006   XZ=              0.0000   YZ=              0.0000

 Normal termination of Gaussian 16 at Tue Nov 19 10:13:34 2024.
