 Gaussian 16, Revision A.03,
 Gaussian 16:  ES64L-G16RevA.03 25-Dec-2016

 --------------------------------------------
 #p opt UM062X/6-311+G** nosymm int=superfine
 --------------------------------------------

 -------------------
 Title Card Required
 -------------------
 Symbolic Z-matrix:
 Charge = -1 Multiplicity = 2

 SCF Done:  E(UM062X) =  -51.8510863719     A.U. after   16 cycles
 SCF Done:  E(UM062X) =  -51.8511094747     A.U. after    8 cycles
 SCF Done:  E(UM062X) =  -51.8511206220     A.U. after   18 cycles
 Optimization completed.
    -- Stationary point found.

                          Input orientation:
 ---------------------------------------------------------------------
 Center     Atomic      Atomic             Coordinates (Angstroms)
 Number     Number       Type             X           Y           Z
 ---------------------------------------------------------------------
      1          5           0       -1.722274    0.000000    0.000000
      2          5           0        1.722274    0.000000    0.000000
      3          1           0       -2.402023   -1.009834    0.000618
      4          1           0        2.402023    1.009834    0.000138
      5          1           0       -2.402026    1.009832    0.000681
      6          1           0        2.402026   -1.009832    0.001148
 ---------------------------------------------------------------------

 Alpha  occ. eigenvalues --   -6.86678  -6.86677  -0.37001  -0.36684  -0.20931
 Alpha  occ. eigenvalues --   -0.20726  -0.06037   0.00880
 Alpha virt. eigenvalues --    0.12127   0.14237   0.15624   0.16300   0.16693
 Alpha virt. eigenvalues --    0.18143   0.20584   0.21360   0.21801   0.23647
 Alpha virt. eigenvalues --    0.32656   0.34106   0.35058   0.39072   0.50192

  Beta  occ. eigenvalues --   -6.86054  -6.86053  -0.35725  -0.35353  -0.20300
  Beta  occ. eigenvalues --   -0.20074   0.00478
  Beta virt. eigenvalues --    0.13168   0.13255   0.14228   0.14773   0.18051
  Beta virt. eigenvalues --    0.18231   0.18965   0.22820   0.22940   0.23638
  Beta virt. eigenvalues --    0.24923   0.32712   0.34042   0.34991   0.39759

 Mulliken charges and spin densities:
               1          2
     1  B   -0.335449   0.490586
     2  B   -0.335449   0.490586
     3  H   -0.082275   0.004707
     4  H   -0.082275   0.004707
     5  H   -0.082275   0.004707
     6  H   -0.082276   0.004707
 Sum of Mulliken charges =  -1.00000   1.00000

 Dipole moment (field-independent basis, Debye):
    X=              0.0000    Y=              0.0000    Z=              0.0040  Tot=              0.0040
 Quadrupole moment (field-independent basis, Debye-Ang):
   XX=            -41.6931   YY=            -24.6926   ZZ=            -18.9342
   XY=             -0.0000   XZ=              0.0000   YZ=              0.0013

 Normal termination of Gaussian 16 at Mon Apr 21 17:23:03 2025.
