 Gaussian 16, Revision A.03,
 Gaussian 16:  ES64L-G16RevA.03 25-Dec-2016

 --------------------------------------------
 #p opt UM062X/6-311+G** nosymm int=superfine
 --------------------------------------------

 -------------------
 Title Card Required
 -------------------
 Symbolic Z-matrix:
 Charge =  1 Multiplicity = 2

 SCF Done:  E(UM062X) =  -76.5837686568     A.U. after   17 cycles
 SCF Done:  E(UM062X) =  -76.5841010056     A.U. after   16 cycles
 Optimization completed.
    -- Stationary point found.

                          Input orientation:
 ---------------------------------------------------------------------
 Center     Atomic      Atomic             Coordinates (Angstroms)
 Number     Number       Type             X           Y           Z
 ---------------------------------------------------------------------
      1          6           0       -2.157160    0.000000    0.000000
      2          6           0        2.157160    0.000000    0.000000
      3          1           0       -3.274670   -0.000000    0.000000
      4          1           0        3.274669   -0.000000   -0.000000
 ---------------------------------------------------------------------

 Alpha  occ. eigenvalues --  -10.93983 -10.93982  -0.97681  -0.97614  -0.63169
 Alpha  occ. eigenvalues --   -0.62632  -0.47143
 Alpha virt. eigenvalues --   -0.40622  -0.32774  -0.32610  -0.11911  -0.11126
 Alpha virt. eigenvalues --   -0.07434  -0.07095  -0.05881  -0.04609  -0.04301
 Alpha virt. eigenvalues --   -0.01586  -0.00212   0.05438   0.28444   0.28491

  Beta  occ. eigenvalues --  -10.93568 -10.93568  -0.95290  -0.95274  -0.61811
  Beta  occ. eigenvalues --   -0.61231
  Beta virt. eigenvalues --   -0.30909  -0.30697  -0.29299  -0.29049  -0.12340
  Beta virt. eigenvalues --   -0.11062  -0.06706  -0.06303  -0.05850  -0.03822
  Beta virt. eigenvalues --   -0.02871  -0.01890   0.01393   0.07191   0.27648

 Mulliken charges and spin densities:
               1          2
     1  C    0.276554   0.516326
     2  C    0.276554   0.516327
     3  H    0.223446  -0.016327
     4  H    0.223446  -0.016327
 Sum of Mulliken charges =   1.00000   1.00000

 Dipole moment (field-independent basis, Debye):
    X=             -0.0000    Y=             -0.0000    Z=              0.0000  Tot=              0.0000
 Quadrupole moment (field-independent basis, Debye-Ang):
   XX=             29.1690   YY=             -9.8074   ZZ=            -11.1391
   XY=              0.0000   XZ=             -0.0000   YZ=              0.7428

 Normal termination of Gaussian 16 at Tue Dec  3 11:35:17 2024.
