 Gaussian 16, Revision A.03,
 Gaussian 16:  ES64L-G16RevA.03 25-Dec-2016

 --------------------------------------------
 #p opt UM062X/6-311+G** nosymm int=superfine
 --------------------------------------------

 -------------------
 Title Card Required
 -------------------
 Symbolic Z-matrix:
 Charge =  0 Multiplicity = 1

 SCF Done:  E(UM062X) =  -151.500382111     A.U. after   13 cycles
 SCF Done:  E(UM062X) =  -151.503775773     A.U. after   15 cycles
 SCF Done:  E(UM062X) =  -151.504003371     A.U. after   14 cycles
 SCF Done:  E(UM062X) =  -151.504046537     A.U. after   12 cycles
 SCF Done:  E(UM062X) =  -151.504046922     A.U. after   10 cycles
 Optimization completed.
    -- Stationary point found.

                          Input orientation:
 ---------------------------------------------------------------------
 Center     Atomic      Atomic             Coordinates (Angstroms)
 Number     Number       Type             X           Y           Z
 ---------------------------------------------------------------------
      1          8           0       -0.861938    0.000000    0.000000
      2          8           0        0.861938    0.000000    0.000000
      3          1           0       -0.914744   -0.931362   -0.257632
      4          1           0        0.914752    0.586170    0.768260
 ---------------------------------------------------------------------

 Alpha  occ. eigenvalues --  -19.70904 -19.70895  -1.19057  -1.06649  -0.58698
 Alpha  occ. eigenvalues --   -0.55975  -0.48092  -0.45296  -0.39552
 Alpha virt. eigenvalues --   -0.06872   0.05738   0.10249   0.15292   0.16415
 Alpha virt. eigenvalues --    0.17937   0.20317   0.21481   0.22193   0.25942
 Alpha virt. eigenvalues --    0.33358   0.49655   0.53284   0.95054   0.99442

  Beta  occ. eigenvalues --  -19.70904 -19.70895  -1.19057  -1.06649  -0.58698
  Beta  occ. eigenvalues --   -0.55975  -0.48092  -0.45296  -0.39552
  Beta virt. eigenvalues --   -0.06872   0.05738   0.10249   0.15292   0.16415
  Beta virt. eigenvalues --    0.17937   0.20317   0.21481   0.22193   0.25942
  Beta virt. eigenvalues --    0.33358   0.49655   0.53284   0.95054   0.99442

 Mulliken charges and spin densities:
               1          2
     1  O   -0.273508   0.000000
     2  O   -0.273510  -0.000000
     3  H    0.273509   0.000000
     4  H    0.273509   0.000000
 Sum of Mulliken charges =  -0.00000  -0.00000

 Dipole moment (field-independent basis, Debye):
    X=              0.0000    Y=             -0.6469    Z=              0.9569  Tot=              1.1551
 Quadrupole moment (field-independent basis, Debye-Ang):
   XX=            -11.7867   YY=            -10.0803   ZZ=            -11.6117
   XY=              2.9873   XZ=              2.0195   YZ=              1.9066

 Normal termination of Gaussian 16 at Mon Apr 21 21:34:41 2025.
