 Gaussian 16, Revision A.03,
 Gaussian 16:  ES64L-G16RevA.03 25-Dec-2016

 ---------------------------------------
 #p UM062X/6-311+G** force int=superfine
 ---------------------------------------

 -------------------
 Title Card Required
 -------------------
 Symbolic Z-matrix:
 Charge =  1 Multiplicity = 2

                         Standard orientation:
 ---------------------------------------------------------------------
 Center     Atomic      Atomic             Coordinates (Angstroms)
 Number     Number       Type             X           Y           Z
 ---------------------------------------------------------------------
      1          6           0       -0.710272    0.066063    0.000003
      2          6           0        0.710268   -0.066067   -0.000005
      3          1           0        1.140956   -1.062135   -0.000144
      4          1           0       -1.208208   -0.617956   -0.766392
      5          1           0        1.208217    0.617963    0.766381
      6          1           0        1.208021    0.618186   -0.766351
      7          1           0       -1.140951    1.062135    0.000139
      8          1           0       -1.208007   -0.618165    0.766377
 ---------------------------------------------------------------------

 SCF Done:  E(UM062X) =  -79.3676531527     A.U. after   11 cycles

 The electronic state is 2-A.
 Alpha  occ. eigenvalues --  -10.82685 -10.82624  -1.16609  -1.00256  -0.81728
 Alpha  occ. eigenvalues --   -0.77116  -0.76087  -0.70534  -0.65072
 Alpha virt. eigenvalues --   -0.16166  -0.13441  -0.11780  -0.11768  -0.08357
 Alpha virt. eigenvalues --   -0.07330  -0.06790  -0.06543  -0.05595  -0.02044
 Alpha virt. eigenvalues --   -0.01055  -0.00597   0.05846   0.06276   0.07678

  Beta  occ. eigenvalues --  -10.82587 -10.82518  -1.14645  -0.96571  -0.80630
  Beta  occ. eigenvalues --   -0.74268  -0.70981  -0.69191
  Beta virt. eigenvalues --   -0.45135  -0.16160  -0.13500  -0.11753  -0.11580
  Beta virt. eigenvalues --   -0.08369  -0.06990  -0.06819  -0.05381  -0.04831
  Beta virt. eigenvalues --   -0.01829  -0.00796  -0.00439   0.05971   0.06644

 Mulliken charges and spin densities:
               1          2
     1  C   -0.410457   0.177647
     2  C   -0.410427   0.177682
     3  H    0.258809  -0.010722
     4  H    0.325813   0.166486
     5  H    0.325815   0.166496
     6  H    0.325822   0.166569
     7  H    0.258805  -0.010720
     8  H    0.325820   0.166563
 Sum of Mulliken charges =   1.00000   1.00000

 Dipole moment (field-independent basis, Debye):
    X=              0.0002    Y=              0.0001    Z=              0.0000  Tot=              0.0002
 Quadrupole moment (field-independent basis, Debye-Ang):
   XX=             -6.0761   YY=            -10.0074   ZZ=            -11.2457
   XY=              1.7507   XZ=              0.0000   YZ=             -0.0003

 Normal termination of Gaussian 16 at Tue Nov 19 08:42:15 2024.
