 Gaussian 16, Revision A.03,
 Gaussian 16:  ES64L-G16RevA.03 25-Dec-2016

 --------------------------------------------
 #p opt UM062X/6-311+G** nosymm int=superfine
 --------------------------------------------

 -------------------
 Title Card Required
 -------------------
 Symbolic Z-matrix:
 Charge =  0 Multiplicity = 1

 SCF Done:  E(UM062X) =  -79.6687920801     A.U. after    8 cycles
 SCF Done:  E(UM062X) =  -79.6983276887     A.U. after    8 cycles
 SCF Done:  E(UM062X) =  -79.7230223901     A.U. after   10 cycles
 SCF Done:  E(UM062X) =  -79.7236644431     A.U. after    8 cycles
 SCF Done:  E(UM062X) =  -79.7236671946     A.U. after    6 cycles
 Optimization completed.
    -- Stationary point found.

                          Input orientation:
 ---------------------------------------------------------------------
 Center     Atomic      Atomic             Coordinates (Angstroms)
 Number     Number       Type             X           Y           Z
 ---------------------------------------------------------------------
      1          6           0       -1.068966    0.000000    0.000000
      2          6           0        1.069075    0.000000    0.000000
      3          1           0        1.335260   -0.909316    0.526188
      4          1           0       -1.335149   -0.910340   -0.524412
      5          1           0        1.335260    0.910341    0.524411
      6          1           0        1.335299   -0.001025   -1.050570
      7          1           0       -1.335150    0.909316   -0.526188
      8          1           0       -1.335192    0.001025    1.050570
 ---------------------------------------------------------------------

 Alpha  occ. eigenvalues --  -10.54936 -10.54928  -0.78441  -0.73068  -0.48307
 Alpha  occ. eigenvalues --   -0.48307  -0.44985  -0.44984  -0.31647
 Alpha virt. eigenvalues --    0.01689   0.02386   0.05615   0.05615   0.08421
 Alpha virt. eigenvalues --    0.08421   0.09356   0.09668   0.13432   0.18181
 Alpha virt. eigenvalues --    0.18181   0.22093   0.22093   0.24339   0.26760

  Beta  occ. eigenvalues --  -10.54936 -10.54928  -0.78441  -0.73068  -0.48307
  Beta  occ. eigenvalues --   -0.48307  -0.44985  -0.44984  -0.31647
  Beta virt. eigenvalues --    0.01689   0.02386   0.05615   0.05615   0.08421
  Beta virt. eigenvalues --    0.08421   0.09356   0.09668   0.13432   0.18181
  Beta virt. eigenvalues --    0.18181   0.22093   0.22093   0.24339   0.26760

 Mulliken charges and spin densities:
               1          2
     1  C   -0.501715  -0.000000
     2  C   -0.501715   0.000000
     3  H    0.167238   0.000000
     4  H    0.167239   0.000000
     5  H    0.167239  -0.000000
     6  H    0.167238  -0.000000
     7  H    0.167238   0.000000
     8  H    0.167238   0.000000
 Sum of Mulliken charges =  -0.00000  -0.00000

 Dipole moment (field-independent basis, Debye):
    X=              0.0000    Y=             -0.0000    Z=             -0.0000  Tot=              0.0000
 Quadrupole moment (field-independent basis, Debye-Ang):
   XX=            -15.5652   YY=            -14.8536   ZZ=            -14.8535
   XY=              0.0000   XZ=             -0.0001   YZ=             -0.0000

 Normal termination of Gaussian 16 at Tue Nov 19 12:10:21 2024.
