 Gaussian 16, Revision A.03,
 Gaussian 16:  ES64L-G16RevA.03 25-Dec-2016

 ---------------------------------------------------------
 #p opt UM062X/6-311+G** nosymm int=superfine SCF=NoVarAcc
 ---------------------------------------------------------

 -------------------
 Title Card Required
 -------------------
 Symbolic Z-matrix:
 Charge =  1 Multiplicity = 2

 SCF Done:  E(UM062X) =  -77.9792749444     A.U. after    9 cycles
 SCF Done:  E(UM062X) =  -77.9793509873     A.U. after    6 cycles
 SCF Done:  E(UM062X) =  -77.9793808305     A.U. after    8 cycles
 Optimization completed.
    -- Stationary point found.

                          Input orientation:
 ---------------------------------------------------------------------
 Center     Atomic      Atomic             Coordinates (Angstroms)
 Number     Number       Type             X           Y           Z
 ---------------------------------------------------------------------
      1          6           0       -1.206027    0.000000    0.000000
      2          6           0        1.206027    0.000000    0.000000
      3          1           0       -1.624121   -1.001595    0.000000
      4          1           0       -1.624119    1.001596    0.000000
      5          1           0        1.624121    1.001595   -0.000000
      6          1           0        1.624119   -1.001596    0.000000
 ---------------------------------------------------------------------

 Alpha  occ. eigenvalues --  -10.92369 -10.92361  -1.04118  -1.00734  -0.79912
 Alpha  occ. eigenvalues --   -0.78482  -0.61320  -0.53149
 Alpha virt. eigenvalues --   -0.38385  -0.31554  -0.13695  -0.10842  -0.10450
 Alpha virt. eigenvalues --   -0.07973  -0.07555  -0.06849  -0.04699  -0.03876
 Alpha virt. eigenvalues --   -0.03591   0.00615   0.01767   0.09211   0.18243

  Beta  occ. eigenvalues --  -10.92118 -10.92113  -1.01247  -0.98362  -0.79482
  Beta  occ. eigenvalues --   -0.78121  -0.59584
  Beta virt. eigenvalues --   -0.33350  -0.29354  -0.28959  -0.14831  -0.11085
  Beta virt. eigenvalues --   -0.10645  -0.07404  -0.07371  -0.07038  -0.03870
  Beta virt. eigenvalues --   -0.03772  -0.03359   0.00648   0.01082   0.10151

 Mulliken charges and spin densities:
               1          2
     1  C   -0.067544   0.541892
     2  C   -0.067544   0.541892
     3  H    0.283772  -0.020946
     4  H    0.283772  -0.020946
     5  H    0.283772  -0.020946
     6  H    0.283772  -0.020946
 Sum of Mulliken charges =   1.00000   1.00000

 Dipole moment (field-independent basis, Debye):
    X=              0.0000    Y=              0.0000    Z=              0.0000  Tot=              0.0000
 Quadrupole moment (field-independent basis, Debye-Ang):
   XX=              0.8247   YY=             -7.9375   ZZ=            -12.8261
   XY=              0.0000   XZ=             -0.0000   YZ=             -0.0000

 Normal termination of Gaussian 16 at Tue Dec  3 13:22:07 2024.
