 Gaussian 16, Revision A.03,
 Gaussian 16:  ES64L-G16RevA.03 25-Dec-2016

 --------------------------------------------
 #p opt UM062X/6-311+G** nosymm int=superfine
 --------------------------------------------

 -------------------
 Title Card Required
 -------------------
 Symbolic Z-matrix:
 Charge =  0 Multiplicity = 1

 SCF Done:  E(UM062X) =  -579.876755974     A.U. after   10 cycles
 SCF Done:  E(UM062X) =  -579.879469870     A.U. after   10 cycles
 SCF Done:  E(UM062X) =  -579.879474130     A.U. after   10 cycles
 Optimization completed.
    -- Stationary point found.

                          Input orientation:
 ---------------------------------------------------------------------
 Center     Atomic      Atomic             Coordinates (Angstroms)
 Number     Number       Type             X           Y           Z
 ---------------------------------------------------------------------
      1         14           0       -2.303705    0.000000    0.000000
      2         14           0        2.303705    0.000000    0.000000
      3          1           0       -3.827687   -0.000028   -0.000000
      4          1           0        3.827687    0.000040    0.000000
 ---------------------------------------------------------------------

 Alpha  occ. eigenvalues --  -67.04532 -67.04532  -5.58965  -5.58963  -3.90078
 Alpha  occ. eigenvalues --   -3.90078  -3.89624  -3.89624  -3.89482  -3.89482
 Alpha  occ. eigenvalues --   -0.54968  -0.54767  -0.33375  -0.31884  -0.17589
 Alpha virt. eigenvalues --   -0.11077  -0.09070  -0.08392   0.02248   0.02927
 Alpha virt. eigenvalues --    0.04475   0.05633   0.05839   0.05909   0.06526
 Alpha virt. eigenvalues --    0.07042   0.08311   0.15315   0.28616   0.29717

  Beta  occ. eigenvalues --  -67.04532 -67.04532  -5.58965  -5.58963  -3.90078
  Beta  occ. eigenvalues --   -3.90078  -3.89624  -3.89624  -3.89482  -3.89482
  Beta  occ. eigenvalues --   -0.54968  -0.54767  -0.33375  -0.31884  -0.17589
  Beta virt. eigenvalues --   -0.11077  -0.09070  -0.08392   0.02248   0.02927
  Beta virt. eigenvalues --    0.04475   0.05633   0.05839   0.05909   0.06526
  Beta virt. eigenvalues --    0.07042   0.08311   0.15315   0.28616   0.29717

 Mulliken charges and spin densities:
               1          2
     1  Si   0.151788   0.000000
     2  Si   0.151788  -0.000000
     3  H   -0.151788  -0.000000
     4  H   -0.151788   0.000000
 Sum of Mulliken charges =  -0.00000  -0.00000

 Dipole moment (field-independent basis, Debye):
    X=             -0.0000    Y=              0.0000    Z=              0.0000  Tot=              0.0000
 Quadrupole moment (field-independent basis, Debye-Ang):
   XX=            -30.3396   YY=            -24.2589   ZZ=            -35.6424
   XY=             -0.0002   XZ=             -0.0000   YZ=              0.0001

 Normal termination of Gaussian 16 at Mon Apr 21 21:25:55 2025.
