 Gaussian 16, Revision A.03,
 Gaussian 16:  ES64L-G16RevA.03 25-Dec-2016

 --------------------------------------------
 #p opt UM062X/6-311+G** nosymm int=superfine
 --------------------------------------------

 -------------------
 Title Card Required
 -------------------
 Symbolic Z-matrix:
 Charge =  0 Multiplicity = 1

 SCF Done:  E(UM062X) =  -684.915472317     A.U. after   11 cycles
 SCF Done:  E(UM062X) =  -684.916220022     A.U. after   10 cycles
 SCF Done:  E(UM062X) =  -684.916751746     A.U. after   10 cycles
 SCF Done:  E(UM062X) =  -684.917248545     A.U. after   12 cycles
 SCF Done:  E(UM062X) =  -684.917436025     A.U. after   10 cycles
 SCF Done:  E(UM062X) =  -684.917527055     A.U. after   12 cycles
 SCF Done:  E(UM062X) =  -684.917541922     A.U. after   11 cycles
 SCF Done:  E(UM062X) =  -684.917558167     A.U. after   12 cycles
 SCF Done:  E(UM062X) =  -684.917583105     A.U. after   12 cycles
 SCF Done:  E(UM062X) =  -684.917612000     A.U. after   12 cycles
 SCF Done:  E(UM062X) =  -684.917623674     A.U. after   11 cycles
 SCF Done:  E(UM062X) =  -684.917656486     A.U. after   12 cycles
 SCF Done:  E(UM062X) =  -684.917676481     A.U. after   12 cycles
 SCF Done:  E(UM062X) =  -684.917726967     A.U. after   13 cycles
 SCF Done:  E(UM062X) =  -684.917744052     A.U. after   13 cycles
 SCF Done:  E(UM062X) =  -684.917746409     A.U. after   12 cycles
 SCF Done:  E(UM062X) =  -684.917746896     A.U. after   10 cycles
 SCF Done:  E(UM062X) =  -684.917746716     A.U. after   10 cycles
 SCF Done:  E(UM062X) =  -684.917747009     A.U. after   11 cycles
 Optimization completed.
    -- Stationary point found.

                          Input orientation:
 ---------------------------------------------------------------------
 Center     Atomic      Atomic             Coordinates (Angstroms)
 Number     Number       Type             X           Y           Z
 ---------------------------------------------------------------------
      1         15           0       -2.242217    0.000000    0.000000
      2         15           0        2.242217    0.000000    0.000000
      3          1           0        2.136812   -1.025843    0.974353
      4          1           0       -2.137286    1.099100    0.891063
      5          1           0        2.142545   -0.935048   -1.062621
      6          1           0       -2.139979    0.848906   -1.132276
 ---------------------------------------------------------------------

 Alpha  occ. eigenvalues --  -78.05029 -78.05028  -6.87429  -6.87429  -4.98977
 Alpha  occ. eigenvalues --   -4.98977  -4.98853  -4.98853  -4.98671  -4.98670
 Alpha  occ. eigenvalues --   -0.71207  -0.70894  -0.45125  -0.45006  -0.36279
 Alpha  occ. eigenvalues --   -0.36155  -0.24310
 Alpha virt. eigenvalues --   -0.15195   0.01587   0.02856   0.03202   0.04018
 Alpha virt. eigenvalues --    0.04834   0.05913   0.06079   0.06134   0.06155
 Alpha virt. eigenvalues --    0.07928   0.13288   0.18414   0.28788   0.29487

  Beta  occ. eigenvalues --  -78.05029 -78.05028  -6.87429  -6.87429  -4.98977
  Beta  occ. eigenvalues --   -4.98977  -4.98853  -4.98853  -4.98671  -4.98670
  Beta  occ. eigenvalues --   -0.71207  -0.70894  -0.45125  -0.45006  -0.36279
  Beta  occ. eigenvalues --   -0.36155  -0.24310
  Beta virt. eigenvalues --   -0.15195   0.01587   0.02856   0.03202   0.04018
  Beta virt. eigenvalues --    0.04834   0.05913   0.06079   0.06134   0.06155
  Beta virt. eigenvalues --    0.07928   0.13288   0.18414   0.28788   0.29487

 Mulliken charges and spin densities:
               1          2
     1  P    0.000795  -0.000000
     2  P    0.000657   0.000000
     3  H    0.000132  -0.000000
     4  H    0.000110   0.000000
     5  H   -0.000852  -0.000000
     6  H   -0.000842   0.000000
 Sum of Mulliken charges =  -0.00000   0.00000

 Dipole moment (field-independent basis, Debye):
    X=              0.0005    Y=             -0.0059    Z=             -0.1494  Tot=              0.1495
 Quadrupole moment (field-independent basis, Debye-Ang):
   XX=            -28.7496   YY=            -31.2421   ZZ=            -28.5561
   XY=             -4.4643   XZ=              0.1733   YZ=              0.1052

 Normal termination of Gaussian 16 at Mon Apr 21 20:56:15 2025.
