 Gaussian 16, Revision A.03,
 Gaussian 16:  ES64L-G16RevA.03 25-Dec-2016

 --------------------------------------------
 #p opt UM062X/6-311+G** nosymm int=superfine
 --------------------------------------------

 -------------------
 Title Card Required
 -------------------
 Symbolic Z-matrix:
 Charge =  0 Multiplicity = 1

 SCF Done:  E(UM062X) =  -796.296436106     A.U. after   34 cycles
 SCF Done:  E(UM062X) =  -796.306757173     A.U. after   48 cycles
 SCF Done:  E(UM062X) =  -796.307607433     A.U. after   34 cycles
 SCF Done:  E(UM062X) =  -796.307607781     A.U. after   31 cycles
 Optimization completed.
    -- Stationary point found.

                          Input orientation:
 ---------------------------------------------------------------------
 Center     Atomic      Atomic             Coordinates (Angstroms)
 Number     Number       Type             X           Y           Z
 ---------------------------------------------------------------------
      1         16           0        0.000000    0.950200   -0.055200
      2         16           0        0.000000   -0.950200   -0.055200
 ---------------------------------------------------------------------

 Alpha  occ. eigenvalues --  -89.95528 -89.95528  -8.31907  -8.31885  -6.23995
 Alpha  occ. eigenvalues --   -6.23988  -6.23933  -6.23861  -6.23135  -6.23129
 Alpha  occ. eigenvalues --   -0.92957  -0.68770  -0.45104  -0.41880  -0.41586
 Alpha  occ. eigenvalues --   -0.27008
 Alpha virt. eigenvalues --   -0.14394   0.01125   0.03209   0.04345   0.05200
 Alpha virt. eigenvalues --    0.06876   0.07571   0.07852   0.08453   0.15136
 Alpha virt. eigenvalues --    0.28035   0.32844   0.34148   0.34574   0.36744

  Beta  occ. eigenvalues --  -89.95528 -89.95528  -8.31907  -8.31885  -6.23995
  Beta  occ. eigenvalues --   -6.23988  -6.23933  -6.23861  -6.23135  -6.23129
  Beta  occ. eigenvalues --   -0.92957  -0.68770  -0.45104  -0.41880  -0.41586
  Beta  occ. eigenvalues --   -0.27008
  Beta virt. eigenvalues --   -0.14394   0.01125   0.03209   0.04345   0.05200
  Beta virt. eigenvalues --    0.06876   0.07571   0.07852   0.08453   0.15136
  Beta virt. eigenvalues --    0.28035   0.32844   0.34148   0.34574   0.36744

 Mulliken charges and spin densities:
               1          2
     1  S    0.000000   0.000000
     2  S   -0.000000   0.000000
 Sum of Mulliken charges =  -0.00000   0.00000

 Dipole moment (field-independent basis, Debye):
    X=             -0.0000    Y=              0.0000    Z=              0.0000  Tot=              0.0000
 Quadrupole moment (field-independent basis, Debye-Ang):
   XX=            -28.4865   YY=            -25.2200   ZZ=            -24.0017
   XY=              0.0000   XZ=              1.3523   YZ=             -0.0000

 Normal termination of Gaussian 16 at Wed Apr 16 06:03:13 2025.
