 Gaussian 16, Revision A.03,
 Gaussian 16:  ES64L-G16RevA.03 25-Dec-2016

 --------------------------------------------
 #p opt UM062X/6-311+G** nosymm int=superfine
 --------------------------------------------

 -------------------
 Title Card Required
 -------------------
 Symbolic Z-matrix:
 Charge =  0 Multiplicity = 1

 SCF Done:  E(UM062X) =  -474.383194314     A.U. after   18 cycles
 SCF Done:  E(UM062X) =  -474.384376134     A.U. after   18 cycles
 SCF Done:  E(UM062X) =  -474.386049282     A.U. after   21 cycles
 SCF Done:  E(UM062X) =  -474.386664713     A.U. after   20 cycles
 SCF Done:  E(UM062X) =  -474.386780797     A.U. after   24 cycles
 SCF Done:  E(UM062X) =  -474.386819528     A.U. after   19 cycles
 SCF Done:  E(UM062X) =  -474.386822322     A.U. after   19 cycles
 SCF Done:  E(UM062X) =  -474.386823395     A.U. after   23 cycles
 SCF Done:  E(UM062X) =  -474.386823834     A.U. after   21 cycles
 SCF Done:  E(UM062X) =  -474.386824564     A.U. after   17 cycles
 SCF Done:  E(UM062X) =  -474.386824635     A.U. after   18 cycles
 Optimization completed.
    -- Stationary point found.

                          Input orientation:
 ---------------------------------------------------------------------
 Center     Atomic      Atomic             Coordinates (Angstroms)
 Number     Number       Type             X           Y           Z
 ---------------------------------------------------------------------
      1          8           0       -1.639392    0.000000    0.000000
      2         16           0        1.639392    0.000000    0.000000
      3          1           0       -1.613777   -0.870541   -0.427518
      4          1           0        1.429664    0.562360    1.205680
 ---------------------------------------------------------------------

 Alpha  occ. eigenvalues --  -89.97866 -19.67358  -8.34000  -6.26214  -6.25844
 Alpha  occ. eigenvalues --   -6.25278  -1.08500  -0.83779  -0.52571  -0.49633
 Alpha  occ. eigenvalues --   -0.39805  -0.35683  -0.34770
 Alpha virt. eigenvalues --   -0.21729   0.01602   0.03942   0.04648   0.05470
 Alpha virt. eigenvalues --    0.06968   0.13749   0.19323   0.19877   0.21253
 Alpha virt. eigenvalues --    0.25475   0.30885   0.33933   0.34595   0.39309

  Beta  occ. eigenvalues --  -89.97866 -19.67358  -8.34000  -6.26214  -6.25844
  Beta  occ. eigenvalues --   -6.25278  -1.08500  -0.83779  -0.52571  -0.49633
  Beta  occ. eigenvalues --   -0.39805  -0.35683  -0.34770
  Beta virt. eigenvalues --   -0.21729   0.01602   0.03942   0.04648   0.05470
  Beta virt. eigenvalues --    0.06968   0.13749   0.19323   0.19877   0.21253
  Beta virt. eigenvalues --    0.25475   0.30885   0.33933   0.34595   0.39309

 Mulliken charges and spin densities:
               1          2
     1  O   -0.401444  -0.000000
     2  S    0.043856   0.000000
     3  H    0.247129   0.000000
     4  H    0.110459   0.000000
 Sum of Mulliken charges =  -0.00000   0.00000

 Dipole moment (field-independent basis, Debye):
    X=              2.2319    Y=             -1.0647    Z=              0.3112  Tot=              2.4923
 Quadrupole moment (field-independent basis, Debye-Ang):
   XX=            -18.3203   YY=            -19.9613   ZZ=            -18.8409
   XY=              3.4949   XZ=              3.0471   YZ=              2.5680

 Normal termination of Gaussian 16 at Thu May 15 13:13:20 2025.
