 Gaussian 16, Revision A.03,
 Gaussian 16:  ES64L-G16RevA.03 25-Dec-2016

 ---------------------------------------
 #p UM062X/6-311+G** force int=superfine
 ---------------------------------------

 -------------------
 Title Card Required
 -------------------
 Symbolic Z-matrix:
 Charge =  1 Multiplicity = 2

                         Standard orientation:
 ---------------------------------------------------------------------
 Center     Atomic      Atomic             Coordinates (Angstroms)
 Number     Number       Type             X           Y           Z
 ---------------------------------------------------------------------
      1          6           0        0.953779   -0.631481    1.095148
      2          6           0       -0.953775    0.631490   -1.095143
      3          1           0       -0.141487    0.744369   -1.804263
      4          1           0        1.223397   -1.458612    0.448181
      5          1           0       -1.224045    1.458787   -0.448660
      6          1           0       -1.578125   -0.254275   -1.126932
      7          1           0        0.141548   -0.744198    1.804360
      8          1           0        1.578685    0.253878    1.127284
 ---------------------------------------------------------------------

 SCF Done:  E(UM062X) =  -79.3349664539     A.U. after   10 cycles

 The electronic state is 2-A.
 Alpha  occ. eigenvalues --  -10.84874 -10.84871  -1.03742  -1.02522  -0.74482
 Alpha  occ. eigenvalues --   -0.74481  -0.73912  -0.73912  -0.51780
 Alpha virt. eigenvalues --   -0.35889  -0.13854  -0.10203  -0.10202  -0.10182
 Alpha virt. eigenvalues --   -0.06239  -0.06239  -0.05104  -0.03274  -0.01837
 Alpha virt. eigenvalues --   -0.01835   0.01305   0.01307   0.04667   0.07738

  Beta  occ. eigenvalues --  -10.84674 -10.84674  -1.00923  -1.00106  -0.73953
  Beta  occ. eigenvalues --   -0.73953  -0.73404  -0.73404
  Beta virt. eigenvalues --   -0.32618  -0.25827  -0.15452  -0.11136  -0.11135
  Beta virt. eigenvalues --   -0.10004  -0.06399  -0.06399  -0.05342  -0.02386
  Beta virt. eigenvalues --   -0.02135  -0.02132   0.01609   0.01611   0.05601

 Mulliken charges and spin densities:
               1          2
     1  C   -0.270790   0.565698
     2  C   -0.270791   0.565699
     3  H    0.256955  -0.021895
     4  H    0.256906  -0.021900
     5  H    0.256933  -0.021899
     6  H    0.256902  -0.021904
     7  H    0.256957  -0.021896
     8  H    0.256928  -0.021903
 Sum of Mulliken charges =   1.00000   1.00000

 Dipole moment (field-independent basis, Debye):
    X=             -0.0000    Y=             -0.0001    Z=             -0.0000  Tot=              0.0001
 Quadrupole moment (field-independent basis, Debye-Ang):
   XX=             -6.6991   YY=             -9.1402   ZZ=             -5.3109
   XY=             -2.8795   XZ=              4.9942   YZ=             -3.3074

 Normal termination of Gaussian 16 at Wed Nov 13 12:59:00 2024.
