 Gaussian 16, Revision A.03,
 Gaussian 16:  ES64L-G16RevA.03 25-Dec-2016

 ---------------------------------------
 #p UM062X/6-311+G** force int=superfine
 ---------------------------------------

 -------------------
 Title Card Required
 -------------------
 Symbolic Z-matrix:
 Charge =  0 Multiplicity = 1

                         Standard orientation:
 ---------------------------------------------------------------------
 Center     Atomic      Atomic             Coordinates (Angstroms)
 Number     Number       Type             X           Y           Z
 ---------------------------------------------------------------------
      1          6           0        0.000000    0.908135    0.000000
      2          6           0       -0.000000   -0.908135   -0.000000
      3          1           0        0.960506    1.398507    0.000000
      4          1           0       -0.960389    1.398551    0.000000
      5          1           0       -0.960506   -1.398507   -0.000000
      6          1           0        0.960389   -1.398551    0.000000
 ---------------------------------------------------------------------

 SCF Done:  E(UM062X) =  -78.4380416909     A.U. after    8 cycles

 The electronic state is 1-AG.
 Alpha  occ. eigenvalues --  -10.59734 -10.59713  -0.78802  -0.70298  -0.52970
 Alpha  occ. eigenvalues --   -0.48228  -0.40797  -0.27530
 Alpha virt. eigenvalues --   -0.04479   0.03112   0.03366   0.05388   0.07521
 Alpha virt. eigenvalues --    0.08811   0.09788   0.11608   0.14821   0.15747
 Alpha virt. eigenvalues --    0.16622   0.21082   0.21932   0.28760   0.40464

  Beta  occ. eigenvalues --  -10.59734 -10.59713  -0.78802  -0.70298  -0.52970
  Beta  occ. eigenvalues --   -0.48228  -0.40797  -0.27530
  Beta virt. eigenvalues --   -0.04479   0.03112   0.03366   0.05388   0.07521
  Beta virt. eigenvalues --    0.08811   0.09788   0.11608   0.14821   0.15747
  Beta virt. eigenvalues --    0.16622   0.21082   0.21932   0.28760   0.40464

 Mulliken charges and spin densities:
               1          2
     1  C   -0.346354   0.000000
     2  C   -0.346354   0.000000
     3  H    0.173176   0.000000
     4  H    0.173178  -0.000000
     5  H    0.173176   0.000000
     6  H    0.173178  -0.000000
 Sum of Mulliken charges =  -0.00000   0.00000

 Dipole moment (field-independent basis, Debye):
    X=              0.0000    Y=             -0.0000    Z=             -0.0000  Tot=              0.0000
 Quadrupole moment (field-independent basis, Debye-Ang):
   XX=            -12.1666   YY=            -11.5918   ZZ=            -17.6726
   XY=             -0.0001   XZ=              0.0000   YZ=              0.0000

 Normal termination of Gaussian 16 at Tue Nov 19 11:48:08 2024.
