 Gaussian 16, Revision A.03,
 Gaussian 16:  ES64L-G16RevA.03 25-Dec-2016

 --------------------------------------------
 #p opt UM062X/6-311+G** nosymm int=superfine
 --------------------------------------------

 -------------------
 Title Card Required
 -------------------
 Symbolic Z-matrix:
 Charge =  1 Multiplicity = 2

 SCF Done:  E(UM062X) =  -79.3431509748     A.U. after   10 cycles
 SCF Done:  E(UM062X) =  -79.3600572421     A.U. after   10 cycles
 SCF Done:  E(UM062X) =  -79.3610780788     A.U. after   10 cycles
 SCF Done:  E(UM062X) =  -79.3610922336     A.U. after    9 cycles
 SCF Done:  E(UM062X) =  -79.3610932248     A.U. after    8 cycles
 SCF Done:  E(UM062X) =  -79.3617093317     A.U. after   11 cycles
 SCF Done:  E(UM062X) =  -79.3650607998     A.U. after   12 cycles
 SCF Done:  E(UM062X) =  -79.3653690906     A.U. after   11 cycles
 SCF Done:  E(UM062X) =  -79.3569414357     A.U. after   13 cycles
 SCF Done:  E(UM062X) =  -79.3403743031     A.U. after   11 cycles
 SCF Done:  E(UM062X) =  -79.3638330350     A.U. after   12 cycles
 SCF Done:  E(UM062X) =  -79.3651023883     A.U. after   12 cycles
 SCF Done:  E(UM062X) =  -79.3655556043     A.U. after   11 cycles
 SCF Done:  E(UM062X) =  -79.3666916789     A.U. after   13 cycles
 SCF Done:  E(UM062X) =  -79.3684588840     A.U. after   11 cycles
 SCF Done:  E(UM062X) =  -79.3669126135     A.U. after   13 cycles
 SCF Done:  E(UM062X) =  -79.3705204390     A.U. after   12 cycles
 SCF Done:  E(UM062X) =  -79.3707972250     A.U. after   10 cycles
 SCF Done:  E(UM062X) =  -79.3708043870     A.U. after    9 cycles
 SCF Done:  E(UM062X) =  -79.3708075353     A.U. after    8 cycles
 Optimization completed.
    -- Stationary point found.

                          Input orientation:
 ---------------------------------------------------------------------
 Center     Atomic      Atomic             Coordinates (Angstroms)
 Number     Number       Type             X           Y           Z
 ---------------------------------------------------------------------
      1          6           0       -0.856003    0.000000    0.000000
      2          6           0        0.856003    0.000000    0.000000
      3          1           0        1.257098   -0.923783    0.401984
      4          1           0       -1.256746   -0.923378   -0.403277
      5          1           0        1.256653    0.923485    0.403119
      6          1           0        0.696287    0.000190   -1.106707
      7          1           0       -1.257002    0.923880   -0.401856
      8          1           0       -0.696328   -0.000446    1.106709
 ---------------------------------------------------------------------

 Alpha  occ. eigenvalues --  -10.85951 -10.85931  -1.15539  -0.99838  -0.82098
 Alpha  occ. eigenvalues --   -0.79882  -0.74834  -0.72321  -0.64263
 Alpha virt. eigenvalues --   -0.17151  -0.15340  -0.11813  -0.11482  -0.09660
 Alpha virt. eigenvalues --   -0.08498  -0.07551  -0.06453  -0.05732  -0.02101
 Alpha virt. eigenvalues --   -0.01393  -0.00711   0.02243   0.03655   0.03727

  Beta  occ. eigenvalues --  -10.85702 -10.85689  -1.12543  -0.96687  -0.79021
  Beta  occ. eigenvalues --   -0.78321  -0.73412  -0.71713
  Beta virt. eigenvalues --   -0.41746  -0.16754  -0.14051  -0.11371  -0.11346
  Beta virt. eigenvalues --   -0.09399  -0.07673  -0.06545  -0.05549  -0.05414
  Beta virt. eigenvalues --   -0.01675  -0.00902  -0.00132   0.02776   0.04279

 Mulliken charges and spin densities:
               1          2
     1  C   -0.336493   0.459902
     2  C   -0.336477   0.459927
     3  H    0.275359  -0.021927
     4  H    0.275317  -0.021922
     5  H    0.275320  -0.021922
     6  H    0.285807   0.083934
     7  H    0.275360  -0.021925
     8  H    0.285807   0.083933
 Sum of Mulliken charges =   1.00000   1.00000

 Dipole moment (field-independent basis, Debye):
    X=              0.0000    Y=             -0.0001    Z=             -0.0000  Tot=              0.0001
 Quadrupole moment (field-independent basis, Debye-Ang):
   XX=             -7.7182   YY=            -10.8251   ZZ=            -10.3346
   XY=             -0.0010   XZ=              0.0944   YZ=              0.0015

 Normal termination of Gaussian 16 at Wed Nov 13 13:36:32 2024.
