 Gaussian 16, Revision A.03,
 Gaussian 16:  ES64L-G16RevA.03 25-Dec-2016

 ---------------------------------------------------
 #p UM062X/6-311+G** force int=superfine pop=saveNBO
 ---------------------------------------------------

 -------------------
 Title Card Required
 -------------------
 Symbolic Z-matrix:
 Charge =  0 Multiplicity = 1

                         Standard orientation:
 ---------------------------------------------------------------------
 Center     Atomic      Atomic             Coordinates (Angstroms)
 Number     Number       Type             X           Y           Z
 ---------------------------------------------------------------------
      1          6           0        0.000000    0.000000   -1.184431
      2         16           0        0.000000    0.000000    0.444161
 ---------------------------------------------------------------------

 SCF Done:  E(UM062X) =  -436.189794858     A.U. after   11 cycles

 The electronic state is 1-SG.
 Alpha  occ. eigenvalues --  -89.95147 -10.67292  -8.31705  -6.23528  -6.23498
 Alpha  occ. eigenvalues --   -6.23498  -0.90642  -0.60159  -0.39949  -0.39949
 Alpha  occ. eigenvalues --   -0.38468
 Alpha virt. eigenvalues --   -0.06263  -0.06263   0.03077   0.03442   0.05010
 Alpha virt. eigenvalues --    0.05010   0.09148   0.10928   0.10928   0.15396
 Alpha virt. eigenvalues --    0.17419   0.33849   0.33849   0.37752   0.53082

  Beta  occ. eigenvalues --  -89.95147 -10.67292  -8.31705  -6.23528  -6.23498
  Beta  occ. eigenvalues --   -6.23498  -0.90642  -0.60159  -0.39949  -0.39949
  Beta  occ. eigenvalues --   -0.38468
  Beta virt. eigenvalues --   -0.06263  -0.06263   0.03077   0.03442   0.05010
  Beta virt. eigenvalues --    0.05010   0.09148   0.10928   0.10928   0.15396
  Beta virt. eigenvalues --    0.17419   0.33849   0.33849   0.37752   0.53082

 Mulliken charges and spin densities:
               1          2
     1  C   -0.122381  -0.000000
     2  S    0.122381   0.000000
 Sum of Mulliken charges =  -0.00000   0.00000

 Dipole moment (field-independent basis, Debye):
    X=              0.0000    Y=              0.0000    Z=              1.3887  Tot=              1.3887
 Quadrupole moment (field-independent basis, Debye-Ang):
   XX=            -18.6596   YY=            -18.6596   ZZ=            -20.6843
   XY=              0.0000   XZ=              0.0000   YZ=              0.0000

 Summary of Natural Population Analysis:

                                       Natural Population
                Natural  -----------------------------------------------
    Atom  No    Charge         Core      Valence    Rydberg      Total
 -----------------------------------------------------------------------
      C    1   -0.04411      0.99991     2.02726    0.01693     3.04411
      S    2    0.04411      4.99962     2.93522    0.02105     7.95589
 =======================================================================
   * Total *   -0.00000      5.99954     4.96249    0.03798    11.00000

 Normal termination of Gaussian 16 at Mon Apr 21 19:45:52 2025.
