 Gaussian 16, Revision A.03,
 Gaussian 16:  ES64L-G16RevA.03 25-Dec-2016

 --------------------------------------------
 #p opt UM062X/6-311+G** nosymm int=superfine
 --------------------------------------------

 -------------------
 Title Card Required
 -------------------
 Symbolic Z-matrix:
 Charge =  0 Multiplicity = 1

 SCF Done:  E(UM062X) =  -111.804398851     A.U. after   12 cycles
 SCF Done:  E(UM062X) =  -111.815427667     A.U. after   12 cycles
 SCF Done:  E(UM062X) =  -111.816320818     A.U. after   11 cycles
 SCF Done:  E(UM062X) =  -111.816830026     A.U. after   12 cycles
 SCF Done:  E(UM062X) =  -111.817521001     A.U. after   12 cycles
 SCF Done:  E(UM062X) =  -111.817702146     A.U. after   12 cycles
 SCF Done:  E(UM062X) =  -111.817800058     A.U. after   10 cycles
 SCF Done:  E(UM062X) =  -111.817802415     A.U. after    9 cycles
 SCF Done:  E(UM062X) =  -111.817802505     A.U. after    7 cycles
 Optimization completed.
    -- Stationary point found.

                          Input orientation:
 ---------------------------------------------------------------------
 Center     Atomic      Atomic             Coordinates (Angstroms)
 Number     Number       Type             X           Y           Z
 ---------------------------------------------------------------------
      1          7           0       -0.886540    0.000000    0.000000
      2          7           0        0.886540    0.000000    0.000000
      3          1           0       -1.021741   -0.803154   -0.614727
      4          1           0        1.021659    0.395095   -0.931053
      5          1           0       -1.021673   -0.394833    0.931159
      6          1           0        1.021736    0.802991    0.614942
 ---------------------------------------------------------------------

 Alpha  occ. eigenvalues --  -14.77547 -14.77537  -0.99927  -0.88441  -0.57280
 Alpha  occ. eigenvalues --   -0.50412  -0.44442  -0.42227  -0.32059
 Alpha virt. eigenvalues --    0.02179   0.04575   0.08799   0.08914   0.13157
 Alpha virt. eigenvalues --    0.13564   0.13656   0.15826   0.16259   0.22120
 Alpha virt. eigenvalues --    0.22939   0.26172   0.28263   0.52129   0.52482

  Beta  occ. eigenvalues --  -14.77547 -14.77537  -0.99927  -0.88441  -0.57280
  Beta  occ. eigenvalues --   -0.50412  -0.44442  -0.42227  -0.32059
  Beta virt. eigenvalues --    0.02179   0.04575   0.08799   0.08914   0.13157
  Beta virt. eigenvalues --    0.13564   0.13656   0.15826   0.16259   0.22120
  Beta virt. eigenvalues --    0.22939   0.26172   0.28263   0.52129   0.52482

 Mulliken charges and spin densities:
               1          2
     1  N   -0.521437  -0.000000
     2  N   -0.521435   0.000000
     3  H    0.260728   0.000000
     4  H    0.260725  -0.000000
     5  H    0.260708   0.000000
     6  H    0.260711  -0.000000
 Sum of Mulliken charges =  -0.00000  -0.00000

 Dipole moment (field-independent basis, Debye):
    X=             -0.0000    Y=              0.0001    Z=              0.0005  Tot=              0.0005
 Quadrupole moment (field-independent basis, Debye-Ang):
   XX=            -15.0603   YY=            -14.0090   ZZ=            -11.0835
   XY=              4.7245   XZ=             -1.2470   YZ=              0.8301

 Normal termination of Gaussian 16 at Thu May 15 14:25:20 2025.
