 Gaussian 16, Revision A.03,
 Gaussian 16:  ES64L-G16RevA.03 25-Dec-2016

 --------------------------------------------
 #p opt UM062X/6-311+G** nosymm int=superfine
 --------------------------------------------

 -------------------
 Title Card Required
 -------------------
 Symbolic Z-matrix:
 Charge =  0 Multiplicity = 1

 SCF Done:  E(UM062X) =  -382.366932115     A.U. after   11 cycles
 SCF Done:  E(UM062X) =  -382.371347759     A.U. after   10 cycles
 SCF Done:  E(UM062X) =  -382.372259962     A.U. after   10 cycles
 SCF Done:  E(UM062X) =  -382.372275074     A.U. after    8 cycles
 SCF Done:  E(UM062X) =  -382.372278383     A.U. after    8 cycles
 SCF Done:  E(UM062X) =  -382.372278590     A.U. after    7 cycles
 Optimization completed.
    -- Stationary point found.

                          Input orientation:
 ---------------------------------------------------------------------
 Center     Atomic      Atomic             Coordinates (Angstroms)
 Number     Number       Type             X           Y           Z
 ---------------------------------------------------------------------
      1          6           0       -1.231264    0.000000    0.000000
      2         15           0        1.231264    0.000000    0.000000
      3          1           0        1.263466   -1.417239    0.024564
      4          1           0       -1.474324    1.030737    0.227713
      5          1           0        1.263384    0.087618    1.414724
      6          1           0       -1.474322   -0.306651   -1.010072
      7          1           0       -1.495310   -0.713493    0.770913
 ---------------------------------------------------------------------

 Alpha  occ. eigenvalues --  -78.02867 -10.56349  -6.85209  -4.96742  -4.96711
 Alpha  occ. eigenvalues --   -4.96501  -0.77772  -0.68967  -0.48437  -0.48330
 Alpha  occ. eigenvalues --   -0.43352  -0.35390  -0.30127
 Alpha virt. eigenvalues --   -0.02458   0.01502   0.04001   0.04522   0.05358
 Alpha virt. eigenvalues --    0.06438   0.06680   0.07733   0.07828   0.13265
 Alpha virt. eigenvalues --    0.17622   0.18872   0.19183   0.26223   0.30247

  Beta  occ. eigenvalues --  -78.02867 -10.56349  -6.85209  -4.96742  -4.96711
  Beta  occ. eigenvalues --   -4.96501  -0.77772  -0.68967  -0.48437  -0.48330
  Beta  occ. eigenvalues --   -0.43352  -0.35390  -0.30127
  Beta virt. eigenvalues --   -0.02458   0.01502   0.04001   0.04522   0.05358
  Beta virt. eigenvalues --    0.06438   0.06680   0.07733   0.07828   0.13265
  Beta virt. eigenvalues --    0.17622   0.18872   0.19183   0.26223   0.30247

 Mulliken charges and spin densities:
               1          2
     1  C   -0.561234  -0.000000
     2  P   -0.008242   0.000000
     3  H    0.014503  -0.000000
     4  H    0.180215   0.000000
     5  H    0.014510  -0.000000
     6  H    0.180226   0.000000
     7  H    0.180022   0.000000
 Sum of Mulliken charges =  -0.00000   0.00000

 Dipole moment (field-independent basis, Debye):
    X=             -0.6903    Y=             -0.4999    Z=              0.5411  Tot=              1.0096
 Quadrupole moment (field-independent basis, Debye-Ang):
   XX=            -23.0380   YY=            -22.0757   ZZ=            -22.1902
   XY=             -1.0845   XZ=              1.1739   YZ=              0.7220

 Normal termination of Gaussian 16 at Mon Apr 21 19:03:14 2025.
