 Gaussian 16, Revision A.03,
 Gaussian 16:  ES64L-G16RevA.03 25-Dec-2016

 --------------------------------------------
 #p opt UM062X/6-311+G** nosymm int=superfine
 --------------------------------------------

 -------------------
 Title Card Required
 -------------------
 Symbolic Z-matrix:
 Charge =  0 Multiplicity = 1

 SCF Done:  E(UM062X) =  -379.577801214     A.U. after   14 cycles
 SCF Done:  E(UM062X) =  -379.579175818     A.U. after   10 cycles
 SCF Done:  E(UM062X) =  -379.579181497     A.U. after   10 cycles
 Optimization completed.
    -- Stationary point found.

                          Input orientation:
 ---------------------------------------------------------------------
 Center     Atomic      Atomic             Coordinates (Angstroms)
 Number     Number       Type             X           Y           Z
 ---------------------------------------------------------------------
      1          6           0       -1.740377    0.000000    0.000000
      2         15           0        1.740377    0.000000    0.000000
      3          1           0       -2.862199   -0.000000    0.000000
 ---------------------------------------------------------------------

 Alpha  occ. eigenvalues --  -78.07757 -10.71694  -6.89615  -5.01506  -5.00592
 Alpha  occ. eigenvalues --   -5.00592  -0.76449  -0.60824  -0.42233  -0.24194
 Alpha  occ. eigenvalues --   -0.24194
 Alpha virt. eigenvalues --   -0.15092  -0.15092  -0.11726   0.01161   0.04058
 Alpha virt. eigenvalues --    0.05981   0.05981   0.07651   0.08647   0.08647
 Alpha virt. eigenvalues --    0.13484   0.16923   0.33071   0.33071   0.33985

  Beta  occ. eigenvalues --  -78.07757 -10.71694  -6.89615  -5.01506  -5.00592
  Beta  occ. eigenvalues --   -5.00592  -0.76449  -0.60824  -0.42233  -0.24194
  Beta  occ. eigenvalues --   -0.24194
  Beta virt. eigenvalues --   -0.15092  -0.15092  -0.11726   0.01161   0.04058
  Beta virt. eigenvalues --    0.05981   0.05981   0.07651   0.08647   0.08647
  Beta virt. eigenvalues --    0.13484   0.16923   0.33071   0.33071   0.33985

 Mulliken charges and spin densities:
               1          2
     1  C   -0.134882  -0.000000
     2  P   -0.036648   0.000000
     3  H    0.171530   0.000000
 Sum of Mulliken charges =   0.00000   0.00000

 Dipole moment (field-independent basis, Debye):
    X=             -2.7438    Y=             -0.0000    Z=             -0.0000  Tot=              2.7438
 Quadrupole moment (field-independent basis, Debye-Ang):
   XX=            -10.3790   YY=            -24.1340   ZZ=            -24.1340
   XY=             -0.0000   XZ=              0.0000   YZ=             -0.0000

 Normal termination of Gaussian 16 at Mon Apr 21 19:30:40 2025.
