 Gaussian 16, Revision A.03,
 Gaussian 16:  ES64L-G16RevA.03 25-Dec-2016

 ---------------------------------------
 #p UM062X/6-311+G** force int=superfine
 ---------------------------------------

 -------------------
 Title Card Required
 -------------------
 Symbolic Z-matrix:
 Charge =  1 Multiplicity = 2

                         Standard orientation:
 ---------------------------------------------------------------------
 Center     Atomic      Atomic             Coordinates (Angstroms)
 Number     Number       Type             X           Y           Z
 ---------------------------------------------------------------------
      1          6           0        0.000000    0.000000    0.372806
      2          6           0        0.000000    0.000000   -0.372806
      3          1           0        0.000000    0.000000    1.358212
      4          1           0        0.000000    0.000000   -1.358208
 ---------------------------------------------------------------------

 SCF Done:  E(UM062X) =  -75.6462732691     A.U. after   12 cycles

 Unable to determine electronic state:  partially filled degenerate orbitals.
 Alpha  occ. eigenvalues --  -11.01106 -10.88509  -1.32483  -0.97200  -0.96202
 Alpha  occ. eigenvalues --   -0.94843  -0.92664
 Alpha virt. eigenvalues --   -0.15414  -0.13143  -0.12741  -0.12694  -0.12329
 Alpha virt. eigenvalues --   -0.12072  -0.10226  -0.00297   0.00706   0.00846
 Alpha virt. eigenvalues --    0.04183   0.04685   0.17491   0.21227   0.22213

  Beta  occ. eigenvalues --  -11.00373 -10.88016  -1.24974  -0.94674  -0.93672
  Beta  occ. eigenvalues --   -0.89751
  Beta virt. eigenvalues --   -0.61817  -0.15741  -0.12633  -0.12550  -0.12341
  Beta virt. eigenvalues --   -0.11648  -0.11450  -0.10239   0.00648   0.01461
  Beta virt. eigenvalues --    0.02490   0.04882   0.05176   0.17699   0.20338

 Mulliken charges and spin densities:
               1          2
     1  C    0.326602   0.523369
     2  C    0.326587   0.523366
     3  H    0.173407  -0.023368
     4  H    0.173403  -0.023368
 Sum of Mulliken charges =   1.00000   1.00000

 Dipole moment (field-independent basis, Debye):
    X=              0.0000    Y=              0.0000    Z=              0.0000  Tot=              0.0000
 Quadrupole moment (field-independent basis, Debye-Ang):
   XX=             -7.8516   YY=             -9.0849   ZZ=             -3.9145
   XY=              0.0000   XZ=              0.0000   YZ=              0.0000

 Normal termination of Gaussian 16 at Tue Nov 19 13:23:12 2024.
