 Gaussian 16, Revision A.03,
 Gaussian 16:  ES64L-G16RevA.03 25-Dec-2016

 --------------------------------------------
 #p opt UM062X/6-311+G** nosymm int=superfine
 --------------------------------------------

 -------------------
 Title Card Required
 -------------------
 Symbolic Z-matrix:
 Charge =  0 Multiplicity = 1

 SCF Done:  E(UM062X) =  -576.349635936     A.U. after   10 cycles
 SCF Done:  E(UM062X) =  -577.600481719     A.U. after   10 cycles
 SCF Done:  E(UM062X) =  -578.988124218     A.U. after   10 cycles
 SCF Done:  E(UM062X) =  -579.814616526     A.U. after   10 cycles
 SCF Done:  E(UM062X) =  -579.956033491     A.U. after   10 cycles
 SCF Done:  E(UM062X) =  -579.957905252     A.U. after    7 cycles
 SCF Done:  E(UM062X) =  -579.968584142     A.U. after    8 cycles
 SCF Done:  E(UM062X) =  -579.992981263     A.U. after    8 cycles
 SCF Done:  E(UM062X) =  -579.996427657     A.U. after    8 cycles
 SCF Done:  E(UM062X) =  -579.997241885     A.U. after    8 cycles
 SCF Done:  E(UM062X) =  -579.997246975     A.U. after    7 cycles
 Optimization completed.
    -- Stationary point found.

                          Input orientation:
 ---------------------------------------------------------------------
 Center     Atomic      Atomic             Coordinates (Angstroms)
 Number     Number       Type             X           Y           Z
 ---------------------------------------------------------------------
      1         14           0       -0.978705    0.000006    0.000006
      2         14           0        0.978705   -0.000010   -0.000010
      3          1           0       -2.437080   -0.000001   -0.000001
      4          1           0        2.437080    0.000005    0.000005
 ---------------------------------------------------------------------

 Alpha  occ. eigenvalues --  -67.01134 -67.01134  -5.56420  -5.56350  -3.87620
 Alpha  occ. eigenvalues --   -3.87496  -3.87496  -3.87454  -3.87454  -3.87260
 Alpha  occ. eigenvalues --   -0.63083  -0.54444  -0.43914  -0.25871  -0.25871
 Alpha virt. eigenvalues --   -0.04156  -0.03037  -0.03037   0.01575   0.02574
 Alpha virt. eigenvalues --    0.04000   0.04800   0.04800   0.07460   0.07460
 Alpha virt. eigenvalues --    0.12092   0.16453   0.23376   0.28175   0.28742

  Beta  occ. eigenvalues --  -67.01134 -67.01134  -5.56420  -5.56350  -3.87620
  Beta  occ. eigenvalues --   -3.87496  -3.87496  -3.87454  -3.87454  -3.87260
  Beta  occ. eigenvalues --   -0.63083  -0.54444  -0.43914  -0.25871  -0.25871
  Beta virt. eigenvalues --   -0.04156  -0.03037  -0.03037   0.01575   0.02574
  Beta virt. eigenvalues --    0.04000   0.04800   0.04800   0.07460   0.07460
  Beta virt. eigenvalues --    0.12092   0.16453   0.23376   0.28175   0.28742

 Mulliken charges and spin densities:
               1          2
     1  Si  -0.014329  -0.000000
     2  Si  -0.014329   0.000000
     3  H    0.014329   0.000000
     4  H    0.014329   0.000000
 Sum of Mulliken charges =  -0.00000   0.00000

 Dipole moment (field-independent basis, Debye):
    X=             -0.0000    Y=              0.0000    Z=              0.0000  Tot=              0.0000
 Quadrupole moment (field-independent basis, Debye-Ang):
   XX=            -20.5878   YY=            -30.2715   ZZ=            -30.2715
   XY=             -0.0000   XZ=             -0.0000   YZ=              0.0000

 Normal termination of Gaussian 16 at Wed Apr 16 05:26:28 2025.
