 Gaussian 16, Revision A.03,
 Gaussian 16:  ES64L-G16RevA.03 25-Dec-2016

 ---------------------------------------------------
 #p UM062X/6-311+G** force int=superfine pop=saveNBO
 ---------------------------------------------------

 -------------------
 Title Card Required
 -------------------
 Symbolic Z-matrix:
 Charge =  0 Multiplicity = 1

                         Standard orientation:
 ---------------------------------------------------------------------
 Center     Atomic      Atomic             Coordinates (Angstroms)
 Number     Number       Type             X           Y           Z
 ---------------------------------------------------------------------
      1          8           0        0.000000    0.000000    1.818562
      2          8           0        0.000000    0.000000   -1.818562
 ---------------------------------------------------------------------

 SCF Done:  E(UM062X) =  -149.775498265     A.U. after   10 cycles

 Unable to determine electronic state:  partially filled degenerate orbitals.
 Alpha  occ. eigenvalues --  -19.82356 -19.82354  -1.10152  -1.09843  -0.48469
 Alpha  occ. eigenvalues --   -0.48343  -0.39856  -0.39254
 Alpha virt. eigenvalues --   -0.31374  -0.30664   0.09089   0.12462   0.14440
 Alpha virt. eigenvalues --    0.14506   0.17463   0.18960   0.19186   0.28054
 Alpha virt. eigenvalues --    0.99795   1.00503   1.01072   1.01388   1.02702

  Beta  occ. eigenvalues --  -19.82356 -19.82354  -1.10152  -1.09843  -0.48469
  Beta  occ. eigenvalues --   -0.48343  -0.39856  -0.39254
  Beta virt. eigenvalues --   -0.31374  -0.30664   0.09089   0.12462   0.14440
  Beta virt. eigenvalues --    0.14506   0.17463   0.18960   0.19186   0.28054
  Beta virt. eigenvalues --    0.99795   1.00503   1.01072   1.01388   1.02702

 Mulliken charges and spin densities:
               1          2
     1  O   -0.000000  -0.000000
     2  O   -0.000000  -0.000000
 Sum of Mulliken charges =  -0.00000  -0.00000

 Dipole moment (field-independent basis, Debye):
    X=             -0.0000    Y=             -0.0000    Z=             -0.0000  Tot=              0.0000
 Quadrupole moment (field-independent basis, Debye-Ang):
   XX=            -12.0470   YY=            -10.1667   ZZ=             -9.3552
   XY=             -0.0000   XZ=             -0.0000   YZ=              0.0000

 Summary of Natural Population Analysis:

                                       Natural Population
                Natural  -----------------------------------------------
    Atom  No    Charge         Core      Valence    Rydberg      Total
 -----------------------------------------------------------------------
      O    1   -0.00000      1.00000     2.99892    0.00108     4.00000
      O    2   -0.00000      1.00000     2.99892    0.00108     4.00000
 =======================================================================
   * Total *   -0.00000      2.00000     5.99783    0.00217     8.00000

 Normal termination of Gaussian 16 at Mon Apr 21 19:54:35 2025.
