 Gaussian 16, Revision A.03,
 Gaussian 16:  ES64L-G16RevA.03 25-Dec-2016

 --------------------------------------------
 #p opt UM062X/6-311+G** nosymm int=superfine
 --------------------------------------------

 -------------------
 Title Card Required
 -------------------
 Symbolic Z-matrix:
 Charge =  1 Multiplicity = 2

 SCF Done:  E(UM062X) =  -379.294885139     A.U. after   32 cycles
 SCF Done:  E(UM062X) =  -379.295670895     A.U. after   41 cycles
 SCF Done:  E(UM062X) =  -379.295672281     A.U. after   27 cycles
 Optimization completed.
    -- Stationary point found.

                          Input orientation:
 ---------------------------------------------------------------------
 Center     Atomic      Atomic             Coordinates (Angstroms)
 Number     Number       Type             X           Y           Z
 ---------------------------------------------------------------------
      1          6           0       -2.169427    0.000000    0.000000
      2         15           0        2.169427    0.000000    0.000000
      3          1           0       -3.290875   -0.000004   -0.000001
 ---------------------------------------------------------------------

 Alpha  occ. eigenvalues --  -78.31167 -10.97277  -7.12736  -5.24882  -5.24533
 Alpha  occ. eigenvalues --   -5.23480  -0.99245  -0.84770  -0.65105  -0.50436
 Alpha  occ. eigenvalues --   -0.44760
 Alpha virt. eigenvalues --   -0.38141  -0.34671  -0.33137  -0.13179  -0.09527
 Alpha virt. eigenvalues --   -0.08397  -0.08053  -0.06597  -0.05358  -0.04993
 Alpha virt. eigenvalues --   -0.02531   0.00079   0.17095   0.17563   0.17831

  Beta  occ. eigenvalues --  -78.30413 -10.97239  -7.12509  -5.24320  -5.23330
  Beta  occ. eigenvalues --   -5.22604  -0.99042  -0.79578  -0.64943  -0.43748
  Beta virt. eigenvalues --   -0.37082  -0.34501  -0.31979  -0.28155  -0.13546
  Beta virt. eigenvalues --   -0.10679  -0.08176  -0.08033  -0.06454  -0.05029
  Beta virt. eigenvalues --   -0.04572  -0.02762  -0.00121   0.15078   0.15781

 Mulliken charges and spin densities:
               1          2
     1  C    0.285346   0.048789
     2  P    0.477962   0.953163
     3  H    0.236692  -0.001952
 Sum of Mulliken charges =   1.00000   1.00000

 Dipole moment (field-independent basis, Debye):
    X=             -2.5219    Y=             -0.0000    Z=             -0.0000  Tot=              2.5219
 Quadrupole moment (field-independent basis, Debye-Ang):
   XX=             18.4369   YY=            -19.4702   ZZ=            -17.1892
   XY=              0.0001   XZ=              0.0000   YZ=             -1.0987

 Normal termination of Gaussian 16 at Mon Apr 21 19:28:30 2025.
