 Gaussian 16, Revision A.03,
 Gaussian 16:  ES64L-G16RevA.03 25-Dec-2016

 ---------------------------------------
 #p UM062X/6-311+G** force int=superfine
 ---------------------------------------

 -------------------
 Title Card Required
 -------------------
 Symbolic Z-matrix:
 Charge =  0 Multiplicity = 1

                         Standard orientation:
 ---------------------------------------------------------------------
 Center     Atomic      Atomic             Coordinates (Angstroms)
 Number     Number       Type             X           Y           Z
 ---------------------------------------------------------------------
      1          6           0        0.000000    0.921392   -0.000000
      2          6           0       -0.000000   -0.921392   -0.000000
      3          1           0        0.962161    1.407881   -0.000000
      4          1           0       -0.962043    1.407934    0.000000
      5          1           0       -0.962161   -1.407881   -0.000000
      6          1           0        0.962043   -1.407934    0.000000
 ---------------------------------------------------------------------

 SCF Done:  E(UM062X) =  -78.4292093569     A.U. after    8 cycles

 The electronic state is 1-AG.
 Alpha  occ. eigenvalues --  -10.59936 -10.59916  -0.78594  -0.70475  -0.52971
 Alpha  occ. eigenvalues --   -0.48477  -0.40386  -0.27317
 Alpha virt. eigenvalues --   -0.04788   0.02993   0.03365   0.05389   0.07493
 Alpha virt. eigenvalues --    0.08855   0.09798   0.11572   0.14014   0.15645
 Alpha virt. eigenvalues --    0.16597   0.21122   0.21712   0.28670   0.40338

  Beta  occ. eigenvalues --  -10.59936 -10.59916  -0.78594  -0.70475  -0.52971
  Beta  occ. eigenvalues --   -0.48477  -0.40386  -0.27317
  Beta virt. eigenvalues --   -0.04788   0.02993   0.03365   0.05389   0.07493
  Beta virt. eigenvalues --    0.08855   0.09798   0.11572   0.14014   0.15645
  Beta virt. eigenvalues --    0.16597   0.21122   0.21712   0.28670   0.40338

 Mulliken charges and spin densities:
               1          2
     1  C   -0.348442   0.000000
     2  C   -0.348442   0.000000
     3  H    0.174220   0.000000
     4  H    0.174222  -0.000000
     5  H    0.174220   0.000000
     6  H    0.174222  -0.000000
 Sum of Mulliken charges =  -0.00000   0.00000

 Dipole moment (field-independent basis, Debye):
    X=              0.0000    Y=             -0.0000    Z=             -0.0000  Tot=              0.0000
 Quadrupole moment (field-independent basis, Debye-Ang):
   XX=            -12.1556   YY=            -11.5477   ZZ=            -17.7455
   XY=             -0.0001   XZ=              0.0000   YZ=              0.0000

 Normal termination of Gaussian 16 at Tue Nov 19 11:48:21 2024.
