 Gaussian 16, Revision A.03,
 Gaussian 16:  ES64L-G16RevA.03 25-Dec-2016

 --------------------------------------------
 #p opt UM062X/6-311+G** nosymm int=superfine
 --------------------------------------------

 -------------------
 Title Card Required
 -------------------
 Symbolic Z-matrix:
 Charge =  0 Multiplicity = 1

 SCF Done:  E(UM062X) =  -151.303213165     A.U. after   21 cycles
 SCF Done:  E(UM062X) =  -151.303680772     A.U. after   25 cycles
 SCF Done:  E(UM062X) =  -151.304265726     A.U. after   25 cycles
 SCF Done:  E(UM062X) =  -151.304879900     A.U. after   22 cycles
 SCF Done:  E(UM062X) =  -151.305268720     A.U. after   22 cycles
 SCF Done:  E(UM062X) =  -151.305485457     A.U. after   21 cycles
 SCF Done:  E(UM062X) =  -151.305535957     A.U. after   21 cycles
 SCF Done:  E(UM062X) =  -151.305558442     A.U. after   29 cycles
 SCF Done:  E(UM062X) =  -151.305563303     A.U. after   23 cycles
 Optimization completed.
    -- Stationary point found.

                          Input orientation:
 ---------------------------------------------------------------------
 Center     Atomic      Atomic             Coordinates (Angstroms)
 Number     Number       Type             X           Y           Z
 ---------------------------------------------------------------------
      1          8           0       -1.936938    0.000000    0.000000
      2          8           0        1.936938    0.000000    0.000000
      3          1           0       -1.744701   -0.758176   -0.579424
      4          1           0        1.745129    0.757278    0.580742
 ---------------------------------------------------------------------

 Alpha  occ. eigenvalues --  -19.72348 -19.72347  -1.12957  -1.12795  -0.56726
 Alpha  occ. eigenvalues --   -0.56648  -0.44148  -0.44043  -0.35933
 Alpha virt. eigenvalues --   -0.27405   0.05091   0.07401   0.15143   0.15222
 Alpha virt. eigenvalues --    0.16708   0.18152   0.19547   0.19978   0.20370
 Alpha virt. eigenvalues --    0.30580   0.49216   0.50927   0.99634   1.00959

  Beta  occ. eigenvalues --  -19.72348 -19.72347  -1.12957  -1.12795  -0.56726
  Beta  occ. eigenvalues --   -0.56648  -0.44148  -0.44043  -0.35933
  Beta virt. eigenvalues --   -0.27405   0.05091   0.07401   0.15143   0.15222
  Beta virt. eigenvalues --    0.16708   0.18152   0.19547   0.19978   0.20370
  Beta virt. eigenvalues --    0.30580   0.49216   0.50927   0.99634   1.00959

 Mulliken charges and spin densities:
               1          2
     1  O   -0.266949  -0.000000
     2  O   -0.266976   0.000000
     3  H    0.266965  -0.000000
     4  H    0.266960   0.000000
 Sum of Mulliken charges =  -0.00000   0.00000

 Dipole moment (field-independent basis, Debye):
    X=              0.0006    Y=             -0.0018    Z=              0.0026  Tot=              0.0032
 Quadrupole moment (field-independent basis, Debye-Ang):
   XX=            -13.6003   YY=            -10.5912   ZZ=            -11.9071
   XY=              5.3683   XZ=              4.1096   YZ=              2.4335

 Normal termination of Gaussian 16 at Mon Apr 21 21:39:02 2025.
