 Gaussian 16, Revision A.03,
 Gaussian 16:  ES64L-G16RevA.03 25-Dec-2016

 --------------------------------------------
 #p opt UM062X/6-311+G** nosymm int=superfine
 --------------------------------------------

 -------------------
 Title Card Required
 -------------------
 Symbolic Z-matrix:
 Charge =  0 Multiplicity = 1

 SCF Done:  E(UM062X) =  -581.140908989     A.U. after    9 cycles
 SCF Done:  E(UM062X) =  -581.160860837     A.U. after    8 cycles
 SCF Done:  E(UM062X) =  -581.173254265     A.U. after    8 cycles
 SCF Done:  E(UM062X) =  -581.173274287     A.U. after    7 cycles
 Optimization completed.
    -- Stationary point found.

                          Input orientation:
 ---------------------------------------------------------------------
 Center     Atomic      Atomic             Coordinates (Angstroms)
 Number     Number       Type             X           Y           Z
 ---------------------------------------------------------------------
      1         14           0       -2.137518    0.000000    0.000000
      2         14           0        2.137518    0.000000    0.000000
      3          1           0       -3.203346   -1.082897    0.000118
      4          1           0        3.203346    1.082897   -0.000466
      5          1           0       -3.203351    1.082893    0.000348
      6          1           0        3.203351   -1.082892    0.000932
 ---------------------------------------------------------------------

 Alpha  occ. eigenvalues --  -67.01151 -67.01151  -5.55879  -5.55878  -3.87121
 Alpha  occ. eigenvalues --   -3.87121  -3.86580  -3.86580  -3.86443  -3.86443
 Alpha  occ. eigenvalues --   -0.57188  -0.57037  -0.37707  -0.37649  -0.29611
 Alpha  occ. eigenvalues --   -0.26564
 Alpha virt. eigenvalues --   -0.08317  -0.07332   0.02094   0.02288   0.03118
 Alpha virt. eigenvalues --    0.04574   0.05808   0.06124   0.06399   0.06796
 Alpha virt. eigenvalues --    0.08793   0.09282   0.11533   0.14148   0.29004

  Beta  occ. eigenvalues --  -67.01151 -67.01151  -5.55879  -5.55878  -3.87121
  Beta  occ. eigenvalues --   -3.87121  -3.86580  -3.86580  -3.86443  -3.86443
  Beta  occ. eigenvalues --   -0.57188  -0.57037  -0.37707  -0.37649  -0.29611
  Beta  occ. eigenvalues --   -0.26564
  Beta virt. eigenvalues --   -0.08317  -0.07332   0.02094   0.02288   0.03118
  Beta virt. eigenvalues --    0.04574   0.05808   0.06124   0.06399   0.06796
  Beta virt. eigenvalues --    0.08793   0.09282   0.11533   0.14148   0.29004

 Mulliken charges and spin densities:
               1          2
     1  Si   0.320651  -0.000000
     2  Si   0.320651   0.000000
     3  H   -0.160325  -0.000000
     4  H   -0.160325  -0.000000
     5  H   -0.160325  -0.000000
     6  H   -0.160325  -0.000000
 Sum of Mulliken charges =  -0.00000  -0.00000

 Dipole moment (field-independent basis, Debye):
    X=              0.0000    Y=              0.0000    Z=              0.0001  Tot=              0.0001
 Quadrupole moment (field-independent basis, Debye-Ang):
   XX=            -36.2563   YY=            -32.7834   ZZ=            -24.4027
   XY=             -0.0000   XZ=              0.0000   YZ=              0.0023

 Normal termination of Gaussian 16 at Mon Apr 21 20:34:56 2025.
