 Gaussian 16, Revision A.03,
 Gaussian 16:  ES64L-G16RevA.03 25-Dec-2016

 ---------------------------------------------------
 #p UM062X/6-311+G** force int=superfine pop=saveNBO
 ---------------------------------------------------

 -------------------
 Title Card Required
 -------------------
 Symbolic Z-matrix:
 Charge =  0 Multiplicity = 1

                         Standard orientation:
 ---------------------------------------------------------------------
 Center     Atomic      Atomic             Coordinates (Angstroms)
 Number     Number       Type             X           Y           Z
 ---------------------------------------------------------------------
      1          8           0        0.000000    0.000000    1.343562
      2          8           0        0.000000    0.000000   -1.343562
 ---------------------------------------------------------------------

 SCF Done:  E(UM062X) =  -149.846124344     A.U. after    9 cycles

 Unable to determine electronic state:  partially filled degenerate orbitals.
 Alpha  occ. eigenvalues --  -19.83338 -19.83333  -1.11160  -1.09689  -0.49231
 Alpha  occ. eigenvalues --   -0.48338  -0.43358  -0.41302
 Alpha virt. eigenvalues --   -0.29985  -0.27600   0.09985   0.12718   0.14664
 Alpha virt. eigenvalues --    0.14716   0.20015   0.20293   0.20944   0.30293
 Alpha virt. eigenvalues --    0.91480   0.98659   0.99823   1.02786   1.04113

  Beta  occ. eigenvalues --  -19.83338 -19.83333  -1.11160  -1.09689  -0.49231
  Beta  occ. eigenvalues --   -0.48338  -0.43358  -0.41302
  Beta virt. eigenvalues --   -0.29985  -0.27600   0.09985   0.12718   0.14664
  Beta virt. eigenvalues --    0.14716   0.20015   0.20293   0.20944   0.30293
  Beta virt. eigenvalues --    0.91480   0.98659   0.99823   1.02786   1.04113

 Mulliken charges and spin densities:
               1          2
     1  O   -0.000000   0.000000
     2  O   -0.000000   0.000000
 Sum of Mulliken charges =  -0.00000   0.00000

 Dipole moment (field-independent basis, Debye):
    X=             -0.0000    Y=             -0.0000    Z=              0.0000  Tot=              0.0000
 Quadrupole moment (field-independent basis, Debye-Ang):
   XX=            -10.1926   YY=            -11.9936   ZZ=             -9.1067
   XY=              0.0000   XZ=             -0.0000   YZ=              0.0000

 Summary of Natural Population Analysis:

                                       Natural Population
                Natural  -----------------------------------------------
    Atom  No    Charge         Core      Valence    Rydberg      Total
 -----------------------------------------------------------------------
      O    1   -0.00000      1.00000     2.99907    0.00093     4.00000
      O    2   -0.00000      1.00000     2.99907    0.00093     4.00000
 =======================================================================
   * Total *   -0.00000      2.00000     5.99814    0.00186     8.00000

 Normal termination of Gaussian 16 at Mon Apr 21 19:53:22 2025.
