 Gaussian 16, Revision A.03,
 Gaussian 16:  ES64L-G16RevA.03 25-Dec-2016

 ---------------------------------------------------
 #p UM062X/6-311+G** force int=superfine pop=saveNBO
 ---------------------------------------------------

 -------------------
 Title Card Required
 -------------------
 Symbolic Z-matrix:
 Charge =  0 Multiplicity = 1

                         Standard orientation:
 ---------------------------------------------------------------------
 Center     Atomic      Atomic             Coordinates (Angstroms)
 Number     Number       Type             X           Y           Z
 ---------------------------------------------------------------------
      1         15           0        0.000000    0.000000    1.513495
      2         15           0        0.000000    0.000000   -1.513495
 ---------------------------------------------------------------------

 SCF Done:  E(UM062X) =  -682.416810072     A.U. after    9 cycles

 The electronic state is 1-SGG.
 Alpha  occ. eigenvalues --  -78.11849 -78.11849  -6.93380  -6.93378  -5.04698
 Alpha  occ. eigenvalues --   -5.04698  -5.04697  -5.04697  -5.04644  -5.04643
 Alpha  occ. eigenvalues --   -0.66046  -0.61454  -0.30632  -0.27043  -0.27043
 Alpha virt. eigenvalues --   -0.15251  -0.15251  -0.09933   0.02442   0.03409
 Alpha virt. eigenvalues --    0.04594   0.04594   0.06124   0.06575   0.06575
 Alpha virt. eigenvalues --    0.11521   0.28786   0.30009   0.30009   0.33164

  Beta  occ. eigenvalues --  -78.11849 -78.11849  -6.93380  -6.93378  -5.04698
  Beta  occ. eigenvalues --   -5.04698  -5.04697  -5.04697  -5.04644  -5.04643
  Beta  occ. eigenvalues --   -0.66046  -0.61454  -0.30632  -0.27043  -0.27043
  Beta virt. eigenvalues --   -0.15251  -0.15251  -0.09933   0.02442   0.03409
  Beta virt. eigenvalues --    0.04594   0.04594   0.06124   0.06575   0.06575
  Beta virt. eigenvalues --    0.11521   0.28786   0.30009   0.30009   0.33164

 Mulliken charges and spin densities:
               1          2
     1  P    0.000000   0.000000
     2  P    0.000000   0.000000
 Sum of Mulliken charges =   0.00000   0.00000

 Dipole moment (field-independent basis, Debye):
    X=             -0.0000    Y=             -0.0000    Z=              0.0000  Tot=              0.0000
 Quadrupole moment (field-independent basis, Debye-Ang):
   XX=            -29.1698   YY=            -29.1698   ZZ=            -24.7868
   XY=              0.0000   XZ=             -0.0000   YZ=              0.0000

 Summary of Natural Population Analysis:

                                       Natural Population
                Natural  -----------------------------------------------
    Atom  No    Charge         Core      Valence    Rydberg      Total
 -----------------------------------------------------------------------
      P    1    0.00000      4.99998     2.49882    0.00120     7.50000
      P    2    0.00000      4.99998     2.49882    0.00120     7.50000
 =======================================================================
   * Total *    0.00000      9.99997     4.99764    0.00239    15.00000

 Normal termination of Gaussian 16 at Mon Apr 21 21:20:58 2025.
