 Gaussian 16, Revision A.03,
 Gaussian 16:  ES64L-G16RevA.03 25-Dec-2016

 --------------------------------------------
 #p opt UM062X/6-311+G** nosymm int=superfine
 --------------------------------------------

 -------------------
 Title Card Required
 -------------------
 Symbolic Z-matrix:
 Charge =  0 Multiplicity = 1

 SCF Done:  E(UM062X) =  -78.4378818580     A.U. after    9 cycles
 SCF Done:  E(UM062X) =  -78.4565558548     A.U. after    8 cycles
 SCF Done:  E(UM062X) =  -78.4598318260     A.U. after    7 cycles
 SCF Done:  E(UM062X) =  -78.4598456039     A.U. after    6 cycles
 Optimization completed.
    -- Stationary point found.

                          Input orientation:
 ---------------------------------------------------------------------
 Center     Atomic      Atomic             Coordinates (Angstroms)
 Number     Number       Type             X           Y           Z
 ---------------------------------------------------------------------
      1          6           0       -0.543555    0.000000    0.000000
      2          6           0        0.543555    0.000000    0.000000
      3          1           0       -1.161373   -0.899469    0.000000
      4          1           0       -1.161336    0.899545    0.000000
      5          1           0        1.161373    0.899469   -0.000000
      6          1           0        1.161336   -0.899545   -0.000000
 ---------------------------------------------------------------------

 Alpha  occ. eigenvalues --  -10.50094 -10.49450  -0.92168  -0.63872  -0.56694
 Alpha  occ. eigenvalues --   -0.51917  -0.39011  -0.36948
 Alpha virt. eigenvalues --    0.03363   0.04238   0.04650   0.06126   0.07016
 Alpha virt. eigenvalues --    0.08639   0.09796   0.16119   0.16918   0.17965
 Alpha virt. eigenvalues --    0.18721   0.24471   0.33451   0.40524   0.43654

  Beta  occ. eigenvalues --  -10.50094 -10.49450  -0.92168  -0.63872  -0.56694
  Beta  occ. eigenvalues --   -0.51917  -0.39011  -0.36948
  Beta virt. eigenvalues --    0.03363   0.04238   0.04650   0.06126   0.07016
  Beta virt. eigenvalues --    0.08639   0.09796   0.16119   0.16918   0.17965
  Beta virt. eigenvalues --    0.18721   0.24471   0.33451   0.40524   0.43654

 Mulliken charges and spin densities:
               1          2
     1  C   -0.267237   0.000000
     2  C   -0.267237  -0.000000
     3  H    0.133623  -0.000000
     4  H    0.133614  -0.000000
     5  H    0.133623   0.000000
     6  H    0.133614   0.000000
 Sum of Mulliken charges =  -0.00000   0.00000

 Dipole moment (field-independent basis, Debye):
    X=             -0.0000    Y=              0.0000    Z=              0.0000  Tot=              0.0000
 Quadrupole moment (field-independent basis, Debye-Ang):
   XX=            -12.4582   YY=            -12.3557   ZZ=            -14.7827
   XY=              0.0002   XZ=             -0.0000   YZ=             -0.0000

 Normal termination of Gaussian 16 at Tue Nov 19 10:29:22 2024.
