 Gaussian 16, Revision A.03,
 Gaussian 16:  ES64L-G16RevA.03 25-Dec-2016

 --------------------------------------------
 #p opt UM062X/6-311+G** nosymm int=superfine
 --------------------------------------------

 -------------------
 Title Card Required
 -------------------
 Symbolic Z-matrix:
 Charge = -1 Multiplicity = 2

 SCF Done:  E(UM062X) =  -53.1974042975     A.U. after   12 cycles
 SCF Done:  E(UM062X) =  -53.2019125185     A.U. after   11 cycles
 SCF Done:  E(UM062X) =  -53.2029062209     A.U. after   10 cycles
 SCF Done:  E(UM062X) =  -53.2029125010     A.U. after    8 cycles
 Optimization completed.
    -- Stationary point found.

                          Input orientation:
 ---------------------------------------------------------------------
 Center     Atomic      Atomic             Coordinates (Angstroms)
 Number     Number       Type             X           Y           Z
 ---------------------------------------------------------------------
      1          5           0       -2.190672    0.000000    0.000000
      2          5           0        2.190672    0.000000    0.000000
      3          1           0        2.248477   -1.197003   -0.000015
      4          1           0       -2.248272   -0.598501    1.036652
      5          1           0        2.248435    0.598520   -1.036633
      6          1           0        2.248205    0.598488    1.036663
      7          1           0       -2.248486    1.197003   -0.000001
      8          1           0       -2.248360   -0.598507   -1.036644
 ---------------------------------------------------------------------

 Alpha  occ. eigenvalues --   -6.85032  -6.85031  -0.40317  -0.39967  -0.22183
 Alpha  occ. eigenvalues --   -0.22183  -0.22031  -0.22031   0.01309
 Alpha virt. eigenvalues --    0.10698   0.16600   0.17626   0.17626   0.18158
 Alpha virt. eigenvalues --    0.18158   0.18675   0.23127   0.24046   0.32791
 Alpha virt. eigenvalues --    0.32791   0.33911   0.33911   0.35430   0.38602

  Beta  occ. eigenvalues --   -6.84995  -6.84994  -0.38632  -0.38396  -0.22032
  Beta  occ. eigenvalues --   -0.22032  -0.21859  -0.21859
  Beta virt. eigenvalues --    0.08243   0.13075   0.13207   0.14459   0.14459
  Beta virt. eigenvalues --    0.17626   0.17626   0.20319   0.22182   0.24802
  Beta virt. eigenvalues --    0.31721   0.31721   0.33002   0.33003   0.33370

 Mulliken charges and spin densities:
               1          2
     1  B   -0.356571   0.550815
     2  B   -0.356570   0.550814
     3  H   -0.047830  -0.016956
     4  H   -0.047798  -0.016929
     5  H   -0.047804  -0.016929
     6  H   -0.047795  -0.016929
     7  H   -0.047830  -0.016956
     8  H   -0.047802  -0.016929
 Sum of Mulliken charges =  -1.00000   1.00000

 Dipole moment (field-independent basis, Debye):
    X=              0.0000    Y=             -0.0000    Z=              0.0001  Tot=              0.0001
 Quadrupole moment (field-independent basis, Debye-Ang):
   XX=            -46.8144   YY=            -24.3484   ZZ=            -24.3482
   XY=              0.0001   XZ=              0.0000   YZ=              0.0000

 Normal termination of Gaussian 16 at Mon Apr 21 16:52:20 2025.
