 Gaussian 16, Revision A.03,
 Gaussian 16:  ES64L-G16RevA.03 25-Dec-2016

 --------------------------------------------
 #p opt UM062X/6-311+G** nosymm int=superfine
 --------------------------------------------

 -------------------
 Title Card Required
 -------------------
 Symbolic Z-matrix:
 Charge =  0 Multiplicity = 1

 SCF Done:  E(UM062X) =  -92.8161237706     A.U. after   15 cycles
 SCF Done:  E(UM062X) =  -92.8180711500     A.U. after   11 cycles
 SCF Done:  E(UM062X) =  -92.8180814032     A.U. after   11 cycles
 Optimization completed.
    -- Stationary point found.

                          Input orientation:
 ---------------------------------------------------------------------
 Center     Atomic      Atomic             Coordinates (Angstroms)
 Number     Number       Type             X           Y           Z
 ---------------------------------------------------------------------
      1          6           0       -2.022394    0.000000    0.000000
      2          7           0        2.022394    0.000000    0.000000
      3          1           0       -3.147544   -0.000000    0.000000
 ---------------------------------------------------------------------

 Alpha  occ. eigenvalues --  -14.81056 -10.76480  -0.80489  -0.75968  -0.45678
 Alpha  occ. eigenvalues --   -0.25739  -0.25739
 Alpha virt. eigenvalues --   -0.18595  -0.18595  -0.07591  -0.00183   0.05983
 Alpha virt. eigenvalues --    0.05983   0.07824   0.12487   0.15456   0.17369
 Alpha virt. eigenvalues --    0.17369   0.22951   0.41502   0.51797   0.51797

  Beta  occ. eigenvalues --  -14.81056 -10.76480  -0.80489  -0.75968  -0.45678
  Beta  occ. eigenvalues --   -0.25739  -0.25739
  Beta virt. eigenvalues --   -0.18595  -0.18595  -0.07591  -0.00183   0.05983
  Beta virt. eigenvalues --    0.05983   0.07824   0.12487   0.15456   0.17369
  Beta virt. eigenvalues --    0.17369   0.22951   0.41502   0.51797   0.51797

 Mulliken charges and spin densities:
               1          2
     1  C    0.090953   0.000000
     2  N   -0.259031  -0.000000
     3  H    0.168079  -0.000000
 Sum of Mulliken charges =   0.00000   0.00000

 Dipole moment (field-independent basis, Debye):
    X=             -6.8414    Y=             -0.0000    Z=              0.0000  Tot=              6.8414
 Quadrupole moment (field-independent basis, Debye-Ang):
   XX=             -3.9590   YY=            -14.1928   ZZ=            -14.1928
   XY=              0.0000   XZ=             -0.0000   YZ=             -0.0000

 Normal termination of Gaussian 16 at Mon Apr 21 18:39:33 2025.
