 Gaussian 16, Revision A.03,
 Gaussian 16:  ES64L-G16RevA.03 25-Dec-2016

 --------------------------------------------
 #p opt UM062X/6-311+G** nosymm int=superfine
 --------------------------------------------

 -------------------
 Title Card Required
 -------------------
 Symbolic Z-matrix:
 Charge =  0 Multiplicity = 1

 SCF Done:  E(UM062X) =  -684.945617490     A.U. after   11 cycles
 SCF Done:  E(UM062X) =  -684.947037158     A.U. after   11 cycles
 SCF Done:  E(UM062X) =  -684.948116778     A.U. after   11 cycles
 SCF Done:  E(UM062X) =  -684.948344659     A.U. after   10 cycles
 SCF Done:  E(UM062X) =  -684.948405432     A.U. after   10 cycles
 SCF Done:  E(UM062X) =  -684.948433326     A.U. after   10 cycles
 SCF Done:  E(UM062X) =  -684.948459244     A.U. after   10 cycles
 SCF Done:  E(UM062X) =  -684.948489107     A.U. after   11 cycles
 SCF Done:  E(UM062X) =  -684.948513683     A.U. after   12 cycles
 SCF Done:  E(UM062X) =  -684.948551709     A.U. after   10 cycles
 SCF Done:  E(UM062X) =  -684.948659976     A.U. after   11 cycles
 SCF Done:  E(UM062X) =  -684.948660717     A.U. after    9 cycles
 SCF Done:  E(UM062X) =  -684.948660761     A.U. after   10 cycles
 SCF Done:  E(UM062X) =  -684.948660569     A.U. after    8 cycles
 SCF Done:  E(UM062X) =  -684.948660787     A.U. after    8 cycles
 SCF Done:  E(UM062X) =  -684.948660843     A.U. after   11 cycles
 SCF Done:  E(UM062X) =  -684.948660860     A.U. after    8 cycles
 SCF Done:  E(UM062X) =  -684.948660876     A.U. after    7 cycles
 SCF Done:  E(UM062X) =  -684.948660888     A.U. after   10 cycles
 SCF Done:  E(UM062X) =  -684.948660892     A.U. after    7 cycles
 Optimization completed.
    -- Stationary point found.

                          Input orientation:
 ---------------------------------------------------------------------
 Center     Atomic      Atomic             Coordinates (Angstroms)
 Number     Number       Type             X           Y           Z
 ---------------------------------------------------------------------
      1         15           0       -1.892217    0.000000    0.000000
      2         15           0        1.892217    0.000000    0.000000
      3          1           0        1.828226   -0.995816    1.008436
      4          1           0       -1.822670    1.055356    0.945522
      5          1           0        1.827267   -0.971914   -1.031552
      6          1           0       -1.820782    0.906662   -1.088940
 ---------------------------------------------------------------------

 Alpha  occ. eigenvalues --  -78.05013 -78.05010  -6.87368  -6.87366  -4.98921
 Alpha  occ. eigenvalues --   -4.98919  -4.98797  -4.98794  -4.98613  -4.98611
 Alpha  occ. eigenvalues --   -0.71316  -0.70494  -0.45098  -0.44709  -0.36261
 Alpha  occ. eigenvalues --   -0.35896  -0.26088
 Alpha virt. eigenvalues --   -0.13040   0.01660   0.02926   0.03252   0.04075
 Alpha virt. eigenvalues --    0.04814   0.05842   0.06080   0.06104   0.06466
 Alpha virt. eigenvalues --    0.08245   0.15094   0.18660   0.28225   0.28669

  Beta  occ. eigenvalues --  -78.05013 -78.05010  -6.87368  -6.87366  -4.98921
  Beta  occ. eigenvalues --   -4.98919  -4.98797  -4.98794  -4.98613  -4.98611
  Beta  occ. eigenvalues --   -0.71316  -0.70494  -0.45098  -0.44709  -0.36261
  Beta  occ. eigenvalues --   -0.35896  -0.26088
  Beta virt. eigenvalues --   -0.13040   0.01660   0.02926   0.03252   0.04075
  Beta virt. eigenvalues --    0.04814   0.05842   0.06080   0.06104   0.06466
  Beta virt. eigenvalues --    0.08245   0.15094   0.18660   0.28225   0.28669

 Mulliken charges and spin densities:
               1          2
     1  P   -0.021043  -0.000000
     2  P   -0.021925   0.000000
     3  H    0.011060  -0.000000
     4  H    0.011102   0.000000
     5  H    0.010377  -0.000000
     6  H    0.010429   0.000000
 Sum of Mulliken charges =  -0.00000   0.00000

 Dipole moment (field-independent basis, Debye):
    X=              0.0017    Y=             -0.0006    Z=             -0.0734  Tot=              0.0735
 Quadrupole moment (field-independent basis, Debye-Ang):
   XX=            -28.7343   YY=            -31.2294   ZZ=            -28.4960
   XY=             -4.0186   XZ=              0.1221   YZ=              0.0836

 Normal termination of Gaussian 16 at Mon Apr 21 20:56:18 2025.
