 Gaussian 16, Revision A.03,
 Gaussian 16:  ES64L-G16RevA.03 25-Dec-2016

 ----------------------------------------------------------------------
 #p opt UM062X/6-311+G** nosymm int=superfine SCF=(MaxCycle=200,NoVarAc
 c,noincfock) guess=read
 ----------------------------------------------------------------------

 -------------------
 Title Card Required
 -------------------
 Symbolic Z-matrix:
 Charge =  1 Multiplicity = 2

 SCF Done:  E(UM062X) =  -92.6461335286     A.U. after   68 cycles
 SCF Done:  E(UM062X) =  -92.6465517936     A.U. after   35 cycles
 SCF Done:  E(UM062X) =  -92.6465556819     A.U. after   10 cycles
 Optimization completed.
    -- Stationary point found.

                          Input orientation:
 ---------------------------------------------------------------------
 Center     Atomic      Atomic             Coordinates (Angstroms)
 Number     Number       Type             X           Y           Z
 ---------------------------------------------------------------------
      1          6           0       -1.451540    0.000000    0.000000
      2          7           0        1.451540    0.000000    0.000000
      3          1           0       -2.573959    0.000000    0.000000
 ---------------------------------------------------------------------

 Alpha  occ. eigenvalues --  -15.12359 -11.02454  -1.15543  -0.99718  -0.67439
 Alpha  occ. eigenvalues --   -0.67418  -0.64348
 Alpha virt. eigenvalues --   -0.46619  -0.37435  -0.33688  -0.15776  -0.10052
 Alpha virt. eigenvalues --   -0.09398  -0.08457  -0.04297  -0.01415  -0.01245
 Alpha virt. eigenvalues --    0.00205   0.08118   0.23081   0.30194   0.30321

  Beta  occ. eigenvalues --  -15.08541 -11.04970  -1.09030  -0.94025  -0.78756
  Beta  occ. eigenvalues --   -0.67570
  Beta virt. eigenvalues --   -0.43182  -0.29134  -0.28365  -0.28323  -0.15719
  Beta virt. eigenvalues --   -0.11418  -0.09376  -0.09267  -0.06577  -0.00007
  Beta virt. eigenvalues --    0.00346   0.00443   0.05457   0.22960   0.29758

 Mulliken charges and spin densities:
               1          2
     1  C    0.380727  -1.634188
     2  N    0.255855   2.740389
     3  H    0.363418  -0.106201
 Sum of Mulliken charges =   1.00000   1.00000

 Dipole moment (field-independent basis, Debye):
    X=             -5.1884    Y=              0.0000    Z=              0.0000  Tot=              5.1884
 Quadrupole moment (field-independent basis, Debye-Ang):
   XX=              7.9460   YY=            -10.8354   ZZ=             -9.2175
   XY=             -0.0000   XZ=             -0.0000   YZ=             -0.0075

 Normal termination of Gaussian 16 at Mon Apr 21 23:06:32 2025.
