 Gaussian 16, Revision A.03,
 Gaussian 16:  ES64L-G16RevA.03 25-Dec-2016

 --------------------------------------------
 #p opt UM062X/6-311+G** nosymm int=superfine
 --------------------------------------------

 -------------------
 Title Card Required
 -------------------
 Symbolic Z-matrix:
 Charge =  0 Multiplicity = 1

 SCF Done:  E(UM062X) =  -75.7782147315     A.U. after    9 cycles
 SCF Done:  E(UM062X) =  -76.0880020519     A.U. after    9 cycles
 SCF Done:  E(UM062X) =  -76.2745220197     A.U. after   11 cycles
 SCF Done:  E(UM062X) =  -76.2780086034     A.U. after    9 cycles
 SCF Done:  E(UM062X) =  -76.2782121414     A.U. after    8 cycles
 Optimization completed.
    -- Stationary point found.

                          Input orientation:
 ---------------------------------------------------------------------
 Center     Atomic      Atomic             Coordinates (Angstroms)
 Number     Number       Type             X           Y           Z
 ---------------------------------------------------------------------
      1          6           0       -0.377065    0.000000    0.000000
      2          6           0        0.377065    0.000000    0.000000
      3          1           0       -1.432458   -0.000000   -0.000000
      4          1           0        1.432455    0.000000    0.000000
 ---------------------------------------------------------------------

 Alpha  occ. eigenvalues --  -10.54231 -10.42721  -0.85907  -0.57259  -0.53241
 Alpha  occ. eigenvalues --   -0.48896  -0.48896
 Alpha virt. eigenvalues --    0.02985   0.03875   0.06614   0.06614   0.08641
 Alpha virt. eigenvalues --    0.08641   0.10185   0.17186   0.23960   0.25283
 Alpha virt. eigenvalues --    0.27811   0.27811   0.45227   0.50230   0.50230

  Beta  occ. eigenvalues --  -10.54231 -10.42721  -0.85907  -0.57259  -0.53241
  Beta  occ. eigenvalues --   -0.48896  -0.48896
  Beta virt. eigenvalues --    0.02985   0.03875   0.06614   0.06614   0.08641
  Beta virt. eigenvalues --    0.08641   0.10185   0.17186   0.23960   0.25283
  Beta virt. eigenvalues --    0.27811   0.27811   0.45227   0.50230   0.50230

 Mulliken charges and spin densities:
               1          2
     1  C   -0.086610  -0.000000
     2  C   -0.086612   0.000000
     3  H    0.086612   0.000000
     4  H    0.086611   0.000000
 Sum of Mulliken charges =  -0.00000   0.00000

 Dipole moment (field-independent basis, Debye):
    X=             -0.0000    Y=             -0.0000    Z=              0.0000  Tot=              0.0000
 Quadrupole moment (field-independent basis, Debye-Ang):
   XX=             -8.1942   YY=            -11.2741   ZZ=            -11.2741
   XY=              0.0000   XZ=              0.0000   YZ=              0.0000

 Normal termination of Gaussian 16 at Tue Dec  3 19:52:18 2024.
