 Gaussian 16, Revision A.03,
 Gaussian 16:  ES64L-G16RevA.03 25-Dec-2016

 ---------------------------------------
 #p UM062X/6-311+G** force int=superfine
 ---------------------------------------

 -------------------
 Title Card Required
 -------------------
 Symbolic Z-matrix:
 Charge =  1 Multiplicity = 2

                         Standard orientation:
 ---------------------------------------------------------------------
 Center     Atomic      Atomic             Coordinates (Angstroms)
 Number     Number       Type             X           Y           Z
 ---------------------------------------------------------------------
      1          7           0        0.000000    0.000000    1.680391
      2          7           0        0.000000    0.000000   -1.680391
 ---------------------------------------------------------------------

 SCF Done:  E(UM062X) =  -108.350704152     A.U. after   11 cycles

 Unable to determine electronic state:  partially filled degenerate orbitals.
 Alpha  occ. eigenvalues --  -15.31597 -15.31593  -1.20209  -1.19429  -0.66100
 Alpha  occ. eigenvalues --   -0.64658  -0.63475
 Alpha virt. eigenvalues --   -0.57473  -0.54825  -0.53824  -0.12900  -0.08180
 Alpha virt. eigenvalues --   -0.08095  -0.07940  -0.03883  -0.02905  -0.02715
 Alpha virt. eigenvalues --    0.03864   0.49402   0.50892   0.52110   0.52583

  Beta  occ. eigenvalues --  -15.31106 -15.31104  -1.16466  -1.15767  -0.62930
  Beta  occ. eigenvalues --   -0.61697
  Beta virt. eigenvalues --   -0.53022  -0.51921  -0.44338  -0.43847  -0.13874
  Beta virt. eigenvalues --   -0.08935  -0.08378  -0.08007  -0.04161  -0.03218
  Beta virt. eigenvalues --   -0.02948   0.02578   0.49549   0.51921   0.52275

 Mulliken charges and spin densities:
               1          2
     1  N    0.500000   0.500000
     2  N    0.500000   0.500000
 Sum of Mulliken charges =   1.00000   1.00000

 Dipole moment (field-independent basis, Debye):
    X=              0.0000    Y=             -0.0000    Z=              0.0000  Tot=              0.0000
 Quadrupole moment (field-independent basis, Debye-Ang):
   XX=             -8.5680   YY=            -10.0134   ZZ=              5.1160
   XY=             -0.0000   XZ=             -0.0000   YZ=              0.0000

 Optimization completed.
    -- Stationary point found.
 Normal termination of Gaussian 16 at Wed Feb 26 14:02:01 2025.
