 Gaussian 16, Revision A.03,
 Gaussian 16:  ES64L-G16RevA.03 25-Dec-2016

 --------------------------------------------
 #p opt UM062X/6-311+G** nosymm int=superfine
 --------------------------------------------

 -------------------
 Title Card Required
 -------------------
 Symbolic Z-matrix:
 Charge =  0 Multiplicity = 1

 SCF Done:  E(UM062X) =  -582.376572879     A.U. after   10 cycles
 SCF Done:  E(UM062X) =  -582.378860000     A.U. after    9 cycles
 SCF Done:  E(UM062X) =  -582.379484762     A.U. after    9 cycles
 Optimization completed.
    -- Stationary point found.

                          Input orientation:
 ---------------------------------------------------------------------
 Center     Atomic      Atomic             Coordinates (Angstroms)
 Number     Number       Type             X           Y           Z
 ---------------------------------------------------------------------
      1         14           0       -2.294819    0.000000    0.000000
      2         14           0        2.294819    0.000000    0.000000
      3          1           0        2.698927   -1.419124   -0.000055
      4          1           0       -2.698873   -0.709474    1.229074
      5          1           0        2.699011    0.709646   -1.228929
      6          1           0        2.698882    0.709527    1.229040
      7          1           0       -2.698930    1.419123   -0.000110
      8          1           0       -2.699017   -0.709701   -1.228895
 ---------------------------------------------------------------------

 Alpha  occ. eigenvalues --  -67.01889 -67.01889  -5.56786  -5.56786  -3.88020
 Alpha  occ. eigenvalues --   -3.88020  -3.87780  -3.87780  -3.87780  -3.87780
 Alpha  occ. eigenvalues --   -0.61158  -0.60872  -0.42109  -0.42109  -0.42048
 Alpha  occ. eigenvalues --   -0.42047  -0.21848
 Alpha virt. eigenvalues --   -0.10810   0.02040   0.02940   0.02940   0.03270
 Alpha virt. eigenvalues --    0.05057   0.05057   0.06097   0.06723   0.07482
 Alpha virt. eigenvalues --    0.07482   0.08603   0.08603   0.11835   0.15822

  Beta  occ. eigenvalues --  -67.01889 -67.01889  -5.56786  -5.56786  -3.88020
  Beta  occ. eigenvalues --   -3.88020  -3.87780  -3.87780  -3.87780  -3.87780
  Beta  occ. eigenvalues --   -0.61158  -0.60872  -0.42109  -0.42109  -0.42048
  Beta  occ. eigenvalues --   -0.42047  -0.21848
  Beta virt. eigenvalues --   -0.10810   0.02040   0.02940   0.02940   0.03270
  Beta virt. eigenvalues --    0.05057   0.05057   0.06097   0.06723   0.07482
  Beta virt. eigenvalues --    0.07482   0.08603   0.08603   0.11835   0.15822

 Mulliken charges and spin densities:
               1          2
     1  Si   0.266867   0.000000
     2  Si   0.266868  -0.000000
     3  H   -0.088954  -0.000000
     4  H   -0.088956   0.000000
     5  H   -0.088957  -0.000000
     6  H   -0.088956  -0.000000
     7  H   -0.088954   0.000000
     8  H   -0.088957   0.000000
 Sum of Mulliken charges =  -0.00000   0.00000

 Dipole moment (field-independent basis, Debye):
    X=              0.0000    Y=             -0.0000    Z=              0.0000  Tot=              0.0000
 Quadrupole moment (field-independent basis, Debye-Ang):
   XX=            -28.0344   YY=            -32.1689   ZZ=            -32.1690
   XY=             -0.0004   XZ=              0.0000   YZ=              0.0000

 Normal termination of Gaussian 16 at Mon Apr 21 20:21:15 2025.
