 Gaussian 16, Revision A.03,
 Gaussian 16:  ES64L-G16RevA.03 25-Dec-2016

 --------------------------------
 #p UM062X/6-311+G** Pop=NBO Read
 --------------------------------

 ------------
 NBO Analysis
 ------------
 Symbolic Z-matrix:
 Charge =  0 Multiplicity = 1

                         Standard orientation:
 ---------------------------------------------------------------------
 Center     Atomic      Atomic             Coordinates (Angstroms)
 Number     Number       Type             X           Y           Z
 ---------------------------------------------------------------------
      1          8           0       -0.000000    0.000000    1.435656
      2         16           0       -0.000000    0.000000   -0.736357
      3          1           0        0.000000   -0.000000    2.407210
      4          1           0        0.000000   -0.000000   -2.110745
 ---------------------------------------------------------------------

 SCF Done:  E(UM062X) =  -474.330933266     A.U. after   12 cycles

 Unable to determine electronic state:  an orbital has unidentified symmetry.
 Alpha  occ. eigenvalues --  -90.00341 -19.66876  -8.34222  -6.26324  -6.25976
 Alpha  occ. eigenvalues --   -6.25236  -1.07785  -0.82437  -0.57508  -0.40901
 Alpha  occ. eigenvalues --   -0.39673  -0.36074  -0.33093
 Alpha virt. eigenvalues --   -0.19264   0.02204   0.05539   0.06565   0.07400
 Alpha virt. eigenvalues --    0.09416   0.17765   0.21177   0.21598   0.30735
 Alpha virt. eigenvalues --    0.34477   0.47413   0.50942   0.52187   0.67409

  Beta  occ. eigenvalues --  -90.00341 -19.66876  -8.34222  -6.26324  -6.25976
  Beta  occ. eigenvalues --   -6.25236  -1.07785  -0.82437  -0.57508  -0.40901
  Beta  occ. eigenvalues --   -0.39673  -0.36074  -0.33093
  Beta virt. eigenvalues --   -0.19264   0.02204   0.05539   0.06565   0.07400
  Beta virt. eigenvalues --    0.09416   0.17765   0.21177   0.21598   0.30735
  Beta virt. eigenvalues --    0.34477   0.47413   0.50942   0.52187   0.67409

 Mulliken charges and spin densities:
               1          2
     1  O   -0.495085  -0.000000
     2  S    0.188212   0.000000
     3  H    0.303347   0.000000
     4  H    0.003526  -0.000000
 Sum of Mulliken charges =   0.00000   0.00000

 Dipole moment (field-independent basis, Debye):
    X=              0.0000    Y=             -0.0000    Z=             -0.8945  Tot=              0.8945
 Quadrupole moment (field-independent basis, Debye-Ang):
   XX=            -22.6607   YY=            -18.6897   ZZ=            -12.6524
   XY=              0.0000   XZ=              0.0000   YZ=             -0.0000

 Summary of Natural Population Analysis:

                                       Natural Population
                Natural  -----------------------------------------------
    Atom  No    Charge         Core      Valence    Rydberg      Total
 -----------------------------------------------------------------------
      O    1   -0.38299      0.99997     3.37478    0.00823     4.38299
      S    2    0.11602      4.99974     2.86463    0.01961     7.88398
      H    3    0.24013      0.00000     0.25761    0.00226     0.25987
      H    4    0.02684      0.00000     0.47091    0.00225     0.47316
 =======================================================================
   * Total *    0.00000      5.99971     6.96793    0.03235    13.00000

 Normal termination of Gaussian 16 at Wed Apr 16 05:31:29 2025.
