 Gaussian 16, Revision A.03,
 Gaussian 16:  ES64L-G16RevA.03 25-Dec-2016

 --------------------------------------------
 #p opt UM062X/6-311+G** nosymm int=superfine
 --------------------------------------------

 -------------------
 Title Card Required
 -------------------
 Symbolic Z-matrix:
 Charge =  1 Multiplicity = 2

 SCF Done:  E(UM062X) =  -76.6347824380     A.U. after    9 cycles
 SCF Done:  E(UM062X) =  -76.7110090751     A.U. after   10 cycles
 SCF Done:  E(UM062X) =  -76.7262327575     A.U. after   10 cycles
 SCF Done:  E(UM062X) =  -76.7265205673     A.U. after    8 cycles
 Optimization completed.
    -- Stationary point found.

                          Input orientation:
 ---------------------------------------------------------------------
 Center     Atomic      Atomic             Coordinates (Angstroms)
 Number     Number       Type             X           Y           Z
 ---------------------------------------------------------------------
      1          6           0       -0.497074    0.000000    0.000000
      2          6           0        0.497074    0.000000    0.000000
      3          1           0       -1.570405    0.000000   -0.000000
      4          1           0        1.570403    0.000000    0.000000
 ---------------------------------------------------------------------

 Alpha  occ. eigenvalues --  -10.90699 -10.89238  -1.31766  -0.95247  -0.91291
 Alpha  occ. eigenvalues --   -0.81829  -0.78391
 Alpha virt. eigenvalues --   -0.19884  -0.18115  -0.14714  -0.13858  -0.11951
 Alpha virt. eigenvalues --   -0.11367  -0.11047  -0.03570  -0.02873  -0.02426
 Alpha virt. eigenvalues --    0.02441   0.04288   0.17108   0.20649   0.25871

  Beta  occ. eigenvalues --  -10.90353 -10.88957  -1.25909  -0.93726  -0.90471
  Beta  occ. eigenvalues --   -0.75755
  Beta virt. eigenvalues --   -0.51675  -0.16963  -0.15633  -0.15577  -0.13439
  Beta virt. eigenvalues --   -0.11895  -0.11554  -0.11144  -0.02409  -0.01933
  Beta virt. eigenvalues --   -0.01403   0.02639   0.04708   0.17702   0.21037

 Mulliken charges and spin densities:
               1          2
     1  C    0.234423   0.520737
     2  C    0.234423   0.520737
     3  H    0.265577  -0.020737
     4  H    0.265576  -0.020737
 Sum of Mulliken charges =   1.00000   1.00000

 Dipole moment (field-independent basis, Debye):
    X=             -0.0000    Y=              0.0000    Z=              0.0000  Tot=              0.0000
 Quadrupole moment (field-independent basis, Debye-Ang):
   XX=             -2.0632   YY=             -9.7268   ZZ=             -9.5598
   XY=              0.0000   XZ=              0.0000   YZ=              0.7745

 Normal termination of Gaussian 16 at Tue Nov 19 12:52:19 2024.
