 Gaussian 16, Revision A.03,
 Gaussian 16:  ES64L-G16RevA.03 25-Dec-2016

 --------------------------------------------
 #p opt UM062X/6-311+G** nosymm int=superfine
 --------------------------------------------

 -------------------
 Title Card Required
 -------------------
 Symbolic Z-matrix:
 Charge =  0 Multiplicity = 1

 SCF Done:  E(UM062X) =  -83.1199866241     A.U. after   10 cycles
 SCF Done:  E(UM062X) =  -83.1360032009     A.U. after    9 cycles
 SCF Done:  E(UM062X) =  -83.1397273534     A.U. after    8 cycles
 SCF Done:  E(UM062X) =  -83.1397575165     A.U. after    7 cycles
 Optimization completed.
    -- Stationary point found.

                          Input orientation:
 ---------------------------------------------------------------------
 Center     Atomic      Atomic             Coordinates (Angstroms)
 Number     Number       Type             X           Y           Z
 ---------------------------------------------------------------------
      1          5           0       -2.152429    0.000000    0.000000
      2          7           0        2.152429    0.000000    0.000000
      3          1           0        2.517014   -0.945077    0.000002
      4          1           0       -2.161185   -0.593888    1.028611
      5          1           0        2.516919    0.472584   -0.818481
      6          1           0        2.516906    0.472583    0.818487
      7          1           0       -2.161224    1.187743    0.000013
      8          1           0       -2.161202   -0.593868   -1.028623
 ---------------------------------------------------------------------

 Alpha  occ. eigenvalues --  -14.72694  -7.04501  -0.95995  -0.57767  -0.53825
 Alpha  occ. eigenvalues --   -0.53825  -0.40169  -0.40169  -0.34035
 Alpha virt. eigenvalues --   -0.02423   0.02701   0.04737   0.04737   0.04852
 Alpha virt. eigenvalues --    0.08554   0.10582   0.10582   0.16707   0.18065
 Alpha virt. eigenvalues --    0.18065   0.18926   0.18926   0.21813   0.27372

  Beta  occ. eigenvalues --  -14.72694  -7.04501  -0.95995  -0.57767  -0.53825
  Beta  occ. eigenvalues --   -0.53825  -0.40169  -0.40169  -0.34035
  Beta virt. eigenvalues --   -0.02423   0.02701   0.04737   0.04737   0.04852
  Beta virt. eigenvalues --    0.08554   0.10582   0.10582   0.16707   0.18065
  Beta virt. eigenvalues --    0.18065   0.18926   0.18926   0.21813   0.27372

 Mulliken charges and spin densities:
               1          2
     1  B    0.023960   0.000000
     2  N   -0.730681  -0.000000
     3  H    0.244266   0.000000
     4  H   -0.008693   0.000000
     5  H    0.244267   0.000000
     6  H    0.244267   0.000000
     7  H   -0.008694   0.000000
     8  H   -0.008693  -0.000000
 Sum of Mulliken charges =  -0.00000   0.00000

 Dipole moment (field-independent basis, Debye):
    X=              1.8788    Y=              0.0001    Z=              0.0000  Tot=              1.8788
 Quadrupole moment (field-independent basis, Debye-Ang):
   XX=             -9.2190   YY=            -15.6192   ZZ=            -15.6193
   XY=              0.0001   XZ=             -0.0000   YZ=              0.0000

 Normal termination of Gaussian 16 at Mon Apr 21 17:35:50 2025.
