 Gaussian 16, Revision A.03,
 Gaussian 16:  ES64L-G16RevA.03 25-Dec-2016

 ---------------------------------------------------------
 #p opt UM062X/6-311+G** nosymm int=superfine SCF=NoVarAcc
 ---------------------------------------------------------

 -------------------
 Title Card Required
 -------------------
 Symbolic Z-matrix:
 Charge =  1 Multiplicity = 2

 SCF Done:  E(UM062X) =  -76.5831012788     A.U. after   39 cycles
 SCF Done:  E(UM062X) =  -76.5834462432     A.U. after   32 cycles
 Optimization completed.
    -- Stationary point found.

                          Input orientation:
 ---------------------------------------------------------------------
 Center     Atomic      Atomic             Coordinates (Angstroms)
 Number     Number       Type             X           Y           Z
 ---------------------------------------------------------------------
      1          6           0       -3.882160    0.000000    0.000000
      2          6           0        3.882160    0.000000    0.000000
      3          1           0       -4.999963   -0.000000   -0.000000
      4          1           0        4.999962   -0.000000   -0.000000
 ---------------------------------------------------------------------

 Alpha  occ. eigenvalues --  -10.92157 -10.92157  -0.95929  -0.95920  -0.61021
 Alpha  occ. eigenvalues --   -0.61015  -0.43919
 Alpha virt. eigenvalues --   -0.40288  -0.30899  -0.30897  -0.09777  -0.09713
 Alpha virt. eigenvalues --   -0.06340  -0.04782  -0.04623  -0.04374  -0.04198
 Alpha virt. eigenvalues --   -0.02927   0.01468   0.01926   0.29337   0.30496

  Beta  occ. eigenvalues --  -10.91742 -10.91742  -0.93560  -0.93560  -0.59630
  Beta  occ. eigenvalues --   -0.59629
  Beta virt. eigenvalues --   -0.29012  -0.29010  -0.27378  -0.27376  -0.09995
  Beta virt. eigenvalues --   -0.09961  -0.06234  -0.03993  -0.03577  -0.03068
  Beta virt. eigenvalues --   -0.02956  -0.02654   0.03227   0.03783   0.28636

 Mulliken charges and spin densities:
               1          2
     1  C    0.295365   0.515627
     2  C    0.295365   0.515627
     3  H    0.204635  -0.015627
     4  H    0.204635  -0.015627
 Sum of Mulliken charges =   1.00000   1.00000

 Dipole moment (field-independent basis, Debye):
    X=             -0.0000    Y=             -0.0000    Z=             -0.0000  Tot=              0.0000
 Quadrupole moment (field-independent basis, Debye-Ang):
   XX=             92.1959   YY=            -10.8496   ZZ=            -10.0686
   XY=              0.0000   XZ=             -0.0000   YZ=              0.9104

 Normal termination of Gaussian 16 at Tue Dec  3 17:43:38 2024.
