 Gaussian 16, Revision A.03,
 Gaussian 16:  ES64L-G16RevA.03 25-Dec-2016

 --------------------------------------------
 #p opt UM062X/6-311+G** nosymm int=superfine
 --------------------------------------------

 -------------------
 Title Card Required
 -------------------
 Symbolic Z-matrix:
 Charge =  0 Multiplicity = 1

 SCF Done:  E(UM062X) =  -579.958823527     A.U. after    8 cycles
 SCF Done:  E(UM062X) =  -579.958827499     A.U. after    8 cycles
 Optimization completed.
    -- Stationary point found.

                          Input orientation:
 ---------------------------------------------------------------------
 Center     Atomic      Atomic             Coordinates (Angstroms)
 Number     Number       Type             X           Y           Z
 ---------------------------------------------------------------------
      1         14           0       -1.128705    0.000000    0.000000
      2         14           0        1.128705    0.000000    0.000000
      3          1           0       -2.589652   -0.000057    0.000000
      4          1           0        2.589652    0.000007    0.000000
 ---------------------------------------------------------------------

 Alpha  occ. eigenvalues --  -67.04442 -67.04442  -5.58929  -5.58918  -3.90117
 Alpha  occ. eigenvalues --   -3.90117  -3.90106  -3.90106  -3.89941  -3.89864
 Alpha  occ. eigenvalues --   -0.61474  -0.55782  -0.43094  -0.24370  -0.24370
 Alpha virt. eigenvalues --   -0.08647  -0.05390  -0.05390   0.01557   0.02244
 Alpha virt. eigenvalues --    0.03700   0.05099   0.05099   0.07074   0.07074
 Alpha virt. eigenvalues --    0.12190   0.14378   0.24378   0.28431   0.29717

  Beta  occ. eigenvalues --  -67.04442 -67.04442  -5.58929  -5.58918  -3.90117
  Beta  occ. eigenvalues --   -3.90117  -3.90106  -3.90106  -3.89941  -3.89864
  Beta  occ. eigenvalues --   -0.61474  -0.55782  -0.43094  -0.24370  -0.24370
  Beta virt. eigenvalues --   -0.08647  -0.05390  -0.05390   0.01557   0.02244
  Beta virt. eigenvalues --    0.03700   0.05099   0.05099   0.07074   0.07074
  Beta virt. eigenvalues --    0.12190   0.14378   0.24378   0.28431   0.29717

 Mulliken charges and spin densities:
               1          2
     1  Si  -0.042525   0.000000
     2  Si  -0.042525  -0.000000
     3  H    0.042525   0.000000
     4  H    0.042525  -0.000000
 Sum of Mulliken charges =  -0.00000  -0.00000

 Dipole moment (field-independent basis, Debye):
    X=              0.0000    Y=             -0.0000    Z=              0.0000  Tot=              0.0000
 Quadrupole moment (field-independent basis, Debye-Ang):
   XX=            -19.4920   YY=            -31.7546   ZZ=            -31.7546
   XY=              0.0002   XZ=             -0.0000   YZ=             -0.0000

 Normal termination of Gaussian 16 at Mon Apr 21 21:23:22 2025.
