 Gaussian 16, Revision A.03,
 Gaussian 16:  ES64L-G16RevA.03 25-Dec-2016

 --------------------------------------------
 #p opt UM062X/6-311+G** nosymm int=superfine
 --------------------------------------------

 -------------------
 Title Card Required
 -------------------
 Symbolic Z-matrix:
 Charge =  1 Multiplicity = 2

 SCF Done:  E(UM062X) =  -1615.46338491     A.U. after   29 cycles
 SCF Done:  E(UM062X) =  -1615.50161305     A.U. after   27 cycles
 SCF Done:  E(UM062X) =  -1615.53025857     A.U. after   28 cycles
 SCF Done:  E(UM062X) =  -1615.53092238     A.U. after   28 cycles
 SCF Done:  E(UM062X) =  -1615.53062243     A.U. after   27 cycles
 SCF Done:  E(UM062X) =  -1615.52986361     A.U. after   30 cycles
 SCF Done:  E(UM062X) =  -1615.52938765     A.U. after   33 cycles
 SCF Done:  E(UM062X) =  -1615.52988175     A.U. after   34 cycles
 SCF Done:  E(UM062X) =  -1615.53097512     A.U. after   22 cycles
 SCF Done:  E(UM062X) =  -1615.53112304     A.U. after   24 cycles
 SCF Done:  E(UM062X) =  -1615.53846145     A.U. after   20 cycles
 SCF Done:  E(UM062X) =  -1615.53845682     A.U. after   22 cycles
 SCF Done:  E(UM062X) =  -1615.53847802     A.U. after   21 cycles
 SCF Done:  E(UM062X) =  -1615.53849651     A.U. after   19 cycles
 SCF Done:  E(UM062X) =  -1615.53850125     A.U. after   18 cycles
 SCF Done:  E(UM062X) =  -1615.53850303     A.U. after   18 cycles
 SCF Done:  E(UM062X) =  -1615.53850443     A.U. after   18 cycles
 SCF Done:  E(UM062X) =  -1615.53850514     A.U. after   17 cycles
 SCF Done:  E(UM062X) =  -1615.53850574     A.U. after   18 cycles
 SCF Done:  E(UM062X) =  -1615.53850600     A.U. after   17 cycles
 Optimization completed.
    -- Stationary point found.

                          Input orientation:
 ---------------------------------------------------------------------
 Center     Atomic      Atomic             Coordinates (Angstroms)
 Number     Number       Type             X           Y           Z
 ---------------------------------------------------------------------
      1          6           0       -1.997270   -0.000000    0.000000
      2          6           0        1.997270   -0.000000   -0.000000
      3          6           0       -0.013039   -1.904916   -0.033975
      4          6           0       -0.016889   -3.318710   -0.038822
      5          6           0       -1.078213   -4.176009    0.383732
      6          6           0       -1.374160   -1.373711    0.245709
      7          6           0        0.605218   -5.562211   -0.300358
      8          1           0        1.204792   -6.424835   -0.554301
      9          6           0       -1.489573    1.046317    0.830336
     10          6           0       -0.636634   -5.566962    0.222213
     11          1           0       -1.231323   -6.431248    0.480421
     12          6           0        1.042937   -4.168899   -0.467042
     13          6           0        1.343051   -1.349352   -0.325501
     14          6           0        1.973431    2.467644   -0.718279
     15          6           0       -2.908720    0.052221   -1.102934
     16          6           0       -0.944435    3.370990    1.391687
     17          1           0       -1.124214    4.428942    1.242559
     18          6           0       -2.245076   -3.628304    0.826281
     19          1           0       -3.073222   -4.221525    1.194355
     20          6           0       -3.799588    1.137453   -1.403090
     21          6           0        2.312398   -2.208414   -0.812051
     22          1           0        3.278860   -1.768925   -1.034327
     23          6           0        2.751197    0.002848    1.240413
     24          6           0        3.583760    1.063453    1.706387
     25          6           0        2.192552   -3.610846   -0.934664
     26          1           0        3.017662   -4.199839   -1.317316
     27          6           0       -1.749988    2.454354    0.685788
     28          6           0       -0.538397    0.671358    1.829868
     29          1           0       -0.380505   -0.376596    2.039972
     30          6           0        2.635087   -1.126526    2.096099
     31          1           0        2.008278   -1.957275    1.804130
     32          6           0        0.035478    2.960000    2.266117
     33          1           0        0.646742    3.691639    2.780947
     34          6           0       -2.373233   -2.233050    0.684452
     35          1           0       -3.349247   -1.801958    0.881739
     36          6           0       -4.776407    0.956115   -2.410371
     37          1           0       -5.476715    1.762090   -2.592983
     38          6           0        1.542865    1.107409   -0.809027
     39          6           0       -2.829812    3.030564   -0.045597
     40          1           0       -2.943989    4.100139    0.101340
     41          6           0       -4.827645   -0.178012   -3.181397
     42          1           0       -5.578999   -0.275134   -3.955771
     43          6           0       -3.754562    2.453043   -0.851216
     44          1           0       -4.526163    3.117769   -1.225800
     45          6           0        4.258889    0.926187    2.928876
     46          1           0        4.906705    1.735728    3.245858
     47          6           0        0.204893    1.591227    2.523672
     48          1           0        0.934174    1.253824    3.251340
     49          6           0       -2.958209   -1.082822   -1.974282
     50          1           0       -2.240216   -1.878985   -1.844667
     51          6           0        4.119740   -0.187032    3.738087
     52          1           0        4.651580   -0.253037    4.678807
     53          6           0        1.323006    3.451084   -1.476594
     54          1           0        1.670675    4.474436   -1.385384
     55          6           0        3.285923   -1.218291    3.311582
     56          1           0        3.149453   -2.102551    3.922337
     57          6           0        0.280170    3.162726   -2.341108
     58          1           0       -0.198529    3.951906   -2.907684
     59          6           0        3.117805    2.930308    0.049210
     60          1           0        3.452835    3.926957   -0.223136
     61          6           0       -3.873578   -1.191097   -2.987772
     62          1           0       -3.862461   -2.060939   -3.632224
     63          6           0        3.809178    2.331595    1.029197
     64          1           0        4.631471    2.907322    1.443295
     65          6           0        0.539848    0.839337   -1.784094
     66          1           0        0.252049   -0.185987   -1.972216
     67          6           0       -0.088345    1.829083   -2.513744
     68          1           0       -0.853997    1.557361   -3.232589
 ---------------------------------------------------------------------

 Alpha  occ. eigenvalues --  -10.74146 -10.70931 -10.70754 -10.70483 -10.70355
 Alpha  occ. eigenvalues --  -10.69005 -10.68991 -10.68956 -10.68871 -10.68130
 Alpha  occ. eigenvalues --  -10.67908 -10.67736 -10.67544 -10.67325 -10.67249
 Alpha  occ. eigenvalues --  -10.67231 -10.67132 -10.66985 -10.66663 -10.66285
 Alpha  occ. eigenvalues --  -10.66219 -10.66069 -10.65629 -10.65530 -10.65465
 Alpha  occ. eigenvalues --  -10.65292 -10.64921 -10.64659 -10.64451 -10.64335
 Alpha  occ. eigenvalues --  -10.64016 -10.64007 -10.63910 -10.63903 -10.63836
 Alpha  occ. eigenvalues --  -10.63774 -10.63739 -10.63688 -10.63497 -10.63395
 Alpha  occ. eigenvalues --  -10.63330 -10.63237  -1.13009  -1.10726  -1.09953
 Alpha  occ. eigenvalues --   -1.08231  -1.06354  -1.05892  -1.04275  -1.03891
 Alpha  occ. eigenvalues --   -1.01801  -1.00000  -0.99757  -0.99022  -0.98337
 Alpha  occ. eigenvalues --   -0.95483  -0.95248  -0.94980  -0.94277  -0.93595
 Alpha  occ. eigenvalues --   -0.91663  -0.90911  -0.88525  -0.86958  -0.85539
 Alpha  occ. eigenvalues --   -0.83528  -0.82370  -0.81687  -0.81317  -0.81046
 Alpha  occ. eigenvalues --   -0.78938  -0.77929  -0.77800  -0.77601  -0.75639
 Alpha  occ. eigenvalues --   -0.74945  -0.73667  -0.73048  -0.71337  -0.69622
 Alpha  occ. eigenvalues --   -0.69233  -0.68462  -0.68358  -0.67587  -0.67132
 Alpha  occ. eigenvalues --   -0.66423  -0.65790  -0.64868  -0.64309  -0.63950
 Alpha  occ. eigenvalues --   -0.63734  -0.63027  -0.62452  -0.62336  -0.61841
 Alpha  occ. eigenvalues --   -0.61294  -0.60534  -0.60357  -0.59234  -0.59082
 Alpha  occ. eigenvalues --   -0.58698  -0.58660  -0.58383  -0.57862  -0.57667
 Alpha  occ. eigenvalues --   -0.57603  -0.57157  -0.55981  -0.55710  -0.54744
 Alpha  occ. eigenvalues --   -0.54471  -0.53964  -0.53846  -0.53415  -0.53246
 Alpha  occ. eigenvalues --   -0.52658  -0.51782  -0.51219  -0.51083  -0.50860
 Alpha  occ. eigenvalues --   -0.50396  -0.50061  -0.49968  -0.48984  -0.48689
 Alpha  occ. eigenvalues --   -0.47981  -0.47483  -0.46907  -0.46413  -0.44594
 Alpha  occ. eigenvalues --   -0.43292  -0.41788  -0.41110  -0.40096  -0.39580
 Alpha  occ. eigenvalues --   -0.38215  -0.37211  -0.36653  -0.29425
 Alpha virt. eigenvalues --   -0.22011  -0.17451  -0.15475  -0.12642  -0.10820
 Alpha virt. eigenvalues --   -0.10076  -0.09477  -0.08728  -0.07774  -0.07653
 Alpha virt. eigenvalues --   -0.07425  -0.06873  -0.06809  -0.06179  -0.05946

  Beta  occ. eigenvalues --  -10.74142 -10.70930 -10.70753 -10.70479 -10.70356
  Beta  occ. eigenvalues --  -10.68999 -10.68989 -10.68942 -10.68866 -10.68129
  Beta  occ. eigenvalues --  -10.67908 -10.67735 -10.67544 -10.67324 -10.67273
  Beta  occ. eigenvalues --  -10.67248 -10.67130 -10.66661 -10.66600 -10.66309
  Beta  occ. eigenvalues --  -10.66284 -10.66150 -10.65629 -10.65531 -10.65376
  Beta  occ. eigenvalues --  -10.65213 -10.64915 -10.64654 -10.64454 -10.64300
  Beta  occ. eigenvalues --  -10.64008 -10.64001 -10.63917 -10.63892 -10.63780
  Beta  occ. eigenvalues --  -10.63767 -10.63736 -10.63663 -10.63439 -10.63425
  Beta  occ. eigenvalues --  -10.63343 -10.63177  -1.12992  -1.10686  -1.09940
  Beta  occ. eigenvalues --   -1.07883  -1.06335  -1.05707  -1.04258  -1.03706
  Beta  occ. eigenvalues --   -1.01755  -0.99812  -0.99718  -0.98569  -0.98310
  Beta  occ. eigenvalues --   -0.95304  -0.95229  -0.94926  -0.94095  -0.93563
  Beta  occ. eigenvalues --   -0.91536  -0.90760  -0.88502  -0.86949  -0.84897
  Beta  occ. eigenvalues --   -0.83428  -0.82246  -0.81604  -0.81287  -0.80977
  Beta  occ. eigenvalues --   -0.78828  -0.77898  -0.77735  -0.77463  -0.75562
  Beta  occ. eigenvalues --   -0.74820  -0.73366  -0.72867  -0.71300  -0.69600
  Beta  occ. eigenvalues --   -0.69186  -0.68417  -0.68300  -0.67353  -0.67090
  Beta  occ. eigenvalues --   -0.66358  -0.65711  -0.64644  -0.64242  -0.63901
  Beta  occ. eigenvalues --   -0.63560  -0.62753  -0.62431  -0.62259  -0.61822
  Beta  occ. eigenvalues --   -0.61184  -0.60430  -0.60284  -0.59164  -0.58999
  Beta  occ. eigenvalues --   -0.58551  -0.58483  -0.58190  -0.57742  -0.57585
  Beta  occ. eigenvalues --   -0.57521  -0.57077  -0.55896  -0.55275  -0.54636
  Beta  occ. eigenvalues --   -0.54373  -0.53927  -0.53583  -0.53184  -0.52987
  Beta  occ. eigenvalues --   -0.52624  -0.51736  -0.51106  -0.50968  -0.50643
  Beta  occ. eigenvalues --   -0.50232  -0.50010  -0.49795  -0.48797  -0.48592
  Beta  occ. eigenvalues --   -0.47797  -0.47307  -0.46340  -0.45648  -0.43669
  Beta  occ. eigenvalues --   -0.42900  -0.41207  -0.40580  -0.39903  -0.39086
  Beta  occ. eigenvalues --   -0.38160  -0.36994  -0.35849
  Beta virt. eigenvalues --   -0.21920  -0.17537  -0.16592  -0.15236  -0.12707
  Beta virt. eigenvalues --   -0.10778  -0.09978  -0.09421  -0.08739  -0.07708
  Beta virt. eigenvalues --   -0.07375  -0.07013  -0.06750  -0.06486  -0.06145

 Mulliken charges and spin densities:
               1          2
     1  C    0.338296  -0.006095
     2  C    0.208385   0.572620
     3  C    0.427843   0.015297
     4  C    0.107742  -0.008757
     5  C    0.134283   0.002087
     6  C    0.011547  -0.005501
     7  C   -0.268849   0.001244
     8  H    0.177111   0.000053
     9  C    0.008926   0.004084
    10  C   -0.285367   0.005041
    11  H    0.175023  -0.000147
    12  C    0.144372   0.021426
    13  C    0.057867  -0.110412
    14  C    0.566368   0.163626
    15  C    0.159966   0.000345
    16  C   -0.346459   0.015075
    17  H    0.163747  -0.000509
    18  C   -0.317219  -0.001199
    19  H    0.172206   0.000102
    20  C    0.645968   0.004827
    21  C   -0.453146   0.053813
    22  H    0.173911  -0.001165
    23  C    0.160153  -0.093506
    24  C    0.707237   0.153884
    25  C   -0.285305   0.020129
    26  H    0.172355   0.000265
    27  C    0.699129   0.029353
    28  C   -0.371928  -0.017734
    29  H    0.216726   0.002503
    30  C   -0.301524   0.109121
    31  H    0.198464  -0.005053
    32  C   -0.143819   0.000471
    33  H    0.183593  -0.000062
    34  C   -0.653526  -0.001687
    35  H    0.172114  -0.000074
    36  C   -0.119322   0.003250
    37  H    0.182880  -0.000040
    38  C    0.042552  -0.116473
    39  C   -0.569720  -0.012545
    40  H    0.179670   0.000346
    41  C   -0.309997   0.003290
    42  H    0.194896  -0.000142
    43  C   -0.489865   0.002508
    44  H    0.181367  -0.000645
    45  C   -0.206119  -0.073696
    46  H    0.165452   0.001895
    47  C   -0.037135  -0.009396
    48  H    0.194993   0.000228
    49  C   -0.180184   0.001978
    50  H    0.221055  -0.000125
    51  C   -0.369598   0.142230
    52  H    0.175390  -0.006789
    53  C   -0.172557  -0.096750
    54  H    0.157388   0.002281
    55  C   -0.279432  -0.054702
    56  H    0.166357   0.001886
    57  C   -0.337588   0.162970
    58  H    0.165886  -0.008173
    59  C   -0.635503   0.015098
    60  H    0.168418  -0.000742
    61  C   -0.159895   0.000792
    62  H    0.184778  -0.000119
    63  C   -0.496358   0.021899
    64  H    0.168446  -0.002262
    65  C   -0.004802   0.175182
    66  H    0.172334  -0.010066
    67  C   -0.275137  -0.069373
    68  H    0.165156   0.002746
 Sum of Mulliken charges =   1.00000   1.00000

 Dipole moment (field-independent basis, Debye):
    X=             -6.1285    Y=              1.8852    Z=             -0.5143  Tot=              6.4325
 Quadrupole moment (field-independent basis, Debye-Ang):
   XX=           -175.9786   YY=           -172.6340   ZZ=           -210.2382
   XY=             -3.6534   XZ=             32.2374   YZ=              4.2435

 Normal termination of Gaussian 16 at Fri Nov 22 12:22:00 2024.
