 Gaussian 16, Revision A.03,
 Gaussian 16:  ES64L-G16RevA.03 25-Dec-2016

 --------------------------------------------
 #p opt UM062X/6-311+G** nosymm int=superfine
 --------------------------------------------

 -------------------
 Title Card Required
 -------------------
 Symbolic Z-matrix:
 Charge =  0 Multiplicity = 1

 SCF Done:  E(UM062X) =  -110.154422594     A.U. after   13 cycles
 SCF Done:  E(UM062X) =  -110.155239457     A.U. after   15 cycles
 SCF Done:  E(UM062X) =  -110.157382531     A.U. after   15 cycles
 SCF Done:  E(UM062X) =  -110.158832253     A.U. after   20 cycles
 SCF Done:  E(UM062X) =  -110.158964156     A.U. after   23 cycles
 SCF Done:  E(UM062X) =  -110.159003550     A.U. after   12 cycles
 SCF Done:  E(UM062X) =  -110.159003579     A.U. after   14 cycles
 Optimization completed.
    -- Stationary point found.

                          Input orientation:
 ---------------------------------------------------------------------
 Center     Atomic      Atomic             Coordinates (Angstroms)
 Number     Number       Type             X           Y           Z
 ---------------------------------------------------------------------
      1          7           0       -1.940428    0.000000    0.000000
      2          7           0        1.940428    0.000000    0.000000
      3          1           0       -1.701009   -1.011455   -0.000000
      4          1           0        1.701009    1.011455   -0.000000
 ---------------------------------------------------------------------

 Alpha  occ. eigenvalues --  -14.88255 -14.88253  -0.92697  -0.92368  -0.48981
 Alpha  occ. eigenvalues --   -0.48838  -0.30269  -0.29539
 Alpha virt. eigenvalues --   -0.22052  -0.21184   0.04746   0.06822   0.10848
 Alpha virt. eigenvalues --    0.11330   0.12878   0.14228   0.15074   0.17172
 Alpha virt. eigenvalues --    0.18437   0.22739   0.53642   0.54328   0.74637

  Beta  occ. eigenvalues --  -14.88255 -14.88253  -0.92697  -0.92368  -0.48981
  Beta  occ. eigenvalues --   -0.48838  -0.30269  -0.29539
  Beta virt. eigenvalues --   -0.22052  -0.21184   0.04746   0.06822   0.10848
  Beta virt. eigenvalues --    0.11330   0.12878   0.14228   0.15074   0.17172
  Beta virt. eigenvalues --    0.18437   0.22739   0.53642   0.54328   0.74637

 Mulliken charges and spin densities:
               1          2
     1  N   -0.232972  -0.000000
     2  N   -0.232972   0.000000
     3  H    0.232972  -0.000000
     4  H    0.232972  -0.000000
 Sum of Mulliken charges =   0.00000   0.00000

 Dipole moment (field-independent basis, Debye):
    X=             -0.0000    Y=             -0.0000    Z=             -0.0000  Tot=              0.0000
 Quadrupole moment (field-independent basis, Debye-Ang):
   XX=            -15.4989   YY=            -11.3333   ZZ=            -14.1740
   XY=              6.3809   XZ=              0.0000   YZ=              0.0000

 Normal termination of Gaussian 16 at Thu May 15 15:46:11 2025.
