 Gaussian 16, Revision A.03,
 Gaussian 16:  ES64L-G16RevA.03 25-Dec-2016

 --------------------------------------------
 #p opt UM062X/6-311+G** nosymm int=superfine
 --------------------------------------------

 -------------------
 Title Card Required
 -------------------
 Symbolic Z-matrix:
 Charge =  0 Multiplicity = 2

 SCF Done:  E(UM062X) =  -398.729564546     A.U. after   11 cycles
 SCF Done:  E(UM062X) =  -398.729980917     A.U. after    9 cycles
 SCF Done:  E(UM062X) =  -398.729982669     A.U. after    8 cycles
 Optimization completed.
    -- Stationary point found.

                          Input orientation:
 ---------------------------------------------------------------------
 Center     Atomic      Atomic             Coordinates (Angstroms)
 Number     Number       Type             X           Y           Z
 ---------------------------------------------------------------------
      1         16           0        1.100978   -0.000011   -0.000000
      2          1           0        2.445423   -0.001006   -0.000008
 ---------------------------------------------------------------------

 Alpha  occ. eigenvalues --  -89.92823  -8.28933  -6.22142  -6.20872  -6.20317
 Alpha  occ. eigenvalues --   -0.82553  -0.47405  -0.37635  -0.33547
 Alpha virt. eigenvalues --    0.03072   0.05389   0.05697   0.06079   0.08418
 Alpha virt. eigenvalues --    0.32502   0.35091   0.35801   0.39775   0.58507
 Alpha virt. eigenvalues --    0.70779   0.73793   0.79096   0.79227   0.98683

  Beta  occ. eigenvalues --  -89.91899  -8.28690  -6.20577  -6.20006  -6.19710
  Beta  occ. eigenvalues --   -0.77586  -0.45735  -0.31432
  Beta virt. eigenvalues --   -0.13305   0.02020   0.05096   0.06138   0.06229
  Beta virt. eigenvalues --    0.08636   0.31767   0.32845   0.35410   0.40475
  Beta virt. eigenvalues --    0.60299   0.75823   0.75955   0.84425   0.86774

 Mulliken charges and spin densities:
               1          2
     1  S   -0.070620   1.028450
     2  H    0.070620  -0.028450
 Sum of Mulliken charges =  -0.00000   1.00000

 Dipole moment (field-independent basis, Debye):
    X=              1.0863    Y=             -0.0008    Z=             -0.0000  Tot=              1.0863
 Quadrupole moment (field-independent basis, Debye-Ang):
   XX=             -9.6121   YY=            -12.9812   ZZ=            -16.0352
   XY=             -0.0016   XZ=             -0.0000   YZ=              0.0034

 1\1\GINC-NODE02\FOpt\UM062X\6-311+G(d,p)\H1S1(2)\SZHAO\16-Apr-2025\0\\
 #p opt UM062X/6-311+G** nosymm int=superfine\\Title Card Required\\0,2
 \S,1.1009777533,-0.0000110794,-0.0000000867\H,2.4454231967,-0.00100603
 06,-0.0000078733\\Version=ES64L-G16RevA.03\HF=-398.7299827\S2=0.752993
 \S2-1=0.\S2A=0.750005\RMSD=8.509e-09\RMSF=5.949e-07\Dipole=0.427399,-0
 .0003166,-0.0000024\Quadrupole=2.4267567,-0.0780934,-2.3486633,-0.0012
 05,-0.0000206,0.0025406\PG=C*V [C*(H1S1)]\\@

 Normal termination of Gaussian 16 at Wed Apr 16 08:48:33 2025.
