 Gaussian 16, Revision A.03,
 Gaussian 16:  ES64L-G16RevA.03 25-Dec-2016

 ---------------------------------------------------
 #p UM062X/6-311+G** force int=superfine pop=saveNBO
 ---------------------------------------------------

 -------------------
 Title Card Required
 -------------------
 Symbolic Z-matrix:
 Charge =  0 Multiplicity = 1

                         Standard orientation:
 ---------------------------------------------------------------------
 Center     Atomic      Atomic             Coordinates (Angstroms)
 Number     Number       Type             X           Y           Z
 ---------------------------------------------------------------------
      1         15           0        0.000000    0.000000    1.088495
      2         15           0        0.000000    0.000000   -1.088495
 ---------------------------------------------------------------------

 SCF Done:  E(UM062X) =  -682.617591265     A.U. after    9 cycles

 The electronic state is 1-SGG.
 Alpha  occ. eigenvalues --  -78.08035 -78.08035  -6.89961  -6.89950  -5.01375
 Alpha  occ. eigenvalues --   -5.01375  -5.01371  -5.01371  -5.01199  -5.01160
 Alpha  occ. eigenvalues --   -0.72442  -0.55863  -0.34463  -0.31003  -0.31003
 Alpha virt. eigenvalues --   -0.09759  -0.09759   0.01005   0.02591   0.04242
 Alpha virt. eigenvalues --    0.04242   0.05860   0.06789   0.06931   0.06931
 Alpha virt. eigenvalues --    0.12830   0.26857   0.31282   0.31282   0.32248

  Beta  occ. eigenvalues --  -78.08035 -78.08035  -6.89961  -6.89950  -5.01375
  Beta  occ. eigenvalues --   -5.01375  -5.01371  -5.01371  -5.01199  -5.01160
  Beta  occ. eigenvalues --   -0.72442  -0.55863  -0.34463  -0.31003  -0.31003
  Beta virt. eigenvalues --   -0.09759  -0.09759   0.01005   0.02591   0.04242
  Beta virt. eigenvalues --    0.04242   0.05860   0.06789   0.06931   0.06931
  Beta virt. eigenvalues --    0.12830   0.26857   0.31282   0.31282   0.32248

 Mulliken charges and spin densities:
               1          2
     1  P   -0.000000   0.000000
     2  P   -0.000000   0.000000
 Sum of Mulliken charges =  -0.00000   0.00000

 Dipole moment (field-independent basis, Debye):
    X=              0.0000    Y=             -0.0000    Z=              0.0000  Tot=              0.0000
 Quadrupole moment (field-independent basis, Debye-Ang):
   XX=            -27.4196   YY=            -27.4196   ZZ=            -26.1121
   XY=              0.0000   XZ=             -0.0000   YZ=              0.0000

 Summary of Natural Population Analysis:

                                       Natural Population
                Natural  -----------------------------------------------
    Atom  No    Charge         Core      Valence    Rydberg      Total
 -----------------------------------------------------------------------
      P    1    0.00000      4.99982     2.48729    0.01289     7.50000
      P    2    0.00000      4.99982     2.48729    0.01289     7.50000
 =======================================================================
   * Total *    0.00000      9.99963     4.97458    0.02579    15.00000

 Normal termination of Gaussian 16 at Mon Apr 21 21:20:00 2025.
