 Gaussian 16, Revision A.03,
 Gaussian 16:  ES64L-G16RevA.03 25-Dec-2016

 ---------------------------------------
 #p UM062X/6-311+G** force int=superfine
 ---------------------------------------

 -------------------
 Title Card Required
 -------------------
 Symbolic Z-matrix:
 Charge =  0 Multiplicity = 1

                         Standard orientation:
 ---------------------------------------------------------------------
 Center     Atomic      Atomic             Coordinates (Angstroms)
 Number     Number       Type             X           Y           Z
 ---------------------------------------------------------------------
      1          6           0       -0.006434   -0.083435    1.088717
      2          6           0        0.006435    0.083436   -1.088717
      3          1           0        0.463697   -0.842982   -1.415179
      4          1           0       -0.601625   -0.969320    1.275471
      5          1           0        0.601623    0.969320   -1.275473
      6          1           0       -1.041462    0.182980   -1.345462
      7          1           0       -0.463696    0.842983    1.415179
      8          1           0        1.041462   -0.182981    1.345464
 ---------------------------------------------------------------------

 SCF Done:  E(UM062X) =  -79.7170123346     A.U. after    8 cycles

 The electronic state is 1-A.
 Alpha  occ. eigenvalues --  -10.55077 -10.55070  -0.78234  -0.73253  -0.48282
 Alpha  occ. eigenvalues --   -0.48282  -0.45221  -0.45221  -0.31056
 Alpha virt. eigenvalues --    0.01234   0.02408   0.05604   0.05604   0.08394
 Alpha virt. eigenvalues --    0.08394   0.08780   0.09736   0.13344   0.18172
 Alpha virt. eigenvalues --    0.18172   0.22101   0.22101   0.24349   0.26661

  Beta  occ. eigenvalues --  -10.55077 -10.55070  -0.78234  -0.73253  -0.48282
  Beta  occ. eigenvalues --   -0.48282  -0.45221  -0.45221  -0.31056
  Beta virt. eigenvalues --    0.01234   0.02408   0.05604   0.05604   0.08394
  Beta virt. eigenvalues --    0.08394   0.08780   0.09736   0.13344   0.18172
  Beta virt. eigenvalues --    0.18172   0.22101   0.22101   0.24349   0.26661

 Mulliken charges and spin densities:
               1          2
     1  C   -0.503217   0.000000
     2  C   -0.503217  -0.000000
     3  H    0.167739   0.000000
     4  H    0.167739  -0.000000
     5  H    0.167739  -0.000000
     6  H    0.167739   0.000000
     7  H    0.167739  -0.000000
     8  H    0.167739  -0.000000
 Sum of Mulliken charges =  -0.00000  -0.00000

 Dipole moment (field-independent basis, Debye):
    X=             -0.0000    Y=             -0.0000    Z=             -0.0000  Tot=              0.0000
 Quadrupole moment (field-independent basis, Debye-Ang):
   XX=            -14.8445   YY=            -14.8486   ZZ=            -15.5538
   XY=             -0.0003   XZ=              0.0042   YZ=              0.0544

 Normal termination of Gaussian 16 at Tue Nov 19 12:53:28 2024.
