 Gaussian 16, Revision A.03,
 Gaussian 16:  ES64L-G16RevA.03 25-Dec-2016

 --------------------------------------------
 #p opt UM062X/6-311+G** nosymm int=superfine
 --------------------------------------------

 -------------------
 Title Card Required
 -------------------
 Symbolic Z-matrix:
 Charge =  1 Multiplicity = 2

 SCF Done:  E(UM062X) =  -79.3211308678     A.U. after   10 cycles
 SCF Done:  E(UM062X) =  -79.3219440231     A.U. after    9 cycles
 SCF Done:  E(UM062X) =  -79.3219470309     A.U. after    8 cycles
 Optimization completed.
    -- Stationary point found.

                          Input orientation:
 ---------------------------------------------------------------------
 Center     Atomic      Atomic             Coordinates (Angstroms)
 Number     Number       Type             X           Y           Z
 ---------------------------------------------------------------------
      1          6           0       -1.854674    0.000000    0.000000
      2          6           0        1.854674    0.000000    0.000000
      3          1           0        1.886505   -0.937643    0.542684
      4          1           0       -1.884927   -0.938744   -0.540864
      5          1           0        1.885834    0.938836    0.540655
      6          1           0        1.884958   -0.001165   -1.083407
      7          1           0       -1.886554    0.937744   -0.542508
      8          1           0       -1.885814    0.000942    1.083384
 ---------------------------------------------------------------------

 Alpha  occ. eigenvalues --  -10.83982 -10.83980  -1.02540  -1.02049  -0.73530
 Alpha  occ. eigenvalues --   -0.73529  -0.73340  -0.73339  -0.48647
 Alpha virt. eigenvalues --   -0.37283  -0.13035  -0.10204  -0.09692  -0.09692
 Alpha virt. eigenvalues --   -0.06236  -0.06236  -0.04449  -0.03109  -0.00552
 Alpha virt. eigenvalues --   -0.00549   0.01299   0.01301   0.03158   0.08374

  Beta  occ. eigenvalues --  -10.83768 -10.83768  -0.99873  -0.99549  -0.73019
  Beta  occ. eigenvalues --   -0.73018  -0.72809  -0.72809
  Beta virt. eigenvalues --   -0.32784  -0.26537  -0.16098  -0.11061  -0.11060
  Beta virt. eigenvalues --   -0.10183  -0.06264  -0.06263  -0.05014  -0.02170
  Beta virt. eigenvalues --   -0.00869  -0.00866   0.01574   0.01576   0.03076

 Mulliken charges and spin densities:
               1          2
     1  C   -0.258291   0.558308
     2  C   -0.258291   0.558308
     3  H    0.252781  -0.019435
     4  H    0.252741  -0.019440
     5  H    0.252763  -0.019440
     6  H    0.252747  -0.019432
     7  H    0.252783  -0.019435
     8  H    0.252767  -0.019433
 Sum of Mulliken charges =   1.00000   1.00000

 Dipole moment (field-independent basis, Debye):
    X=             -0.0000    Y=             -0.0000    Z=             -0.0001  Tot=              0.0001
 Quadrupole moment (field-independent basis, Debye-Ang):
   XX=              5.3178   YY=            -11.1015   ZZ=            -11.1017
   XY=             -0.0017   XZ=              0.0009   YZ=              0.0000

 Normal termination of Gaussian 16 at Wed Nov 13 12:51:44 2024.
