 Gaussian 16, Revision A.03,
 Gaussian 16:  ES64L-G16RevA.03 25-Dec-2016

 --------------------------------------------
 #p opt UM062X/6-311+G** nosymm int=superfine
 --------------------------------------------

 -------------------
 Title Card Required
 -------------------
 Symbolic Z-matrix:
 Charge =  0 Multiplicity = 1

 SCF Done:  E(UM062X) =  -76.6265553466     A.U. after   10 cycles
 SCF Done:  E(UM062X) =  -76.7883725885     A.U. after    9 cycles
 SCF Done:  E(UM062X) =  -76.8529302569     A.U. after   10 cycles
 SCF Done:  E(UM062X) =  -76.8557713658     A.U. after    9 cycles
 SCF Done:  E(UM062X) =  -76.8557755100     A.U. after    7 cycles
 Optimization completed.
    -- Stationary point found.

                          Input orientation:
 ---------------------------------------------------------------------
 Center     Atomic      Atomic             Coordinates (Angstroms)
 Number     Number       Type             X           Y           Z
 ---------------------------------------------------------------------
      1          6           0       -0.430931    0.000000    0.000000
      2          6           0        0.430931    0.000000    0.000000
      3          1           0       -1.488393   -0.000000    0.000000
      4          1           0        1.488392    0.000000   -0.000000
 ---------------------------------------------------------------------

 Alpha  occ. eigenvalues --  -10.48535 -10.44071  -0.89137  -0.59349  -0.55524
 Alpha  occ. eigenvalues --   -0.44077  -0.44077
 Alpha virt. eigenvalues --    0.02932   0.03645   0.06905   0.06905   0.08111
 Alpha virt. eigenvalues --    0.08111   0.09755   0.17045   0.23055   0.24252
 Alpha virt. eigenvalues --    0.24252   0.25184   0.44156   0.48696   0.52142

  Beta  occ. eigenvalues --  -10.48535 -10.44071  -0.89137  -0.59349  -0.55524
  Beta  occ. eigenvalues --   -0.44077  -0.44077
  Beta virt. eigenvalues --    0.02932   0.03645   0.06905   0.06905   0.08111
  Beta virt. eigenvalues --    0.08111   0.09755   0.17045   0.23055   0.24252
  Beta virt. eigenvalues --    0.24252   0.25184   0.44156   0.48696   0.52142

 Mulliken charges and spin densities:
               1          2
     1  C   -0.104446  -0.000000
     2  C   -0.104446   0.000000
     3  H    0.104446  -0.000000
     4  H    0.104446  -0.000000
 Sum of Mulliken charges =  -0.00000  -0.00000

 Dipole moment (field-independent basis, Debye):
    X=             -0.0000    Y=             -0.0000    Z=             -0.0000  Tot=              0.0000
 Quadrupole moment (field-independent basis, Debye-Ang):
   XX=             -7.8523   YY=            -11.9568   ZZ=            -11.9568
   XY=              0.0000   XZ=             -0.0000   YZ=             -0.0000

 Normal termination of Gaussian 16 at Tue Dec  3 19:55:34 2024.
