 Gaussian 16, Revision A.03,
 Gaussian 16:  ES64L-G16RevA.03 25-Dec-2016

 ---------------------------------------------------
 #p UM062X/6-311+G** force int=superfine pop=saveNBO
 ---------------------------------------------------

 -------------------
 Title Card Required
 -------------------
 Symbolic Z-matrix:
 Charge =  0 Multiplicity = 1

                         Standard orientation:
 ---------------------------------------------------------------------
 Center     Atomic      Atomic             Coordinates (Angstroms)
 Number     Number       Type             X           Y           Z
 ---------------------------------------------------------------------
      1          6           0       -1.154983    0.019218    0.000014
      2         16           0        0.662384   -0.086490    0.000014
      3          1           0        0.894029    1.234518    0.000014
      4          1           0       -1.519340   -1.006715   -0.002902
      5          1           0       -1.521652    0.517966    0.894921
      6          1           0       -1.521288    0.522759   -0.892352
 ---------------------------------------------------------------------

 SCF Done:  E(UM062X) =  -438.675100244     A.U. after   10 cycles

 The electronic state is 1-A.
 Alpha  occ. eigenvalues --  -89.88935 -10.56688  -8.25549  -6.17694  -6.17473
 Alpha  occ. eigenvalues --   -6.17039  -0.87560  -0.73170  -0.51853  -0.50051
 Alpha  occ. eigenvalues --   -0.45189  -0.39129  -0.29467
 Alpha virt. eigenvalues --    0.01266   0.03285   0.04761   0.05266   0.06911
 Alpha virt. eigenvalues --    0.08164   0.08880   0.09948   0.13084   0.14422
 Alpha virt. eigenvalues --    0.17823   0.17900   0.26324   0.33255   0.34957

  Beta  occ. eigenvalues --  -89.88935 -10.56688  -8.25549  -6.17694  -6.17473
  Beta  occ. eigenvalues --   -6.17039  -0.87560  -0.73170  -0.51853  -0.50051
  Beta  occ. eigenvalues --   -0.45189  -0.39129  -0.29467
  Beta virt. eigenvalues --    0.01266   0.03285   0.04761   0.05266   0.06911
  Beta virt. eigenvalues --    0.08164   0.08880   0.09948   0.13084   0.14422
  Beta virt. eigenvalues --    0.17823   0.17900   0.26324   0.33255   0.34957

 Mulliken charges and spin densities:
               1          2
     1  C   -0.620801   0.000000
     2  S   -0.016626  -0.000000
     3  H    0.063067  -0.000000
     4  H    0.191211  -0.000000
     5  H    0.191612  -0.000000
     6  H    0.191536   0.000000
 Sum of Mulliken charges =  -0.00000  -0.00000

 Dipole moment (field-independent basis, Debye):
    X=             -1.4089    Y=              1.0041    Z=             -0.0003  Tot=              1.7301
 Quadrupole moment (field-independent basis, Debye-Ang):
   XX=            -20.4356   YY=            -19.4738   ZZ=            -22.8733
   XY=              1.5012   XZ=              0.0006   YZ=              0.0001

 Summary of Natural Population Analysis:

                                       Natural Population
                Natural  -----------------------------------------------
    Atom  No    Charge         Core      Valence    Rydberg      Total
 -----------------------------------------------------------------------
      C    1   -0.35600      0.99966     2.35243    0.00390     3.35600
      S    2   -0.02233      4.99973     3.00481    0.01779     8.02233
      H    3    0.05865      0.00000     0.43858    0.00277     0.44135
      H    4    0.11031      0.00000     0.38898    0.00071     0.38969
      H    5    0.10468      0.00000     0.39449    0.00083     0.39532
      H    6    0.10470      0.00000     0.39447    0.00083     0.39530
 =======================================================================
   * Total *   -0.00000      5.99940     6.97377    0.02683    13.00000

 1\1\GINC-NODE01\Force\UM062X\6-311+G(d,p)\C1H4S1\SZHAO\16-Apr-2025\0\\
 #p UM062X/6-311+G** force int=superfine pop=saveNBO\\Title Card Requir
 ed\\0,1\C,-0.91021951,0.,0.\S,0.91021951,0.,0.\H,1.06476646,-1.3322296
 3,0.\H,-1.21438916,1.0453588,0.00291649\H,-1.30523025,-0.47661502,-0.8
 9490684\H,-1.30514506,-0.48142108,0.892366\\Version=ES64L-G16RevA.03\S
 tate=1-A\HF=-438.6751002\S2=0.\S2-1=0.\S2A=0.\RMSD=8.728e-09\RMSF=6.94
 0e-05\Dipole=-0.5763139,-0.362203,0.0001144\Quadrupole=0.2387705,1.207
 8441,-1.4466146,-1.0670913,-0.0004697,0.000082\PG=C01 [X(C1H4S1)]\\@

 Normal termination of Gaussian 16 at Wed Apr 16 04:12:40 2025.
