 Gaussian 16, Revision A.03,
 Gaussian 16:  ES64L-G16RevA.03 25-Dec-2016

 --------------------------------------------
 #p opt UM062X/6-311+G** nosymm int=superfine
 --------------------------------------------

 -------------------
 Title Card Required
 -------------------
 Symbolic Z-matrix:
 Charge =  1 Multiplicity = 2

 SCF Done:  E(UM062X) =  -79.3402472944     A.U. after   10 cycles
 SCF Done:  E(UM062X) =  -79.3402856713     A.U. after    8 cycles
 Optimization completed.
    -- Stationary point found.

                          Input orientation:
 ---------------------------------------------------------------------
 Center     Atomic      Atomic             Coordinates (Angstroms)
 Number     Number       Type             X           Y           Z
 ---------------------------------------------------------------------
      1          6           0       -1.498006    0.000000    0.000000
      2          6           0        1.498006    0.000000    0.000000
      3          1           0        1.550358   -0.937193    0.542417
      4          1           0       -1.549094   -0.938306   -0.540610
      5          1           0        1.549829    0.938394    0.540388
      6          1           0        1.549061   -0.001156   -1.082902
      7          1           0       -1.550392    0.937283   -0.542259
      8          1           0       -1.549745    0.000930    1.082870
 ---------------------------------------------------------------------

 Alpha  occ. eigenvalues --  -10.85111 -10.85108  -1.04257  -1.02606  -0.74863
 Alpha  occ. eigenvalues --   -0.74862  -0.74058  -0.74058  -0.52967
 Alpha virt. eigenvalues --   -0.35152  -0.14179  -0.10318  -0.10318  -0.10140
 Alpha virt. eigenvalues --   -0.06225  -0.06225  -0.05409  -0.03232  -0.02324
 Alpha virt. eigenvalues --   -0.02322   0.01365   0.01367   0.05077   0.07604

  Beta  occ. eigenvalues --  -10.84913 -10.84913  -1.01339  -1.00212  -0.74302
  Beta  occ. eigenvalues --   -0.74301  -0.73552  -0.73551
  Beta virt. eigenvalues --   -0.32707  -0.25365  -0.15432  -0.11128  -0.11127
  Beta virt. eigenvalues --   -0.09913  -0.06450  -0.06450  -0.05538  -0.02542
  Beta virt. eigenvalues --   -0.02540  -0.02377   0.01685   0.01687   0.05989

 Mulliken charges and spin densities:
               1          2
     1  C   -0.273442   0.568836
     2  C   -0.273443   0.568838
     3  H    0.257833  -0.022953
     4  H    0.257784  -0.022951
     5  H    0.257812  -0.022952
     6  H    0.257797  -0.022932
     7  H    0.257834  -0.022953
     8  H    0.257824  -0.022933
 Sum of Mulliken charges =   1.00000   1.00000

 Dipole moment (field-independent basis, Debye):
    X=             -0.0000    Y=             -0.0000    Z=             -0.0001  Tot=              0.0001
 Quadrupole moment (field-independent basis, Debye-Ang):
   XX=             -0.3671   YY=            -11.0232   ZZ=            -11.0233
   XY=             -0.0014   XZ=              0.0009   YZ=             -0.0000

 Normal termination of Gaussian 16 at Wed Nov 13 12:35:03 2024.
