 Gaussian 16, Revision A.03,
 Gaussian 16:  ES64L-G16RevA.03 25-Dec-2016

 --------------------------------------------
 #p opt UM062X/6-311+G** nosymm int=superfine
 --------------------------------------------

 -------------------
 Title Card Required
 -------------------
 Symbolic Z-matrix:
 Charge =  0 Multiplicity = 1

 SCF Done:  E(UM062X) =  -110.586949926     A.U. after   10 cycles
 SCF Done:  E(UM062X) =  -110.588640579     A.U. after    9 cycles
 SCF Done:  E(UM062X) =  -110.589479990     A.U. after    9 cycles
 Optimization completed.
    -- Stationary point found.

                          Input orientation:
 ---------------------------------------------------------------------
 Center     Atomic      Atomic             Coordinates (Angstroms)
 Number     Number       Type             X           Y           Z
 ---------------------------------------------------------------------
      1          7           0       -0.715428    0.000000    0.000000
      2          7           0        0.715428    0.000000    0.000000
      3          1           0       -0.918427   -1.008423   -0.000000
      4          1           0        0.918427    1.008423   -0.000000
 ---------------------------------------------------------------------

 Alpha  occ. eigenvalues --  -14.83843 -14.83803  -1.07593  -0.81933  -0.53230
 Alpha  occ. eigenvalues --   -0.52038  -0.42144  -0.35841
 Alpha virt. eigenvalues --   -0.06625   0.06233   0.06360   0.09397   0.11464
 Alpha virt. eigenvalues --    0.13213   0.15692   0.17044   0.18683   0.22221
 Alpha virt. eigenvalues --    0.26338   0.26798   0.55707   0.58374   0.73708

  Beta  occ. eigenvalues --  -14.83843 -14.83803  -1.07593  -0.81933  -0.53230
  Beta  occ. eigenvalues --   -0.52038  -0.42144  -0.35841
  Beta virt. eigenvalues --   -0.06625   0.06233   0.06360   0.09397   0.11464
  Beta virt. eigenvalues --    0.13213   0.15692   0.17044   0.18683   0.22221
  Beta virt. eigenvalues --    0.26338   0.26798   0.55707   0.58374   0.73708

 Mulliken charges and spin densities:
               1          2
     1  N   -0.246665   0.000000
     2  N   -0.246665  -0.000000
     3  H    0.246665  -0.000000
     4  H    0.246665   0.000000
 Sum of Mulliken charges =  -0.00000   0.00000

 Dipole moment (field-independent basis, Debye):
    X=             -0.0000    Y=              0.0000    Z=              0.0000  Tot=              0.0000
 Quadrupole moment (field-independent basis, Debye-Ang):
   XX=            -13.5883   YY=            -10.5263   ZZ=            -12.8851
   XY=              3.8293   XZ=              0.0000   YZ=              0.0000

 Normal termination of Gaussian 16 at Thu May 15 15:32:32 2025.
