 Gaussian 16, Revision A.03,
 Gaussian 16:  ES64L-G16RevA.03 25-Dec-2016

 --------------------------------------------
 #p opt UM062X/6-311+G** nosymm int=superfine
 --------------------------------------------

 -------------------
 Title Card Required
 -------------------
 Symbolic Z-matrix:
 Charge =  0 Multiplicity = 1

 SCF Done:  E(UM062X) =  -92.8470776814     A.U. after   12 cycles
 SCF Done:  E(UM062X) =  -92.8490519292     A.U. after   11 cycles
 SCF Done:  E(UM062X) =  -92.8490630429     A.U. after    8 cycles
 Optimization completed.
    -- Stationary point found.

                          Input orientation:
 ---------------------------------------------------------------------
 Center     Atomic      Atomic             Coordinates (Angstroms)
 Number     Number       Type             X           Y           Z
 ---------------------------------------------------------------------
      1          6           0       -1.522395    0.000000    0.000000
      2          7           0        1.522395    0.000000    0.000000
      3          1           0       -2.648046    0.000000    0.000000
 ---------------------------------------------------------------------

 Alpha  occ. eigenvalues --  -14.83215 -10.75866  -0.79794  -0.77404  -0.44855
 Alpha  occ. eigenvalues --   -0.27613  -0.27613
 Alpha virt. eigenvalues --   -0.17201  -0.17201  -0.08725   0.00269   0.06782
 Alpha virt. eigenvalues --    0.06782   0.07583   0.12992   0.16931   0.17186
 Alpha virt. eigenvalues --    0.17186   0.24722   0.42704   0.52378   0.52378

  Beta  occ. eigenvalues --  -14.83215 -10.75866  -0.79794  -0.77404  -0.44855
  Beta  occ. eigenvalues --   -0.27613  -0.27613
  Beta virt. eigenvalues --   -0.17201  -0.17201  -0.08725   0.00269   0.06782
  Beta virt. eigenvalues --    0.06782   0.07583   0.12992   0.16931   0.17186
  Beta virt. eigenvalues --    0.17186   0.24722   0.42704   0.52378   0.52378

 Mulliken charges and spin densities:
               1          2
     1  C    0.032609   0.000000
     2  N   -0.214640  -0.000000
     3  H    0.182031  -0.000000
 Sum of Mulliken charges =  -0.00000   0.00000

 Dipole moment (field-independent basis, Debye):
    X=             -5.1820    Y=             -0.0000    Z=             -0.0000  Tot=              5.1820
 Quadrupole moment (field-independent basis, Debye-Ang):
   XX=             -5.2274   YY=            -14.3125   ZZ=            -14.3125
   XY=              0.0000   XZ=              0.0000   YZ=             -0.0000

 Normal termination of Gaussian 16 at Mon Apr 21 18:36:28 2025.
