 Gaussian 16, Revision A.03,
 Gaussian 16:  ES64L-G16RevA.03 25-Dec-2016

 ---------------------------------------------------
 #p UM062X/6-311+G** force int=superfine pop=saveNBO
 ---------------------------------------------------

 -------------------
 Title Card Required
 -------------------
 Symbolic Z-matrix:
 Charge =  0 Multiplicity = 1

                         Standard orientation:
 ---------------------------------------------------------------------
 Center     Atomic      Atomic             Coordinates (Angstroms)
 Number     Number       Type             X           Y           Z
 ---------------------------------------------------------------------
      1          8           0        0.000000    0.000000    0.943562
      2          8           0        0.000000    0.000000   -0.943562
 ---------------------------------------------------------------------

 SCF Done:  E(UM062X) =  -150.019027524     A.U. after    9 cycles

 Unable to determine electronic state:  partially filled degenerate orbitals.
 Alpha  occ. eigenvalues --  -19.83921 -19.83909  -1.16169  -1.06348  -0.51590
 Alpha  occ. eigenvalues --   -0.51558  -0.46324  -0.45758
 Alpha virt. eigenvalues --   -0.26018  -0.17115   0.10387   0.13093   0.15249
 Alpha virt. eigenvalues --    0.15500   0.20707   0.21052   0.21376   0.32942
 Alpha virt. eigenvalues --    0.95378   0.96249   1.01749   1.06711   1.08088

  Beta  occ. eigenvalues --  -19.83921 -19.83909  -1.16169  -1.06348  -0.51590
  Beta  occ. eigenvalues --   -0.51558  -0.46324  -0.45758
  Beta virt. eigenvalues --   -0.26018  -0.17115   0.10387   0.13093   0.15249
  Beta virt. eigenvalues --    0.15500   0.20707   0.21052   0.21376   0.32942
  Beta virt. eigenvalues --    0.95378   0.96249   1.01749   1.06711   1.08088

 Mulliken charges and spin densities:
               1          2
     1  O    0.000000   0.000000
     2  O    0.000000   0.000000
 Sum of Mulliken charges =   0.00000   0.00000

 Dipole moment (field-independent basis, Debye):
    X=              0.0000    Y=             -0.0000    Z=             -0.0000  Tot=              0.0000
 Quadrupole moment (field-independent basis, Debye-Ang):
   XX=            -10.0686   YY=            -11.7948   ZZ=             -9.6311
   XY=              0.0000   XZ=             -0.0000   YZ=              0.0000

 Summary of Natural Population Analysis:

                                       Natural Population
                Natural  -----------------------------------------------
    Atom  No    Charge         Core      Valence    Rydberg      Total
 -----------------------------------------------------------------------
      O    1    0.00000      1.00000     2.99867    0.00134     4.00000
      O    2    0.00000      1.00000     2.99867    0.00134     4.00000
 =======================================================================
   * Total *    0.00000      2.00000     5.99733    0.00267     8.00000

 Normal termination of Gaussian 16 at Mon Apr 21 19:53:51 2025.
