 Gaussian 16, Revision A.03,
 Gaussian 16:  ES64L-G16RevA.03 25-Dec-2016

 -------------------------------------------------------------------
 #p opt UM062X/6-311+G** nosymm int=superfine SCF=NoVarAcc SCF=tight
 -------------------------------------------------------------------

 -------------------
 Title Card Required
 -------------------
 Symbolic Z-matrix:
 Charge =  1 Multiplicity = 2

 SCF Done:  E(UM062X) =  -77.8888384417     A.U. after   11 cycles
 SCF Done:  E(UM062X) =  -77.8928214162     A.U. after   10 cycles
 SCF Done:  E(UM062X) =  -77.8956272861     A.U. after   10 cycles
 SCF Done:  E(UM062X) =  -77.8956317069     A.U. after    8 cycles
 Optimization completed.
    -- Stationary point found.

                          Input orientation:
 ---------------------------------------------------------------------
 Center     Atomic      Atomic             Coordinates (Angstroms)
 Number     Number       Type             X           Y           Z
 ---------------------------------------------------------------------
      1          6           0       -6.106027    0.000000    0.000000
      2          6           0        6.106027    0.000000    0.000000
      3          1           0       -6.669129   -0.941380   -0.000000
      4          1           0       -6.669063    0.941419   -0.000000
      5          1           0        6.669129    0.941380    0.000000
      6          1           0        6.669063   -0.941419    0.000000
 ---------------------------------------------------------------------

 Alpha  occ. eigenvalues --  -10.84926 -10.84926  -0.96535  -0.96535  -0.71168
 Alpha  occ. eigenvalues --   -0.71168  -0.53927  -0.53927
 Alpha virt. eigenvalues --   -0.28211  -0.28211  -0.09045  -0.09045  -0.04732
 Alpha virt. eigenvalues --   -0.04731  -0.02942  -0.02941  -0.02820  -0.02796
 Alpha virt. eigenvalues --    0.03347   0.03348   0.04024   0.04025   0.30397

  Beta  occ. eigenvalues --  -10.84199 -10.84199  -0.94407  -0.94402  -0.70167
  Beta  occ. eigenvalues --   -0.70167  -0.39520
  Beta virt. eigenvalues --   -0.37065  -0.26620  -0.26619  -0.09347  -0.09344
  Beta virt. eigenvalues --   -0.05243  -0.05242  -0.03431  -0.03430  -0.03110
  Beta virt. eigenvalues --   -0.03084   0.03403   0.03404   0.04502   0.04506

 Mulliken charges and spin densities:
               1          2
     1  C    0.041410   0.486209
     2  C    0.041410   0.486209
     3  H    0.229295   0.006896
     4  H    0.229295   0.006896
     5  H    0.229295   0.006896
     6  H    0.229295   0.006896
 Sum of Mulliken charges =   1.00000   1.00000

 Dipole moment (field-independent basis, Debye):
    X=              0.0000    Y=              0.0000    Z=             -0.0000  Tot=              0.0000
 Quadrupole moment (field-independent basis, Debye-Ang):
   XX=            206.8197   YY=             -9.5112   ZZ=            -10.6540
   XY=             -0.0006   XZ=              0.0000   YZ=              0.0000

 Normal termination of Gaussian 16 at Tue Dec  3 15:42:35 2024.
