 Gaussian 16, Revision A.03,
 Gaussian 16:  ES64L-G16RevA.03 25-Dec-2016

 --------------------------------------------
 #p opt UM062X/6-311+G** nosymm int=superfine
 --------------------------------------------

 -------------------
 Title Card Required
 -------------------
 Symbolic Z-matrix:
 Charge =  0 Multiplicity = 1

 SCF Done:  E(UM062X) =  -92.8560160615     A.U. after   13 cycles
 SCF Done:  E(UM062X) =  -92.8579776069     A.U. after   11 cycles
 SCF Done:  E(UM062X) =  -92.8579886937     A.U. after    8 cycles
 Optimization completed.
    -- Stationary point found.

                          Input orientation:
 ---------------------------------------------------------------------
 Center     Atomic      Atomic             Coordinates (Angstroms)
 Number     Number       Type             X           Y           Z
 ---------------------------------------------------------------------
      1          6           0       -1.447395    0.000000    0.000000
      2          7           0        1.447395    0.000000    0.000000
      3          1           0       -2.572863    0.000000    0.000000
 ---------------------------------------------------------------------

 Alpha  occ. eigenvalues --  -14.83726 -10.75648  -0.79667  -0.77674  -0.44651
 Alpha  occ. eigenvalues --   -0.28023  -0.28023
 Alpha virt. eigenvalues --   -0.16841  -0.16841  -0.08825   0.00398   0.06895
 Alpha virt. eigenvalues --    0.06895   0.07448   0.13081   0.17144   0.17144
 Alpha virt. eigenvalues --    0.17218   0.25086   0.43062   0.52518   0.52518

  Beta  occ. eigenvalues --  -14.83726 -10.75648  -0.79667  -0.77674  -0.44651
  Beta  occ. eigenvalues --   -0.28023  -0.28023
  Beta virt. eigenvalues --   -0.16841  -0.16841  -0.08825   0.00398   0.06895
  Beta virt. eigenvalues --    0.06895   0.07448   0.13081   0.17144   0.17144
  Beta virt. eigenvalues --    0.17218   0.25086   0.43062   0.52518   0.52518

 Mulliken charges and spin densities:
               1          2
     1  C    0.015257  -0.000000
     2  N   -0.199690   0.000000
     3  H    0.184433   0.000000
 Sum of Mulliken charges =   0.00000   0.00000

 Dipole moment (field-independent basis, Debye):
    X=             -4.8966    Y=             -0.0000    Z=              0.0000  Tot=              4.8966
 Quadrupole moment (field-independent basis, Debye-Ang):
   XX=             -5.4207   YY=            -14.3115   ZZ=            -14.3115
   XY=              0.0000   XZ=             -0.0000   YZ=             -0.0000

 Normal termination of Gaussian 16 at Mon Apr 21 18:39:27 2025.
