 Gaussian 16, Revision A.03,
 Gaussian 16:  ES64L-G16RevA.03 25-Dec-2016

 --------------------------------------------
 #p opt UM062X/6-311+G** nosymm int=superfine
 --------------------------------------------

 -------------------
 Title Card Required
 -------------------
 Symbolic Z-matrix:
 Charge = -1 Multiplicity = 2

 SCF Done:  E(UM062X) =  -51.8449784384     A.U. after   12 cycles
 SCF Done:  E(UM062X) =  -51.8450068867     A.U. after    9 cycles
 SCF Done:  E(UM062X) =  -51.8450090641     A.U. after   13 cycles
 SCF Done:  E(UM062X) =  -51.8450097845     A.U. after   13 cycles
 Optimization completed.
    -- Stationary point found.

                          Input orientation:
 ---------------------------------------------------------------------
 Center     Atomic      Atomic             Coordinates (Angstroms)
 Number     Number       Type             X           Y           Z
 ---------------------------------------------------------------------
      1          5           0       -2.272274    0.000000    0.000000
      2          5           0        2.272274    0.000000    0.000000
      3          1           0       -2.937054   -1.014255    0.000135
      4          1           0        2.937054    1.014255   -0.000341
      5          1           0       -2.937056    1.014254    0.000151
      6          1           0        2.937056   -1.014253    0.000627
 ---------------------------------------------------------------------

 Alpha  occ. eigenvalues --   -6.88394  -6.88394  -0.38515  -0.38473  -0.22699
 Alpha  occ. eigenvalues --   -0.22673  -0.05612  -0.03556
 Alpha virt. eigenvalues --    0.11517   0.12523   0.14728   0.15166   0.15448
 Alpha virt. eigenvalues --    0.17290   0.19452   0.20452   0.20601   0.22885
 Alpha virt. eigenvalues --    0.31907   0.32999   0.33529   0.35862   0.50664

  Beta  occ. eigenvalues --   -6.87809  -6.87809  -0.37162  -0.37050  -0.21991
  Beta  occ. eigenvalues --   -0.21952   0.02030
  Beta virt. eigenvalues --    0.11892   0.12894   0.13689   0.14391   0.15530
  Beta virt. eigenvalues --    0.17671   0.18068   0.21864   0.22051   0.24229
  Beta virt. eigenvalues --    0.25246   0.31990   0.33203   0.33702   0.36676

 Mulliken charges and spin densities:
               1          2
     1  B   -0.347378   0.492222
     2  B   -0.347378   0.492222
     3  H   -0.076311   0.003889
     4  H   -0.076311   0.003889
     5  H   -0.076311   0.003889
     6  H   -0.076311   0.003889
 Sum of Mulliken charges =  -1.00000   1.00000

 Dipole moment (field-independent basis, Debye):
    X=              0.0000    Y=              0.0000    Z=              0.0010  Tot=              0.0010
 Quadrupole moment (field-independent basis, Debye-Ang):
   XX=            -43.9058   YY=            -24.3248   ZZ=            -18.8751
   XY=              0.0000   XZ=              0.0000   YZ=              0.0013

 Normal termination of Gaussian 16 at Mon Apr 21 17:27:17 2025.
