 Gaussian 16, Revision A.03,
 Gaussian 16:  ES64L-G16RevA.03 25-Dec-2016

 ---------------------------------------
 #p UM062X/6-311+G** force int=superfine
 ---------------------------------------

 -------------------
 Title Card Required
 -------------------
 Symbolic Z-matrix:
 Charge =  1 Multiplicity = 2

                         Standard orientation:
 ---------------------------------------------------------------------
 Center     Atomic      Atomic             Coordinates (Angstroms)
 Number     Number       Type             X           Y           Z
 ---------------------------------------------------------------------
      1          6           0        1.184138   -0.000038   -0.000026
      2          6           0       -1.184138    0.000043    0.000014
      3          1           0       -1.276098   -0.987108   -0.439258
      4          1           0        1.275337   -0.874032    0.635351
      5          1           0       -1.275749    0.874115   -0.635197
      6          1           0       -1.275293    0.113195    1.074620
      7          1           0        1.276120    0.987159    0.439138
      8          1           0        1.275685   -0.113362   -1.074579
 ---------------------------------------------------------------------

 SCF Done:  E(UM062X) =  -79.3612522929     A.U. after    9 cycles

 The electronic state is 2-A.
 Alpha  occ. eigenvalues --  -10.85823 -10.85817  -1.07386  -1.02311  -0.76944
 Alpha  occ. eigenvalues --   -0.76943  -0.74209  -0.74208  -0.58587
 Alpha virt. eigenvalues --   -0.29973  -0.15646  -0.10759  -0.10759  -0.09964
 Alpha virt. eigenvalues --   -0.06589  -0.06253  -0.06253  -0.04426  -0.04424
 Alpha virt. eigenvalues --   -0.02611   0.01660   0.01662   0.05141   0.07327

  Beta  occ. eigenvalues --  -10.85619 -10.85619  -1.04088  -0.99723  -0.76139
  Beta  occ. eigenvalues --   -0.76139  -0.73568  -0.73567
  Beta virt. eigenvalues --   -0.35971  -0.21509  -0.15752  -0.11081  -0.11080
  Beta virt. eigenvalues --   -0.09252  -0.06635  -0.06582  -0.06582  -0.04154
  Beta virt. eigenvalues --   -0.04152  -0.01845   0.02150   0.02152   0.05556

 Mulliken charges and spin densities:
               1          2
     1  C   -0.296597   0.568991
     2  C   -0.296598   0.568992
     3  H    0.265547  -0.023006
     4  H    0.265517  -0.022991
     5  H    0.265533  -0.023000
     6  H    0.265518  -0.022986
     7  H    0.265548  -0.023006
     8  H    0.265533  -0.022994
 Sum of Mulliken charges =   1.00000   1.00000

 Dipole moment (field-independent basis, Debye):
    X=              0.0000    Y=             -0.0000    Z=              0.0000  Tot=              0.0000
 Quadrupole moment (field-independent basis, Debye-Ang):
   XX=             -4.6083   YY=            -10.8894   ZZ=            -10.8896
   XY=              0.0006   XZ=              0.0003   YZ=              0.0000

 Normal termination of Gaussian 16 at Wed Nov 13 13:45:39 2024.
