 Gaussian 16, Revision A.03,
 Gaussian 16:  ES64L-G16RevA.03 25-Dec-2016

 --------------------------------------------
 #p opt UM062X/6-311+G** nosymm int=superfine
 --------------------------------------------

 -------------------
 Title Card Required
 -------------------
 Symbolic Z-matrix:
 Charge =  1 Multiplicity = 2

 SCF Done:  E(UM062X) =  -379.298220134     A.U. after  101 cycles
 SCF Done:  E(UM062X) =  -379.298970815     A.U. after   15 cycles
 SCF Done:  E(UM062X) =  -379.298971989     A.U. after   26 cycles
 Optimization completed.
    -- Stationary point found.

                          Input orientation:
 ---------------------------------------------------------------------
 Center     Atomic      Atomic             Coordinates (Angstroms)
 Number     Number       Type             X           Y           Z
 ---------------------------------------------------------------------
      1          6           0       -1.944427    0.000000    0.000000
      2         15           0        1.944427    0.000000    0.000000
      3          1           0       -3.065001   -0.000000    0.000000
 ---------------------------------------------------------------------

 Alpha  occ. eigenvalues --  -78.32403 -10.97331  -7.13938  -5.26078  -5.25724
 Alpha  occ. eigenvalues --   -5.24688  -0.99356  -0.85759  -0.65445  -0.51382
 Alpha  occ. eigenvalues --   -0.45832
 Alpha virt. eigenvalues --   -0.38241  -0.34864  -0.34021  -0.13284  -0.09671
 Alpha virt. eigenvalues --   -0.08538  -0.08202  -0.06539  -0.05516  -0.05129
 Alpha virt. eigenvalues --   -0.02456   0.00150   0.16431   0.16803   0.17028

  Beta  occ. eigenvalues --  -78.31650 -10.97289  -7.13711  -5.25510  -5.24548
  Beta  occ. eigenvalues --   -5.23789  -0.99135  -0.80589  -0.65265  -0.44829
  Beta virt. eigenvalues --   -0.37148  -0.34705  -0.32803  -0.29029  -0.13719
  Beta virt. eigenvalues --   -0.10747  -0.08416  -0.08198  -0.06454  -0.05165
  Beta virt. eigenvalues --   -0.04781  -0.02757  -0.00085   0.14359   0.15366

 Mulliken charges and spin densities:
               1          2
     1  C    0.248555   0.051843
     2  P    0.506136   0.950172
     3  H    0.245309  -0.002015
 Sum of Mulliken charges =   1.00000   1.00000

 Dipole moment (field-independent basis, Debye):
    X=             -2.0281    Y=             -0.0000    Z=              0.0000  Tot=              2.0281
 Quadrupole moment (field-independent basis, Debye-Ang):
   XX=             13.3855   YY=            -18.9750   ZZ=            -17.6478
   XY=              0.0000   XZ=             -0.0000   YZ=             -1.4372

 Normal termination of Gaussian 16 at Mon Apr 21 19:27:55 2025.
