 Gaussian 16, Revision A.03,
 Gaussian 16:  ES64L-G16RevA.03 25-Dec-2016

 --------------------------------------------
 #p opt UM062X/6-311+G** nosymm int=superfine
 --------------------------------------------

 -------------------
 Title Card Required
 -------------------
 Symbolic Z-matrix:
 Charge =  0 Multiplicity = 1

 SCF Done:  E(UM062X) =  -683.565364738     A.U. after   11 cycles
 SCF Done:  E(UM062X) =  -683.565467962     A.U. after   10 cycles
 SCF Done:  E(UM062X) =  -683.565733232     A.U. after   15 cycles
 SCF Done:  E(UM062X) =  -683.565871688     A.U. after   15 cycles
 SCF Done:  E(UM062X) =  -683.565901937     A.U. after   15 cycles
 SCF Done:  E(UM062X) =  -683.565907276     A.U. after   11 cycles
 SCF Done:  E(UM062X) =  -683.565907554     A.U. after   13 cycles
 Optimization completed.
    -- Stationary point found.

                          Input orientation:
 ---------------------------------------------------------------------
 Center     Atomic      Atomic             Coordinates (Angstroms)
 Number     Number       Type             X           Y           Z
 ---------------------------------------------------------------------
      1         15           0       -2.484490    0.000000    0.000000
      2         15           0        2.484490    0.000000    0.000000
      3          1           0       -2.313516   -1.413658    0.000000
      4          1           0        2.313516    1.413658    0.000000
 ---------------------------------------------------------------------

 Alpha  occ. eigenvalues --  -78.08093 -78.08093  -6.90187  -6.90187  -5.01591
 Alpha  occ. eigenvalues --   -5.01591  -5.01576  -5.01576  -5.01406  -5.01406
 Alpha  occ. eigenvalues --   -0.68472  -0.68194  -0.40517  -0.40489  -0.24165
 Alpha  occ. eigenvalues --   -0.23451
 Alpha virt. eigenvalues --   -0.17646  -0.16804   0.01793   0.03007   0.03712
 Alpha virt. eigenvalues --    0.04369   0.05486   0.06012   0.06301   0.07273
 Alpha virt. eigenvalues --    0.07969   0.11117   0.29075   0.29138   0.30497

  Beta  occ. eigenvalues --  -78.08093 -78.08093  -6.90187  -6.90187  -5.01591
  Beta  occ. eigenvalues --   -5.01591  -5.01576  -5.01576  -5.01406  -5.01406
  Beta  occ. eigenvalues --   -0.68472  -0.68194  -0.40517  -0.40489  -0.24165
  Beta  occ. eigenvalues --   -0.23451
  Beta virt. eigenvalues --   -0.17646  -0.16804   0.01793   0.03007   0.03712
  Beta virt. eigenvalues --    0.04369   0.05486   0.06012   0.06301   0.07273
  Beta virt. eigenvalues --    0.07969   0.11117   0.29075   0.29138   0.30497

 Mulliken charges and spin densities:
               1          2
     1  P    0.014137  -0.000001
     2  P    0.014137   0.000001
     3  H   -0.014137   0.000000
     4  H   -0.014137  -0.000000
 Sum of Mulliken charges =  -0.00000  -0.00000

 Dipole moment (field-independent basis, Debye):
    X=             -0.0000    Y=              0.0000    Z=              0.0000  Tot=              0.0000
 Quadrupole moment (field-independent basis, Debye-Ang):
   XX=            -27.8709   YY=            -28.5211   ZZ=            -30.6936
   XY=              3.6610   XZ=              0.0000   YZ=              0.0000

 Normal termination of Gaussian 16 at Mon Apr 21 21:10:20 2025.
