 Gaussian 16, Revision A.03,
 Gaussian 16:  ES64L-G16RevA.03 25-Dec-2016

 --------------------------------------------
 #p opt UM062X/6-311+G** nosymm int=superfine
 --------------------------------------------

 -------------------
 Title Card Required
 -------------------
 Symbolic Z-matrix:
 Charge =  1 Multiplicity = 2

 SCF Done:  E(UM062X) =  -76.4655973113     A.U. after   12 cycles
 SCF Done:  E(UM062X) =  -76.5006180728     A.U. after   13 cycles
 SCF Done:  E(UM062X) =  -76.5607277638     A.U. after   17 cycles
 SCF Done:  E(UM062X) =  -76.6144312713     A.U. after   67 cycles
 SCF Done:  E(UM062X) =  -76.6162210893     A.U. after   35 cycles
 SCF Done:  E(UM062X) =  -76.6162238320     A.U. after   20 cycles
 SCF Done:  E(UM062X) =  -76.6162245133     A.U. after   62 cycles
 SCF Done:  E(UM062X) =  -76.6482948793     A.U. after   33 cycles
 SCF Done:  E(UM062X) =  -76.6821778110     A.U. after   27 cycles
 SCF Done:  E(UM062X) =  -76.5711146722     A.U. after   38 cycles
 SCF Done:  E(UM062X) =  -76.6928061706     A.U. after   43 cycles
 SCF Done:  E(UM062X) =  -76.6933016587     A.U. after   24 cycles
 SCF Done:  E(UM062X) =  -76.6950001297     A.U. after   24 cycles
 SCF Done:  E(UM062X) =  -76.6897941823     A.U. after   23 cycles
 SCF Done:  E(UM062X) =  -76.6969059175     A.U. after   21 cycles
 SCF Done:  E(UM062X) =  -76.6972141738     A.U. after   21 cycles
 SCF Done:  E(UM062X) =  -76.6969912314     A.U. after   21 cycles
 SCF Done:  E(UM062X) =  -76.6974854309     A.U. after   21 cycles
 SCF Done:  E(UM062X) =  -76.6975100013     A.U. after   20 cycles
 SCF Done:  E(UM062X) =  -76.6975103185     A.U. after   17 cycles
 Optimization completed.
    -- Stationary point found.

                          Input orientation:
 ---------------------------------------------------------------------
 Center     Atomic      Atomic             Coordinates (Angstroms)
 Number     Number       Type             X           Y           Z
 ---------------------------------------------------------------------
      1          6           0       -0.969294    0.000000    0.000000
      2          6           0        0.969294    0.000000    0.000000
      3          1           0       -1.645932    0.313481   -0.817496
      4          1           0        1.270287   -1.049074    0.217645
 ---------------------------------------------------------------------

 Alpha  occ. eigenvalues --  -10.99991 -10.98159  -1.08041  -0.98979  -0.75510
 Alpha  occ. eigenvalues --   -0.67183  -0.62771
 Alpha virt. eigenvalues --   -0.39227  -0.35357  -0.24118  -0.14860  -0.11680
 Alpha virt. eigenvalues --   -0.09258  -0.08824  -0.06947  -0.05449  -0.05229
 Alpha virt. eigenvalues --   -0.02462  -0.00035   0.01103   0.22193   0.25596

  Beta  occ. eigenvalues --  -10.99078 -10.98053  -1.05113  -0.96859  -0.74025
  Beta  occ. eigenvalues --   -0.63877
  Beta virt. eigenvalues --   -0.38674  -0.37116  -0.31359  -0.21434  -0.15668
  Beta virt. eigenvalues --   -0.11548  -0.09019  -0.08521  -0.07419  -0.05561
  Beta virt. eigenvalues --   -0.04692  -0.02162   0.00541   0.01109   0.21301

 Mulliken charges and spin densities:
               1          2
     1  C    0.225667   0.841035
     2  C    0.212335   0.176661
     3  H    0.293864  -0.004641
     4  H    0.268134  -0.013055
 Sum of Mulliken charges =   1.00000   1.00000

 Dipole moment (field-independent basis, Debye):
    X=             -1.0176    Y=             -1.1330    Z=             -0.8495  Tot=              1.7438
 Quadrupole moment (field-independent basis, Debye-Ang):
   XX=             -2.6541   YY=             -9.8230   ZZ=            -10.0814
   XY=             -2.7460   XZ=              2.3312   YZ=             -0.0831

 Normal termination of Gaussian 16 at Tue Nov 19 13:41:39 2024.
