 Gaussian 16, Revision A.03,
 Gaussian 16:  ES64L-G16RevA.03 25-Dec-2016

 --------------------------------------------
 #p opt UM062X/6-311+G** nosymm int=superfine
 --------------------------------------------

 -------------------
 Title Card Required
 -------------------
 Symbolic Z-matrix:
 Charge =  0 Multiplicity = 1

 SCF Done:  E(UM062X) =  -76.9524642674     A.U. after   13 cycles
 SCF Done:  E(UM062X) =  -76.9534046711     A.U. after   13 cycles
 SCF Done:  E(UM062X) =  -76.9536973527     A.U. after   13 cycles
 SCF Done:  E(UM062X) =  -76.9539085916     A.U. after   12 cycles
 SCF Done:  E(UM062X) =  -76.9539090484     A.U. after   10 cycles
 SCF Done:  E(UM062X) =  -76.9539090610     A.U. after   10 cycles
 Optimization completed.
    -- Stationary point found.

                          Input orientation:
 ---------------------------------------------------------------------
 Center     Atomic      Atomic             Coordinates (Angstroms)
 Number     Number       Type             X           Y           Z
 ---------------------------------------------------------------------
      1          6           0       -1.282625    0.000000    0.000000
      2          6           0        1.282625    0.000000    0.000000
      3          1           0       -1.247577    0.248161    1.089400
      4          1           0        1.247694    0.995078   -0.508146
 ---------------------------------------------------------------------

 Alpha  occ. eigenvalues --  -10.66816 -10.66812  -0.74074  -0.70337  -0.38942
 Alpha  occ. eigenvalues --   -0.38350  -0.27825
 Alpha virt. eigenvalues --   -0.09788  -0.08889  -0.05417   0.02848   0.05804
 Alpha virt. eigenvalues --    0.07521   0.07626   0.09951   0.10013   0.10441
 Alpha virt. eigenvalues --    0.15290   0.16945   0.20530   0.44817   0.46861

  Beta  occ. eigenvalues --  -10.66816 -10.66812  -0.74074  -0.70337  -0.38942
  Beta  occ. eigenvalues --   -0.38350  -0.27825
  Beta virt. eigenvalues --   -0.09788  -0.08889  -0.05417   0.02848   0.05804
  Beta virt. eigenvalues --    0.07521   0.07626   0.09951   0.10013   0.10441
  Beta virt. eigenvalues --    0.15290   0.16945   0.20530   0.44817   0.46861

 Mulliken charges and spin densities:
               1          2
     1  C   -0.136493   0.000000
     2  C   -0.136517  -0.000000
     3  H    0.136505  -0.000000
     4  H    0.136505   0.000000
 Sum of Mulliken charges =  -0.00000   0.00000

 Dipole moment (field-independent basis, Debye):
    X=              0.0001    Y=              1.7376    Z=              0.8124  Tot=              1.9181
 Quadrupole moment (field-independent basis, Debye-Ang):
   XX=            -17.1152   YY=            -12.9042   ZZ=            -13.3248
   XY=              1.4451   XZ=             -3.0907   YZ=              0.2517

 Normal termination of Gaussian 16 at Tue Dec  3 21:43:34 2024.
