 Gaussian 16, Revision A.03,
 Gaussian 16:  ES64L-G16RevA.03 25-Dec-2016

 ---------------------------------------
 #p UM062X/6-311+G** force int=superfine
 ---------------------------------------

 -------------------
 Title Card Required
 -------------------
 Symbolic Z-matrix:
 Charge =  1 Multiplicity = 2

                         Standard orientation:
 ---------------------------------------------------------------------
 Center     Atomic      Atomic             Coordinates (Angstroms)
 Number     Number       Type             X           Y           Z
 ---------------------------------------------------------------------
      1          6           0        1.284005   -0.000040   -0.000025
      2          6           0       -1.284005    0.000045    0.000013
      3          1           0       -1.359999   -0.994786   -0.423995
      4          1           0        1.359142   -0.864636    0.649648
      5          1           0       -1.359640    0.864734   -0.649480
      6          1           0       -1.359112    0.130254    1.073630
      7          1           0        1.360025    0.994843    0.423855
      8          1           0        1.359584   -0.130440   -1.073586
 ---------------------------------------------------------------------

 SCF Done:  E(UM062X) =  -79.3547306061     A.U. after    9 cycles

 The electronic state is 2-A.
 Alpha  occ. eigenvalues --  -10.85616 -10.85611  -1.06095  -1.02545  -0.76128
 Alpha  occ. eigenvalues --   -0.76127  -0.74259  -0.74258  -0.56522
 Alpha virt. eigenvalues --   -0.32215  -0.15126  -0.10571  -0.10570  -0.10012
 Alpha virt. eigenvalues --   -0.06212  -0.06212  -0.06204  -0.03717  -0.03715
 Alpha virt. eigenvalues --   -0.02886   0.01581   0.01583   0.05413   0.07395

  Beta  occ. eigenvalues --  -10.85419 -10.85418  -1.02871  -1.00105  -0.75413
  Beta  occ. eigenvalues --   -0.75413  -0.73700  -0.73699
  Beta virt. eigenvalues --   -0.34216  -0.23239  -0.15594  -0.11102  -0.11102
  Beta virt. eigenvalues --   -0.09557  -0.06558  -0.06558  -0.06176  -0.03609
  Beta virt. eigenvalues --   -0.03606  -0.02131   0.01992   0.01994   0.05883

 Mulliken charges and spin densities:
               1          2
     1  C   -0.284280   0.574136
     2  C   -0.284281   0.574136
     3  H    0.261446  -0.024713
     4  H    0.261404  -0.024712
     5  H    0.261424  -0.024719
     6  H    0.261410  -0.024703
     7  H    0.261447  -0.024714
     8  H    0.261429  -0.024710
 Sum of Mulliken charges =   1.00000   1.00000

 Dipole moment (field-independent basis, Debye):
    X=              0.0000    Y=             -0.0000    Z=              0.0000  Tot=              0.0000
 Quadrupole moment (field-independent basis, Debye-Ang):
   XX=             -3.3763   YY=            -10.9439   ZZ=            -10.9441
   XY=              0.0007   XZ=              0.0003   YZ=              0.0000

 Normal termination of Gaussian 16 at Wed Nov 13 13:01:21 2024.
