 Gaussian 16, Revision A.03,
 Gaussian 16:  ES64L-G16RevA.03 25-Dec-2016

 --------------------------------------------
 #p opt UM062X/6-311+G** nosymm int=superfine
 --------------------------------------------

 -------------------
 Title Card Required
 -------------------
 Symbolic Z-matrix:
 Charge =  1 Multiplicity = 2

 SCF Done:  E(UM062X) =  -582.162210969     A.U. after   11 cycles
 SCF Done:  E(UM062X) =  -582.162480600     A.U. after    9 cycles
 SCF Done:  E(UM062X) =  -582.162502457     A.U. after    8 cycles
 Optimization completed.
    -- Stationary point found.

                          Input orientation:
 ---------------------------------------------------------------------
 Center     Atomic      Atomic             Coordinates (Angstroms)
 Number     Number       Type             X           Y           Z
 ---------------------------------------------------------------------
      1         14           0       -1.726292    0.000000    0.000000
      2         14           0        1.726292    0.000000    0.000000
      3          1           0        1.885608   -1.456296    0.000005
      4          1           0       -1.885335   -0.728043    1.261275
      5          1           0        1.885824    0.728182   -1.261132
      6          1           0        1.885179    0.728135    1.261243
      7          1           0       -1.885632    1.456293   -0.000101
      8          1           0       -1.885643   -0.728280   -1.261099
 ---------------------------------------------------------------------

 Alpha  occ. eigenvalues --  -67.23595 -67.23595  -5.78431  -5.78430  -4.10116
 Alpha  occ. eigenvalues --   -4.10115  -4.09306  -4.09306  -4.09306  -4.09306
 Alpha  occ. eigenvalues --   -0.83114  -0.81310  -0.62852  -0.62852  -0.62177
 Alpha  occ. eigenvalues --   -0.62176  -0.46791
 Alpha virt. eigenvalues --   -0.26497  -0.14335  -0.11959  -0.11160  -0.11160
 Alpha virt. eigenvalues --   -0.09965  -0.09965  -0.09858  -0.08371  -0.08371
 Alpha virt. eigenvalues --   -0.07762  -0.06433  -0.06432  -0.03906   0.00831

  Beta  occ. eigenvalues --  -67.23336 -67.23336  -5.78359  -5.78358  -4.09488
  Beta  occ. eigenvalues --   -4.09488  -4.09219  -4.09219  -4.09219  -4.09219
  Beta  occ. eigenvalues --   -0.80870  -0.79840  -0.62563  -0.62563  -0.61974
  Beta  occ. eigenvalues --   -0.61974
  Beta virt. eigenvalues --   -0.29685  -0.21144  -0.14517  -0.11863  -0.11863
  Beta virt. eigenvalues --   -0.10969  -0.10225  -0.10224  -0.09723  -0.07779
  Beta virt. eigenvalues --   -0.07779  -0.06415  -0.06199  -0.06199  -0.03713

 Mulliken charges and spin densities:
               1          2
     1  Si   0.499956   0.552369
     2  Si   0.499956   0.552369
     3  H    0.000017  -0.017463
     4  H    0.000010  -0.017452
     5  H    0.000023  -0.017458
     6  H    0.000005  -0.017449
     7  H    0.000017  -0.017463
     8  H    0.000017  -0.017454
 Sum of Mulliken charges =   1.00000   1.00000

 Dipole moment (field-independent basis, Debye):
    X=              0.0000    Y=              0.0000    Z=              0.0000  Tot=              0.0000
 Quadrupole moment (field-independent basis, Debye-Ang):
   XX=             -6.6474   YY=            -25.9558   ZZ=            -25.9559
   XY=             -0.0000   XZ=              0.0000   YZ=              0.0000

 Normal termination of Gaussian 16 at Mon Apr 21 20:13:46 2025.
