 Gaussian 16, Revision A.03,
 Gaussian 16:  ES64L-G16RevA.03 25-Dec-2016

 --------------------------------------------
 #p opt UM062X/6-311+G** nosymm int=superfine
 --------------------------------------------

 -------------------
 Title Card Required
 -------------------
 Symbolic Z-matrix:
 Charge =  0 Multiplicity = 1

 SCF Done:  E(UM062X) =  -111.620535426     A.U. after   16 cycles
 SCF Done:  E(UM062X) =  -111.626647670     A.U. after   13 cycles
 SCF Done:  E(UM062X) =  -111.631078121     A.U. after   16 cycles
 SCF Done:  E(UM062X) =  -111.633497733     A.U. after   15 cycles
 SCF Done:  E(UM062X) =  -111.635629025     A.U. after   16 cycles
 SCF Done:  E(UM062X) =  -111.636079031     A.U. after   17 cycles
 SCF Done:  E(UM062X) =  -111.636587713     A.U. after   15 cycles
 SCF Done:  E(UM062X) =  -111.636953999     A.U. after   16 cycles
 SCF Done:  E(UM062X) =  -111.637042276     A.U. after   15 cycles
 SCF Done:  E(UM062X) =  -111.637067458     A.U. after   14 cycles
 SCF Done:  E(UM062X) =  -111.637108813     A.U. after   15 cycles
 SCF Done:  E(UM062X) =  -111.637157784     A.U. after   15 cycles
 SCF Done:  E(UM062X) =  -111.637165991     A.U. after   14 cycles
 SCF Done:  E(UM062X) =  -111.637166116     A.U. after   11 cycles
 SCF Done:  E(UM062X) =  -111.637166137     A.U. after   10 cycles
 Optimization completed.
    -- Stationary point found.

                          Input orientation:
 ---------------------------------------------------------------------
 Center     Atomic      Atomic             Coordinates (Angstroms)
 Number     Number       Type             X           Y           Z
 ---------------------------------------------------------------------
      1          7           0       -1.786540    0.000000    0.000000
      2          7           0        1.786540    0.000000    0.000000
      3          1           0       -1.674001   -0.812407   -0.619312
      4          1           0        1.673753    0.405391   -0.937634
      5          1           0       -1.673750   -0.405553    0.937564
      6          1           0        1.674024    0.812514    0.619176
 ---------------------------------------------------------------------

 Alpha  occ. eigenvalues --  -14.80556 -14.80554  -0.95222  -0.94850  -0.55315
 Alpha  occ. eigenvalues --   -0.55094  -0.40841  -0.40522  -0.28817
 Alpha virt. eigenvalues --   -0.18124   0.04328   0.06151   0.08717   0.11507
 Alpha virt. eigenvalues --    0.12490   0.13597   0.15671   0.16225   0.18224
 Alpha virt. eigenvalues --    0.19072   0.24819   0.27823   0.51352   0.51434

  Beta  occ. eigenvalues --  -14.80556 -14.80554  -0.95222  -0.94850  -0.55315
  Beta  occ. eigenvalues --   -0.55094  -0.40841  -0.40522  -0.28817
  Beta virt. eigenvalues --   -0.18124   0.04328   0.06151   0.08717   0.11507
  Beta virt. eigenvalues --    0.12490   0.13597   0.15671   0.16225   0.18224
  Beta virt. eigenvalues --    0.19072   0.24819   0.27823   0.51352   0.51434

 Mulliken charges and spin densities:
               1          2
     1  N   -0.486295   0.000000
     2  N   -0.486301  -0.000000
     3  H    0.243146  -0.000000
     4  H    0.243149   0.000000
     5  H    0.243151  -0.000000
     6  H    0.243150   0.000000
 Sum of Mulliken charges =   0.00000   0.00000

 Dipole moment (field-independent basis, Debye):
    X=              0.0000    Y=             -0.0001    Z=             -0.0003  Tot=              0.0004
 Quadrupole moment (field-independent basis, Debye-Ang):
   XX=            -16.6114   YY=            -14.3510   ZZ=            -11.5229
   XY=              7.4098   XZ=             -1.9362   YZ=              0.7936

 Normal termination of Gaussian 16 at Thu May 15 15:01:37 2025.
