 Gaussian 16, Revision A.03,
 Gaussian 16:  ES64L-G16RevA.03 25-Dec-2016

 --------------------------------------------
 #p opt UM062X/6-311+G** nosymm int=superfine
 --------------------------------------------

 -------------------
 Title Card Required
 -------------------
 Symbolic Z-matrix:
 Charge =  0 Multiplicity = 1

 SCF Done:  E(UM062X) =  -382.228051489     A.U. after   15 cycles
 SCF Done:  E(UM062X) =  -382.238693081     A.U. after   12 cycles
 SCF Done:  E(UM062X) =  -382.245303082     A.U. after   13 cycles
 SCF Done:  E(UM062X) =  -382.245424359     A.U. after   12 cycles
 SCF Done:  E(UM062X) =  -382.245484346     A.U. after   12 cycles
 SCF Done:  E(UM062X) =  -382.245549208     A.U. after   10 cycles
 SCF Done:  E(UM062X) =  -382.245573692     A.U. after   11 cycles
 SCF Done:  E(UM062X) =  -382.245576805     A.U. after    9 cycles
 SCF Done:  E(UM062X) =  -382.245577641     A.U. after   10 cycles
 SCF Done:  E(UM062X) =  -382.245578916     A.U. after   11 cycles
 SCF Done:  E(UM062X) =  -382.245579615     A.U. after    9 cycles
 SCF Done:  E(UM062X) =  -382.245579861     A.U. after    9 cycles
 Optimization completed.
    -- Stationary point found.

                          Input orientation:
 ---------------------------------------------------------------------
 Center     Atomic      Atomic             Coordinates (Angstroms)
 Number     Number       Type             X           Y           Z
 ---------------------------------------------------------------------
      1          6           0       -2.131264    0.000000    0.000000
      2         15           0        2.131264    0.000000    0.000000
      3          1           0        2.051537   -1.417161    0.023417
      4          1           0       -2.154159    1.054207    0.234396
      5          1           0        2.051095    0.073512    1.415393
      6          1           0       -2.154215   -0.322552   -1.030658
      7          1           0       -2.191495   -0.729820    0.794248
 ---------------------------------------------------------------------

 Alpha  occ. eigenvalues --  -78.03028 -10.59794  -6.85446  -4.96970  -4.96894
 Alpha  occ. eigenvalues --   -4.96712  -0.79158  -0.69370  -0.51353  -0.51314
 Alpha  occ. eigenvalues --   -0.43534  -0.34632  -0.22999
 Alpha virt. eigenvalues --   -0.13591   0.02124   0.03781   0.03977   0.04501
 Alpha virt. eigenvalues --    0.06157   0.06634   0.07230   0.07339   0.11079
 Alpha virt. eigenvalues --    0.16589   0.18029   0.18082   0.22639   0.30513

  Beta  occ. eigenvalues --  -78.03028 -10.59794  -6.85446  -4.96970  -4.96894
  Beta  occ. eigenvalues --   -4.96712  -0.79158  -0.69370  -0.51353  -0.51314
  Beta  occ. eigenvalues --   -0.43534  -0.34632  -0.22999
  Beta virt. eigenvalues --   -0.13591   0.02124   0.03781   0.03977   0.04501
  Beta virt. eigenvalues --    0.06157   0.06634   0.07230   0.07339   0.11079
  Beta virt. eigenvalues --    0.16589   0.18029   0.18082   0.22639   0.30513

 Mulliken charges and spin densities:
               1          2
     1  C   -0.489776  -0.000000
     2  P   -0.049102   0.000000
     3  H   -0.007386  -0.000000
     4  H    0.185336   0.000000
     5  H   -0.007386  -0.000000
     6  H    0.185305   0.000000
     7  H    0.183010   0.000000
 Sum of Mulliken charges =  -0.00000  -0.00000

 Dipole moment (field-independent basis, Debye):
    X=             -1.7486    Y=             -0.5789    Z=              0.6199  Tot=              1.9434
 Quadrupole moment (field-independent basis, Debye-Ang):
   XX=            -22.4844   YY=            -22.4379   ZZ=            -22.5345
   XY=             -1.3320   XZ=              1.4255   YZ=              0.7046

 Normal termination of Gaussian 16 at Mon Apr 21 19:10:10 2025.
