 Gaussian 16, Revision A.03,
 Gaussian 16:  ES64L-G16RevA.03 25-Dec-2016

 --------------------------------------------
 #p opt UM062X/6-311+G** nosymm int=superfine
 --------------------------------------------

 -------------------
 Title Card Required
 -------------------
 Symbolic Z-matrix:
 Charge = -1 Multiplicity = 2

 SCF Done:  E(UM062X) =  -53.1979772633     A.U. after   12 cycles
 SCF Done:  E(UM062X) =  -53.2024167944     A.U. after   11 cycles
 SCF Done:  E(UM062X) =  -53.2033845887     A.U. after   10 cycles
 SCF Done:  E(UM062X) =  -53.2033942408     A.U. after    8 cycles
 Optimization completed.
    -- Stationary point found.

                          Input orientation:
 ---------------------------------------------------------------------
 Center     Atomic      Atomic             Coordinates (Angstroms)
 Number     Number       Type             X           Y           Z
 ---------------------------------------------------------------------
      1          5           0       -2.165672    0.000000    0.000000
      2          5           0        2.165672    0.000000    0.000000
      3          1           0        2.224325   -1.197003   -0.000015
      4          1           0       -2.224171   -0.598496    1.036647
      5          1           0        2.224335    0.598515   -1.036628
      6          1           0        2.224105    0.598483    1.036658
      7          1           0       -2.224333    1.197003   -0.000001
      8          1           0       -2.224261   -0.598502   -1.036639
 ---------------------------------------------------------------------

 Alpha  occ. eigenvalues --   -6.84966  -6.84965  -0.40264  -0.39893  -0.22125
 Alpha  occ. eigenvalues --   -0.22124  -0.21961  -0.21961   0.01283
 Alpha virt. eigenvalues --    0.10830   0.16636   0.17644   0.17644   0.18184
 Alpha virt. eigenvalues --    0.18184   0.18748   0.23087   0.24037   0.32804
 Alpha virt. eigenvalues --    0.32804   0.33990   0.33990   0.35605   0.38628

  Beta  occ. eigenvalues --   -6.84929  -6.84928  -0.38571  -0.38321  -0.21972
  Beta  occ. eigenvalues --   -0.21972  -0.21788  -0.21788
  Beta virt. eigenvalues --    0.08637   0.13129   0.13263   0.14542   0.14542
  Beta virt. eigenvalues --    0.17660   0.17660   0.20449   0.22155   0.24851
  Beta virt. eigenvalues --    0.31728   0.31728   0.33091   0.33091   0.33643

 Mulliken charges and spin densities:
               1          2
     1  B   -0.355280   0.551829
     2  B   -0.355280   0.551829
     3  H   -0.048219  -0.017248
     4  H   -0.048249  -0.017290
     5  H   -0.048255  -0.017290
     6  H   -0.048246  -0.017290
     7  H   -0.048219  -0.017248
     8  H   -0.048252  -0.017290
 Sum of Mulliken charges =  -1.00000   1.00000

 Dipole moment (field-independent basis, Debye):
    X=              0.0000    Y=             -0.0000    Z=              0.0001  Tot=              0.0001
 Quadrupole moment (field-independent basis, Debye-Ang):
   XX=            -46.3327   YY=            -24.3424   ZZ=            -24.3426
   XY=             -0.0000   XZ=              0.0000   YZ=              0.0000

 Normal termination of Gaussian 16 at Mon Apr 21 16:54:19 2025.
