 Gaussian 16, Revision A.03,
 Gaussian 16:  ES64L-G16RevA.03 25-Dec-2016

 --------------------------------------------
 #p opt UM062X/6-311+G** nosymm int=superfine
 --------------------------------------------

 -------------------
 Title Card Required
 -------------------
 Symbolic Z-matrix:
 Charge =  0 Multiplicity = 1

 SCF Done:  E(UM062X) =  -381.185572082     A.U. after   11 cycles
 SCF Done:  E(UM062X) =  -381.185719799     A.U. after    9 cycles
 SCF Done:  E(UM062X) =  -381.185745092     A.U. after    8 cycles
 SCF Done:  E(UM062X) =  -381.185741189     A.U. after    9 cycles
 SCF Done:  E(UM062X) =  -381.185740802     A.U. after    9 cycles
 SCF Done:  E(UM062X) =  -381.185747689     A.U. after    8 cycles
 SCF Done:  E(UM062X) =  -381.185747814     A.U. after    6 cycles
 Optimization completed.
    -- Stationary point found.

                          Input orientation:
 ---------------------------------------------------------------------
 Center     Atomic      Atomic             Coordinates (Angstroms)
 Number     Number       Type             X           Y           Z
 ---------------------------------------------------------------------
      1          6           0       -0.880452    0.000000    0.000000
      2         15           0        0.880452    0.000000    0.000000
      3          1           0       -1.477113   -0.904407   -0.000201
      4          1           0        1.018406   -1.414188    0.001095
      5          1           0       -1.408193    0.947013   -0.000246
 ---------------------------------------------------------------------

 Alpha  occ. eigenvalues --  -78.03039 -10.57443  -6.85506  -4.97050  -4.97000
 Alpha  occ. eigenvalues --   -4.96783  -0.80748  -0.64391  -0.51533  -0.43171
 Alpha  occ. eigenvalues --   -0.34253  -0.31391
 Alpha virt. eigenvalues --   -0.04740   0.01061   0.02997   0.04125   0.04917
 Alpha virt. eigenvalues --    0.06185   0.07914   0.09741   0.11013   0.15141
 Alpha virt. eigenvalues --    0.15621   0.19491   0.21370   0.30924   0.32833

  Beta  occ. eigenvalues --  -78.03039 -10.57443  -6.85506  -4.97050  -4.97000
  Beta  occ. eigenvalues --   -4.96783  -0.80748  -0.64391  -0.51533  -0.43171
  Beta  occ. eigenvalues --   -0.34253  -0.31391
  Beta virt. eigenvalues --   -0.04740   0.01061   0.02997   0.04125   0.04917
  Beta virt. eigenvalues --    0.06185   0.07914   0.09741   0.11013   0.15141
  Beta virt. eigenvalues --    0.15621   0.19491   0.21370   0.30924   0.32833

 Mulliken charges and spin densities:
               1          2
     1  C   -0.436914   0.000000
     2  P    0.111318  -0.000000
     3  H    0.181981   0.000000
     4  H   -0.038848  -0.000000
     5  H    0.182463   0.000000
 Sum of Mulliken charges =  -0.00000  -0.00000

 Dipole moment (field-independent basis, Debye):
    X=             -0.6546    Y=             -0.5782    Z=             -0.0003  Tot=              0.8734
 Quadrupole moment (field-independent basis, Debye-Ang):
   XX=            -19.9702   YY=            -19.9028   ZZ=            -22.4258
   XY=             -1.1779   XZ=              0.0008   YZ=             -0.0006

 Normal termination of Gaussian 16 at Mon Apr 21 19:11:24 2025.
