 Gaussian 16, Revision A.03,
 Gaussian 16:  ES64L-G16RevA.03 25-Dec-2016

 --------------------------------------------
 #p opt UM062X/6-311+G** nosymm int=superfine
 --------------------------------------------

 -------------------
 Title Card Required
 -------------------
 Symbolic Z-matrix:
 Charge =  0 Multiplicity = 1

 SCF Done:  E(UM062X) =  -92.8977158581     A.U. after   14 cycles
 SCF Done:  E(UM062X) =  -92.8994712738     A.U. after   11 cycles
 SCF Done:  E(UM062X) =  -92.8994800391     A.U. after    9 cycles
 Optimization completed.
    -- Stationary point found.

                          Input orientation:
 ---------------------------------------------------------------------
 Center     Atomic      Atomic             Coordinates (Angstroms)
 Number     Number       Type             X           Y           Z
 ---------------------------------------------------------------------
      1          6           0       -1.222395    0.000000    0.000000
      2          7           0        1.222395    0.000000    0.000000
      3          1           0       -2.344527    0.000000    0.000000
 ---------------------------------------------------------------------

 Alpha  occ. eigenvalues --  -14.85943 -10.74627  -0.80462  -0.77632  -0.43989
 Alpha  occ. eigenvalues --   -0.29640  -0.29640
 Alpha virt. eigenvalues --   -0.15324  -0.15324  -0.08886   0.00950   0.06916
 Alpha virt. eigenvalues --    0.07208   0.07208   0.13234   0.16989   0.16989
 Alpha virt. eigenvalues --    0.18350   0.26130   0.44614   0.53307   0.53307

  Beta  occ. eigenvalues --  -14.85943 -10.74627  -0.80462  -0.77632  -0.43989
  Beta  occ. eigenvalues --   -0.29640  -0.29640
  Beta virt. eigenvalues --   -0.15324  -0.15324  -0.08886   0.00950   0.06916
  Beta virt. eigenvalues --    0.07208   0.07208   0.13234   0.16989   0.16989
  Beta virt. eigenvalues --    0.18350   0.26130   0.44614   0.53307   0.53307

 Mulliken charges and spin densities:
               1          2
     1  C   -0.070412   0.000000
     2  N   -0.125098  -0.000000
     3  H    0.195511  -0.000000
 Sum of Mulliken charges =  -0.00000  -0.00000

 Dipole moment (field-independent basis, Debye):
    X=             -3.9844    Y=              0.0000    Z=             -0.0000  Tot=              3.9844
 Quadrupole moment (field-independent basis, Debye-Ang):
   XX=             -6.0567   YY=            -14.2535   ZZ=            -14.2535
   XY=             -0.0000   XZ=             -0.0000   YZ=              0.0000

 Normal termination of Gaussian 16 at Mon Apr 21 18:38:18 2025.
