 Gaussian 16, Revision A.03,
 Gaussian 16:  ES64L-G16RevA.03 25-Dec-2016

 --------------------------------------------
 #p opt UM062X/6-311+G** nosymm int=superfine
 --------------------------------------------

 -------------------
 Title Card Required
 -------------------
 Symbolic Z-matrix:
 Charge =  0 Multiplicity = 1

 SCF Done:  E(UM062X) =  -78.5610700359     A.U. after    8 cycles
 SCF Done:  E(UM062X) =  -78.5615681007     A.U. after    7 cycles
 SCF Done:  E(UM062X) =  -78.5615985235     A.U. after    6 cycles
 Optimization completed.
    -- Stationary point found.

                          Input orientation:
 ---------------------------------------------------------------------
 Center     Atomic      Atomic             Coordinates (Angstroms)
 Number     Number       Type             X           Y           Z
 ---------------------------------------------------------------------
      1          6           0       -0.642986    0.000000    0.000000
      2          6           0        0.642986    0.000000    0.000000
      3          1           0       -1.217950   -0.920471   -0.000000
      4          1           0       -1.218080    0.920320   -0.000000
      5          1           0        1.217950    0.920471    0.000000
      6          1           0        1.218080   -0.920320    0.000000
 ---------------------------------------------------------------------

 Alpha  occ. eigenvalues --  -10.53213 -10.53065  -0.87118  -0.65888  -0.54647
 Alpha  occ. eigenvalues --   -0.49265  -0.41071  -0.34335
 Alpha virt. eigenvalues --    0.03402   0.03412   0.04118   0.05054   0.07600
 Alpha virt. eigenvalues --    0.08272   0.09733   0.13879   0.16067   0.17443
 Alpha virt. eigenvalues --    0.19848   0.23397   0.31706   0.37095   0.44378

  Beta  occ. eigenvalues --  -10.53213 -10.53065  -0.87118  -0.65888  -0.54647
  Beta  occ. eigenvalues --   -0.49265  -0.41071  -0.34335
  Beta virt. eigenvalues --    0.03402   0.03412   0.04118   0.05054   0.07600
  Beta virt. eigenvalues --    0.08272   0.09733   0.13879   0.16067   0.17443
  Beta virt. eigenvalues --    0.19848   0.23397   0.31706   0.37095   0.44378

 Mulliken charges and spin densities:
               1          2
     1  C   -0.291190  -0.000000
     2  C   -0.291190   0.000000
     3  H    0.145586   0.000000
     4  H    0.145604   0.000000
     5  H    0.145586  -0.000000
     6  H    0.145604  -0.000000
 Sum of Mulliken charges =  -0.00000   0.00000

 Dipole moment (field-independent basis, Debye):
    X=              0.0000    Y=             -0.0000    Z=              0.0000  Tot=              0.0000
 Quadrupole moment (field-independent basis, Debye-Ang):
   XX=            -12.3058   YY=            -12.3141   ZZ=            -15.7186
   XY=             -0.0004   XZ=              0.0000   YZ=             -0.0000

 Normal termination of Gaussian 16 at Tue Nov 19 10:35:25 2024.
