 Gaussian 16, Revision A.03,
 Gaussian 16:  ES64L-G16RevA.03 25-Dec-2016

 --------------------------------------------
 #p opt UM062X/6-311+G** nosymm int=superfine
 --------------------------------------------

 -------------------
 Title Card Required
 -------------------
 Symbolic Z-matrix:
 Charge =  1 Multiplicity = 2

 SCF Done:  E(UM062X) =  -76.8257052064     A.U. after   10 cycles
 SCF Done:  E(UM062X) =  -76.8491830252     A.U. after   13 cycles
 SCF Done:  E(UM062X) =  -76.8526953145     A.U. after   74 cycles
 SCF Done:  E(UM062X) =  -76.8526982264     A.U. after  123 cycles
 Optimization completed.
    -- Stationary point found.

                          Input orientation:
 ---------------------------------------------------------------------
 Center     Atomic      Atomic             Coordinates (Angstroms)
 Number     Number       Type             X           Y           Z
 ---------------------------------------------------------------------
      1          6           0       -0.720757    0.000000    0.000000
      2          6           0        0.720757    0.000000    0.000000
      3          1           0       -1.808024    0.000009   -0.000008
      4          1           0        1.808022    0.000010   -0.000009
 ---------------------------------------------------------------------

 Alpha  occ. eigenvalues --  -10.97304 -10.97228  -1.16202  -0.98243  -0.87673
 Alpha  occ. eigenvalues --   -0.68036  -0.65672
 Alpha virt. eigenvalues --   -0.32052  -0.30033  -0.19187  -0.14359  -0.11145
 Alpha virt. eigenvalues --   -0.09697  -0.09451  -0.09366  -0.05126  -0.04759
 Alpha virt. eigenvalues --    0.02060   0.04340   0.11496   0.20462   0.30889

  Beta  occ. eigenvalues --  -10.97067 -10.97007  -1.11816  -0.96586  -0.87085
  Beta  occ. eigenvalues --   -0.63399
  Beta virt. eigenvalues --   -0.43437  -0.28344  -0.24728  -0.17451  -0.15497
  Beta virt. eigenvalues --   -0.11408  -0.10015  -0.09785  -0.09335  -0.04827
  Beta virt. eigenvalues --   -0.04385   0.01508   0.04497   0.12057   0.21371

 Mulliken charges and spin densities:
               1          2
     1  C    0.162842   0.520154
     2  C    0.162842   0.520154
     3  H    0.337159  -0.020154
     4  H    0.337158  -0.020154
 Sum of Mulliken charges =   1.00000   1.00000

 Dipole moment (field-independent basis, Debye):
    X=             -0.0000    Y=              0.0000    Z=             -0.0000  Tot=              0.0000
 Quadrupole moment (field-independent basis, Debye-Ang):
   XX=              0.9854   YY=            -10.2716   ZZ=            -11.9459
   XY=              0.0000   XZ=             -0.0000   YZ=              0.5003

 Normal termination of Gaussian 16 at Tue Nov 19 13:06:26 2024.
