 Gaussian 16, Revision A.03,
 Gaussian 16:  ES64L-G16RevA.03 25-Dec-2016

 --------------------------------------------
 #p opt UM062X/6-311+G** nosymm int=superfine
 --------------------------------------------

 -------------------
 Title Card Required
 -------------------
 Symbolic Z-matrix:
 Charge =  1 Multiplicity = 2

 SCF Done:  E(UM062X) =  -580.857637859     A.U. after   15 cycles
 SCF Done:  E(UM062X) =  -580.865375426     A.U. after    9 cycles
 SCF Done:  E(UM062X) =  -580.867578912     A.U. after   13 cycles
 SCF Done:  E(UM062X) =  -580.867581918     A.U. after    8 cycles
 Optimization completed.
    -- Stationary point found.

                          Input orientation:
 ---------------------------------------------------------------------
 Center     Atomic      Atomic             Coordinates (Angstroms)
 Number     Number       Type             X           Y           Z
 ---------------------------------------------------------------------
      1         14           0       -2.616295    0.000000    0.000000
      2         14           0        2.616295    0.000000    0.000000
      3          1           0       -3.519077   -1.188624    0.000045
      4          1           0        3.519077    1.188624    0.001071
      5          1           0       -3.519092    1.188612   -0.000036
      6          1           0        3.519092   -1.188612   -0.001062
 ---------------------------------------------------------------------

 Alpha  occ. eigenvalues --  -67.23448 -67.23448  -5.77951  -5.77951  -4.09218
 Alpha  occ. eigenvalues --   -4.09218  -4.08897  -4.08897  -4.08558  -4.08558
 Alpha  occ. eigenvalues --   -0.77489  -0.77461  -0.59293  -0.59285  -0.48277
 Alpha  occ. eigenvalues --   -0.47502
 Alpha virt. eigenvalues --   -0.26253  -0.26001  -0.11846  -0.11446  -0.09146
 Alpha virt. eigenvalues --   -0.08613  -0.07559  -0.06725  -0.06643  -0.05878
 Alpha virt. eigenvalues --   -0.05268  -0.05222  -0.05193  -0.03279   0.13654

  Beta  occ. eigenvalues --  -67.23124 -67.23124  -5.77711  -5.77711  -4.09118
  Beta  occ. eigenvalues --   -4.09118  -4.08453  -4.08453  -4.08135  -4.08135
  Beta  occ. eigenvalues --   -0.75696  -0.75549  -0.58129  -0.58117  -0.41207
  Beta virt. eigenvalues --   -0.33681  -0.25110  -0.24776  -0.11143  -0.10296
  Beta virt. eigenvalues --   -0.09222  -0.07084  -0.07041  -0.06217  -0.06174
  Beta virt. eigenvalues --   -0.05930  -0.05159  -0.04948  -0.04498  -0.02948

 Mulliken charges and spin densities:
               1          2
     1  Si   0.567650   0.390926
     2  Si   0.567651   0.390926
     3  H   -0.033825   0.054537
     4  H   -0.033825   0.054537
     5  H   -0.033825   0.054537
     6  H   -0.033825   0.054537
 Sum of Mulliken charges =   1.00000   1.00000

 Dipole moment (field-independent basis, Debye):
    X=              0.0000    Y=              0.0000    Z=              0.0000  Tot=              0.0000
 Quadrupole moment (field-independent basis, Debye-Ang):
   XX=             13.0174   YY=            -25.9722   ZZ=            -20.8830
   XY=             -0.0000   XZ=              0.0000   YZ=             -0.0022

 Normal termination of Gaussian 16 at Mon Apr 21 20:29:03 2025.
