 Gaussian 16, Revision A.03,
 Gaussian 16:  ES64L-G16RevA.03 25-Dec-2016

 --------------------------------------------
 #p opt UM062X/6-311+G** nosymm int=superfine
 --------------------------------------------

 -------------------
 Title Card Required
 -------------------
 Symbolic Z-matrix:
 Charge =  0 Multiplicity = 1

 SCF Done:  E(UM062X) =  -78.1951357346     A.U. after    9 cycles
 SCF Done:  E(UM062X) =  -78.2125016709     A.U. after    9 cycles
 SCF Done:  E(UM062X) =  -78.2288644836     A.U. after    8 cycles
 SCF Done:  E(UM062X) =  -78.2292709524     A.U. after    8 cycles
 SCF Done:  E(UM062X) =  -78.2292727171     A.U. after    7 cycles
 Optimization completed.
    -- Stationary point found.

                          Input orientation:
 ---------------------------------------------------------------------
 Center     Atomic      Atomic             Coordinates (Angstroms)
 Number     Number       Type             X           Y           Z
 ---------------------------------------------------------------------
      1          6           0       -1.685595    0.000000    0.000000
      2          6           0        1.685595    0.000000    0.000000
      3          1           0       -2.396776   -0.856273    0.000000
      4          1           0       -2.396738    0.856305    0.000000
      5          1           0        2.396776    0.856273   -0.000000
      6          1           0        2.396738   -0.856305   -0.000000
 ---------------------------------------------------------------------

 Alpha  occ. eigenvalues --  -10.58940 -10.58939  -0.74076  -0.73920  -0.45661
 Alpha  occ. eigenvalues --   -0.45526  -0.31406  -0.27475
 Alpha virt. eigenvalues --   -0.07196  -0.06177   0.02572   0.03545   0.06706
 Alpha virt. eigenvalues --    0.08578   0.08900   0.10488   0.12558   0.15433
 Alpha virt. eigenvalues --    0.17634   0.20010   0.21161   0.23302   0.44794

  Beta  occ. eigenvalues --  -10.58940 -10.58939  -0.74076  -0.73920  -0.45661
  Beta  occ. eigenvalues --   -0.45526  -0.31406  -0.27475
  Beta virt. eigenvalues --   -0.07196  -0.06177   0.02572   0.03545   0.06706
  Beta virt. eigenvalues --    0.08578   0.08900   0.10488   0.12558   0.15433
  Beta virt. eigenvalues --    0.17634   0.20010   0.21161   0.23302   0.44794

 Mulliken charges and spin densities:
               1          2
     1  C   -0.236582   0.000000
     2  C   -0.236582   0.000000
     3  H    0.118291  -0.000000
     4  H    0.118290  -0.000000
     5  H    0.118291  -0.000000
     6  H    0.118290  -0.000000
 Sum of Mulliken charges =  -0.00000  -0.00000

 Dipole moment (field-independent basis, Debye):
    X=             -0.0000    Y=             -0.0000    Z=             -0.0000  Tot=              0.0000
 Quadrupole moment (field-independent basis, Debye-Ang):
   XX=             -6.6534   YY=            -14.7963   ZZ=            -12.9993
   XY=             -0.0001   XZ=             -0.0000   YZ=             -0.0000

 Normal termination of Gaussian 16 at Tue Dec  3 11:12:52 2024.
