 Gaussian 16, Revision A.03,
 Gaussian 16:  ES64L-G16RevA.03 25-Dec-2016

 --------------------------------------------
 #p opt UM062X/6-311+G** nosymm int=superfine
 --------------------------------------------

 -------------------
 Title Card Required
 -------------------
 Symbolic Z-matrix:
 Charge =  0 Multiplicity = 1

 SCF Done:  E(UM062X) =  -379.625186302     A.U. after   15 cycles
 SCF Done:  E(UM062X) =  -379.626260869     A.U. after   10 cycles
 SCF Done:  E(UM062X) =  -379.626263868     A.U. after    9 cycles
 Optimization completed.
    -- Stationary point found.

                          Input orientation:
 ---------------------------------------------------------------------
 Center     Atomic      Atomic             Coordinates (Angstroms)
 Number     Number       Type             X           Y           Z
 ---------------------------------------------------------------------
      1          6           0       -1.440377    0.000000    0.000000
      2         15           0        1.440377    0.000000    0.000000
      3          1           0       -2.556205   -0.000000    0.000000
 ---------------------------------------------------------------------

 Alpha  occ. eigenvalues --  -78.09333 -10.70482  -6.91039  -5.02825  -5.02053
 Alpha  occ. eigenvalues --   -5.02053  -0.75414  -0.61918  -0.41690  -0.25551
 Alpha  occ. eigenvalues --   -0.25551
 Alpha virt. eigenvalues --   -0.13586  -0.13586  -0.10704   0.01392   0.03963
 Alpha virt. eigenvalues --    0.05825   0.05825   0.07456   0.09209   0.09209
 Alpha virt. eigenvalues --    0.14547   0.18795   0.31995   0.32735   0.32735

  Beta  occ. eigenvalues --  -78.09333 -10.70482  -6.91039  -5.02825  -5.02053
  Beta  occ. eigenvalues --   -5.02053  -0.75414  -0.61918  -0.41690  -0.25551
  Beta  occ. eigenvalues --   -0.25551
  Beta virt. eigenvalues --   -0.13586  -0.13586  -0.10704   0.01392   0.03963
  Beta virt. eigenvalues --    0.05825   0.05825   0.07456   0.09209   0.09209
  Beta virt. eigenvalues --    0.14547   0.18795   0.31995   0.32735   0.32735

 Mulliken charges and spin densities:
               1          2
     1  C   -0.236452   0.000000
     2  P    0.045810  -0.000000
     3  H    0.190642  -0.000000
 Sum of Mulliken charges =  -0.00000   0.00000

 Dipole moment (field-independent basis, Debye):
    X=             -1.5922    Y=             -0.0000    Z=              0.0000  Tot=              1.5922
 Quadrupole moment (field-independent basis, Debye-Ang):
   XX=            -11.1274   YY=            -23.7911   ZZ=            -23.7911
   XY=              0.0000   XZ=             -0.0000   YZ=             -0.0000

 Normal termination of Gaussian 16 at Mon Apr 21 19:29:21 2025.
