 Gaussian 16, Revision A.03,
 Gaussian 16:  ES64L-G16RevA.03 25-Dec-2016

 --------------------------------------------
 #p opt UM062X/6-311+G** nosymm int=superfine
 --------------------------------------------

 -------------------
 Title Card Required
 -------------------
 Symbolic Z-matrix:
 Charge =  0 Multiplicity = 1

 SCF Done:  E(UM062X) =  -797.390307577     A.U. after   14 cycles
 SCF Done:  E(UM062X) =  -797.390491708     A.U. after   12 cycles
 SCF Done:  E(UM062X) =  -797.390782377     A.U. after   14 cycles
 SCF Done:  E(UM062X) =  -797.391276077     A.U. after   14 cycles
 SCF Done:  E(UM062X) =  -797.391348828     A.U. after   14 cycles
 SCF Done:  E(UM062X) =  -797.391375091     A.U. after   14 cycles
 SCF Done:  E(UM062X) =  -797.391364658     A.U. after   14 cycles
 SCF Done:  E(UM062X) =  -797.391377625     A.U. after   17 cycles
 SCF Done:  E(UM062X) =  -797.388117758     A.U. after   20 cycles
 SCF Done:  E(UM062X) =  -797.391377198     A.U. after   12 cycles
 SCF Done:  E(UM062X) =  -797.391263716     A.U. after   20 cycles
 SCF Done:  E(UM062X) =  -797.391346705     A.U. after   20 cycles
 SCF Done:  E(UM062X) =  -797.391368519     A.U. after   20 cycles
 SCF Done:  E(UM062X) =  -797.391381101     A.U. after   31 cycles
 SCF Done:  E(UM062X) =  -797.391373877     A.U. after   17 cycles
 SCF Done:  E(UM062X) =  -797.390938901     A.U. after   31 cycles
 SCF Done:  E(UM062X) =  -797.391380533     A.U. after   17 cycles
 SCF Done:  E(UM062X) =  -797.391382062     A.U. after   10 cycles
 SCF Done:  E(UM062X) =  -797.391382326     A.U. after   22 cycles
 SCF Done:  E(UM062X) =  -797.391382611     A.U. after   13 cycles
 Optimization completed.
    -- Stationary point found.

                          Input orientation:
 ---------------------------------------------------------------------
 Center     Atomic      Atomic             Coordinates (Angstroms)
 Number     Number       Type             X           Y           Z
 ---------------------------------------------------------------------
      1         16           0       -2.168191    0.000000    0.000000
      2         16           0        2.168191    0.000000    0.000000
      3          1           0       -2.007096   -1.305211   -0.287810
      4          1           0        2.005632    0.289425    1.304778
 ---------------------------------------------------------------------

 Alpha  occ. eigenvalues --  -89.94466 -89.94465  -8.30710  -8.30710  -6.22855
 Alpha  occ. eigenvalues --   -6.22854  -6.22607  -6.22606  -6.22039  -6.22038
 Alpha  occ. eigenvalues --   -0.81458  -0.81151  -0.47384  -0.47349  -0.33447
 Alpha  occ. eigenvalues --   -0.33326  -0.30622
 Alpha virt. eigenvalues --   -0.21984   0.01847   0.03041   0.04421   0.04811
 Alpha virt. eigenvalues --    0.06586   0.06791   0.07229   0.07381   0.08939
 Alpha virt. eigenvalues --    0.12884   0.30633   0.31291   0.32441   0.35366

  Beta  occ. eigenvalues --  -89.94466 -89.94465  -8.30710  -8.30710  -6.22855
  Beta  occ. eigenvalues --   -6.22854  -6.22607  -6.22606  -6.22039  -6.22038
  Beta  occ. eigenvalues --   -0.81458  -0.81151  -0.47384  -0.47349  -0.33447
  Beta  occ. eigenvalues --   -0.33326  -0.30622
  Beta virt. eigenvalues --   -0.21984   0.01847   0.03041   0.04421   0.04811
  Beta virt. eigenvalues --    0.06586   0.06791   0.07229   0.07381   0.08939
  Beta virt. eigenvalues --    0.12884   0.30633   0.31291   0.32441   0.35366

 Mulliken charges and spin densities:
               1          2
     1  S   -0.082088   0.000000
     2  S   -0.082011  -0.000000
     3  H    0.082041  -0.000000
     4  H    0.082058  -0.000000
 Sum of Mulliken charges =  -0.00000   0.00000

 Dipole moment (field-independent basis, Debye):
    X=             -0.0006    Y=             -0.8433    Z=              0.8444  Tot=              1.1934
 Quadrupole moment (field-independent basis, Debye-Ang):
   XX=            -25.7214   YY=            -28.1051   ZZ=            -28.1093
   XY=              2.7507   XZ=              2.7454   YZ=              1.6929

 Normal termination of Gaussian 16 at Mon Apr 21 21:22:26 2025.
