 Gaussian 16, Revision A.03,
 Gaussian 16:  ES64L-G16RevA.03 25-Dec-2016

 --------------------------------------------
 #p opt UM062X/6-311+G** nosymm int=superfine
 --------------------------------------------

 -------------------
 Title Card Required
 -------------------
 Symbolic Z-matrix:
 Charge =  0 Multiplicity = 1

 SCF Done:  E(UM062X) =  -79.2916263820     A.U. after   10 cycles
 SCF Done:  E(UM062X) =  -79.3455398375     A.U. after    8 cycles
 SCF Done:  E(UM062X) =  -79.3858751188     A.U. after    9 cycles
 SCF Done:  E(UM062X) =  -79.3863800305     A.U. after    8 cycles
 SCF Done:  E(UM062X) =  -79.3863852270     A.U. after    7 cycles
 Optimization completed.
    -- Stationary point found.

                          Input orientation:
 ---------------------------------------------------------------------
 Center     Atomic      Atomic             Coordinates (Angstroms)
 Number     Number       Type             X           Y           Z
 ---------------------------------------------------------------------
      1          6           0       -0.496306    0.000000    0.000000
      2          6           0        0.496356    0.000000    0.000000
      3          1           0        1.033305   -0.847449    0.490373
      4          1           0       -1.033238   -0.848447   -0.488702
      5          1           0        1.033289    0.848448    0.488697
      6          1           0        1.033294   -0.000918   -0.979123
      7          1           0       -1.033254    0.847446   -0.490378
      8          1           0       -1.033243    0.000916    0.979122
 ---------------------------------------------------------------------

 Alpha  occ. eigenvalues --  -10.50370 -10.48967  -0.99015  -0.66852  -0.58171
 Alpha  occ. eigenvalues --   -0.58170  -0.54462  -0.32256  -0.32255
 Alpha virt. eigenvalues --    0.01911   0.04090   0.04090   0.04113   0.08544
 Alpha virt. eigenvalues --    0.09051   0.09051   0.14272   0.17168   0.17169
 Alpha virt. eigenvalues --    0.20780   0.20781   0.23756   0.27503   0.41143

  Beta  occ. eigenvalues --  -10.50370 -10.48967  -0.99015  -0.66852  -0.58171
  Beta  occ. eigenvalues --   -0.58170  -0.54462  -0.32256  -0.32255
  Beta virt. eigenvalues --    0.01911   0.04090   0.04090   0.04113   0.08544
  Beta virt. eigenvalues --    0.09051   0.09051   0.14272   0.17168   0.17169
  Beta virt. eigenvalues --    0.20780   0.20781   0.23756   0.27503   0.41143

 Mulliken charges and spin densities:
               1          2
     1  C   -0.407161   0.000000
     2  C   -0.407161  -0.000000
     3  H    0.135723  -0.000000
     4  H    0.135718   0.000000
     5  H    0.135718  -0.000000
     6  H    0.135720  -0.000000
     7  H    0.135723   0.000000
     8  H    0.135720  -0.000000
 Sum of Mulliken charges =  -0.00000  -0.00000

 Dipole moment (field-independent basis, Debye):
    X=              0.0000    Y=             -0.0000    Z=             -0.0000  Tot=              0.0000
 Quadrupole moment (field-independent basis, Debye-Ang):
   XX=            -15.7118   YY=            -14.9534   ZZ=            -14.9535
   XY=             -0.0000   XZ=             -0.0000   YZ=             -0.0001

 Normal termination of Gaussian 16 at Tue Nov 19 11:36:27 2024.
