 Gaussian 16, Revision A.03,
 Gaussian 16:  ES64L-G16RevA.03 25-Dec-2016

 --------------------------------------------
 #p opt UM062X/6-311+G** nosymm int=superfine
 --------------------------------------------

 -------------------
 Title Card Required
 -------------------
 Symbolic Z-matrix:
 Charge =  0 Multiplicity = 1

 SCF Done:  E(UM062X) =  -581.234915049     A.U. after   10 cycles
 SCF Done:  E(UM062X) =  -581.235122962     A.U. after    7 cycles
 SCF Done:  E(UM062X) =  -581.235173559     A.U. after    9 cycles
 SCF Done:  E(UM062X) =  -581.235003238     A.U. after    9 cycles
 SCF Done:  E(UM062X) =  -581.235153583     A.U. after    9 cycles
 SCF Done:  E(UM062X) =  -581.235177230     A.U. after    8 cycles
 SCF Done:  E(UM062X) =  -581.235185349     A.U. after    7 cycles
 Optimization completed.
    -- Stationary point found.

                          Input orientation:
 ---------------------------------------------------------------------
 Center     Atomic      Atomic             Coordinates (Angstroms)
 Number     Number       Type             X           Y           Z
 ---------------------------------------------------------------------
      1         14           0       -1.262518    0.000000    0.000000
      2         14           0        1.262518    0.000000    0.000000
      3          1           0       -2.013149   -1.264665    0.000518
      4          1           0        2.013148    1.264665   -0.000543
      5          1           0       -2.013154    1.264663   -0.000318
      6          1           0        2.013154   -1.264663    0.000208
 ---------------------------------------------------------------------

 Alpha  occ. eigenvalues --  -67.02412 -67.02412  -5.57104  -5.57101  -3.88333
 Alpha  occ. eigenvalues --   -3.88329  -3.88157  -3.88134  -3.88112  -3.88109
 Alpha  occ. eigenvalues --   -0.61820  -0.57153  -0.43917  -0.42514  -0.35577
 Alpha  occ. eigenvalues --   -0.22666
 Alpha virt. eigenvalues --   -0.06388  -0.01396   0.02220   0.03226   0.04108
 Alpha virt. eigenvalues --    0.04194   0.04854   0.05177   0.05612   0.07116
 Alpha virt. eigenvalues --    0.07466   0.08177   0.12316   0.22271   0.25380

  Beta  occ. eigenvalues --  -67.02412 -67.02412  -5.57104  -5.57101  -3.88333
  Beta  occ. eigenvalues --   -3.88329  -3.88157  -3.88134  -3.88112  -3.88109
  Beta  occ. eigenvalues --   -0.61820  -0.57153  -0.43917  -0.42514  -0.35577
  Beta  occ. eigenvalues --   -0.22666
  Beta virt. eigenvalues --   -0.06388  -0.01396   0.02220   0.03226   0.04108
  Beta virt. eigenvalues --    0.04194   0.04854   0.05177   0.05612   0.07116
  Beta virt. eigenvalues --    0.07466   0.08177   0.12316   0.22271   0.25380

 Mulliken charges and spin densities:
               1          2
     1  Si   0.117104   0.000000
     2  Si   0.117105  -0.000000
     3  H   -0.058552  -0.000000
     4  H   -0.058552   0.000000
     5  H   -0.058552   0.000000
     6  H   -0.058552  -0.000000
 Sum of Mulliken charges =  -0.00000   0.00000

 Dipole moment (field-independent basis, Debye):
    X=              0.0000    Y=             -0.0000    Z=              0.0000  Tot=              0.0000
 Quadrupole moment (field-independent basis, Debye-Ang):
   XX=            -26.8951   YY=            -29.3926   ZZ=            -33.6099
   XY=             -0.0000   XZ=             -0.0001   YZ=             -0.0013

 Normal termination of Gaussian 16 at Mon Apr 21 20:30:28 2025.
