 Gaussian 16, Revision A.03,
 Gaussian 16:  ES64L-G16RevA.03 25-Dec-2016

 --------------------------------------------
 #p opt UM062X/6-311+G** nosymm int=superfine
 --------------------------------------------

 -------------------
 Title Card Required
 -------------------
 Symbolic Z-matrix:
 Charge =  0 Multiplicity = 1

 SCF Done:  E(UM062X) =  -684.928381188     A.U. after   11 cycles
 SCF Done:  E(UM062X) =  -684.929424452     A.U. after   10 cycles
 SCF Done:  E(UM062X) =  -684.930278429     A.U. after   11 cycles
 SCF Done:  E(UM062X) =  -684.930676389     A.U. after   11 cycles
 SCF Done:  E(UM062X) =  -684.930796812     A.U. after   12 cycles
 SCF Done:  E(UM062X) =  -684.930839570     A.U. after   10 cycles
 SCF Done:  E(UM062X) =  -684.930857198     A.U. after    9 cycles
 SCF Done:  E(UM062X) =  -684.930886715     A.U. after   12 cycles
 SCF Done:  E(UM062X) =  -684.930914987     A.U. after   11 cycles
 SCF Done:  E(UM062X) =  -684.930930308     A.U. after   11 cycles
 SCF Done:  E(UM062X) =  -684.931064586     A.U. after   13 cycles
 SCF Done:  E(UM062X) =  -684.931059718     A.U. after   10 cycles
 SCF Done:  E(UM062X) =  -684.931065685     A.U. after   12 cycles
 SCF Done:  E(UM062X) =  -684.931063083     A.U. after   10 cycles
 SCF Done:  E(UM062X) =  -684.918948444     A.U. after   14 cycles
 SCF Done:  E(UM062X) =  -684.931067434     A.U. after   10 cycles
 SCF Done:  E(UM062X) =  -684.931071323     A.U. after   11 cycles
 SCF Done:  E(UM062X) =  -684.931071431     A.U. after    8 cycles
 SCF Done:  E(UM062X) =  -684.931071470     A.U. after   10 cycles
 SCF Done:  E(UM062X) =  -684.931071502     A.U. after    8 cycles
 Optimization completed.
    -- Stationary point found.

                          Input orientation:
 ---------------------------------------------------------------------
 Center     Atomic      Atomic             Coordinates (Angstroms)
 Number     Number       Type             X           Y           Z
 ---------------------------------------------------------------------
      1         15           0       -2.067217    0.000000    0.000000
      2         15           0        2.067217    0.000000    0.000000
      3          1           0        1.983672   -1.018566    0.983966
      4          1           0       -1.976813    1.090646    0.902779
      5          1           0        1.982825   -0.945841   -1.054245
      6          1           0       -1.980039    0.862264   -1.123309
 ---------------------------------------------------------------------

 Alpha  occ. eigenvalues --  -78.05071 -78.05070  -6.87449  -6.87447  -4.99000
 Alpha  occ. eigenvalues --   -4.98999  -4.98873  -4.98872  -4.98690  -4.98689
 Alpha  occ. eigenvalues --   -0.71244  -0.70750  -0.45107  -0.44893  -0.36270
 Alpha  occ. eigenvalues --   -0.36055  -0.25117
 Alpha virt. eigenvalues --   -0.14290   0.01638   0.02870   0.03223   0.04030
 Alpha virt. eigenvalues --    0.04836   0.05963   0.06059   0.06079   0.06290
 Alpha virt. eigenvalues --    0.08027   0.14140   0.18572   0.28462   0.29074

  Beta  occ. eigenvalues --  -78.05071 -78.05070  -6.87449  -6.87447  -4.99000
  Beta  occ. eigenvalues --   -4.98999  -4.98873  -4.98872  -4.98690  -4.98689
  Beta  occ. eigenvalues --   -0.71244  -0.70750  -0.45107  -0.44893  -0.36270
  Beta  occ. eigenvalues --   -0.36055  -0.25117
  Beta virt. eigenvalues --   -0.14290   0.01638   0.02870   0.03223   0.04030
  Beta virt. eigenvalues --    0.04836   0.05963   0.06059   0.06079   0.06290
  Beta virt. eigenvalues --    0.08027   0.14140   0.18572   0.28462   0.29074

 Mulliken charges and spin densities:
               1          2
     1  P   -0.009851  -0.000000
     2  P   -0.010465   0.000000
     3  H    0.005558  -0.000000
     4  H    0.005613   0.000000
     5  H    0.004584  -0.000000
     6  H    0.004562   0.000000
 Sum of Mulliken charges =  -0.00000   0.00000

 Dipole moment (field-independent basis, Debye):
    X=              0.0018    Y=             -0.0040    Z=             -0.1306  Tot=              0.1307
 Quadrupole moment (field-independent basis, Debye-Ang):
   XX=            -28.5653   YY=            -31.2429   ZZ=            -28.5472
   XY=             -4.2370   XZ=              0.1652   YZ=              0.1035

 Normal termination of Gaussian 16 at Mon Apr 21 20:57:05 2025.
