 Gaussian 16, Revision A.03,
 Gaussian 16:  ES64L-G16RevA.03 25-Dec-2016

 --------------------------------------------
 #p opt UM062X/6-311+G** nosymm int=superfine
 --------------------------------------------

 -------------------
 Title Card Required
 -------------------
 Symbolic Z-matrix:
 Charge =  0 Multiplicity = 1

 SCF Done:  E(UM062X) =  -797.389921970     A.U. after   17 cycles
 SCF Done:  E(UM062X) =  -797.389922026     A.U. after   12 cycles
 Optimization completed.
    -- Stationary point found.

                          Input orientation:
 ---------------------------------------------------------------------
 Center     Atomic      Atomic             Coordinates (Angstroms)
 Number     Number       Type             X           Y           Z
 ---------------------------------------------------------------------
      1         16           0       -2.193191    0.000000    0.000000
      2         16           0        2.193191    0.000000    0.000000
      3          1           0       -2.029775   -1.297626   -0.319502
      4          1           0        2.043592    0.399587    1.276907
 ---------------------------------------------------------------------

 Alpha  occ. eigenvalues --  -89.94445 -89.94440  -8.30692  -8.30688  -6.22837
 Alpha  occ. eigenvalues --   -6.22832  -6.22589  -6.22585  -6.22020  -6.22016
 Alpha  occ. eigenvalues --   -0.81438  -0.81150  -0.47381  -0.47341  -0.33445
 Alpha  occ. eigenvalues --   -0.33309  -0.30523
 Alpha virt. eigenvalues --   -0.22069   0.01862   0.03014   0.04394   0.04852
 Alpha virt. eigenvalues --    0.06569   0.06712   0.07261   0.07416   0.08822
 Alpha virt. eigenvalues --    0.12937   0.30692   0.31275   0.32555   0.35219

  Beta  occ. eigenvalues --  -89.94445 -89.94440  -8.30692  -8.30688  -6.22837
  Beta  occ. eigenvalues --   -6.22832  -6.22589  -6.22585  -6.22020  -6.22016
  Beta  occ. eigenvalues --   -0.81438  -0.81150  -0.47381  -0.47341  -0.33445
  Beta  occ. eigenvalues --   -0.33309  -0.30523
  Beta virt. eigenvalues --   -0.22069   0.01862   0.03014   0.04394   0.04852
  Beta virt. eigenvalues --    0.06569   0.06712   0.07261   0.07416   0.08822
  Beta virt. eigenvalues --    0.12937   0.30692   0.31275   0.32555   0.35219

 Mulliken charges and spin densities:
               1          2
     1  S   -0.081614   0.000000
     2  S   -0.082349   0.000000
     3  H    0.082018   0.000000
     4  H    0.081944   0.000000
 Sum of Mulliken charges =  -0.00000   0.00000

 Dipole moment (field-independent basis, Debye):
    X=              0.0064    Y=             -0.7465    Z=              0.7938  Tot=              1.0897
 Quadrupole moment (field-independent basis, Debye-Ang):
   XX=            -25.7276   YY=            -27.9774   ZZ=            -28.2336
   XY=              2.9661   XZ=              2.8042   YZ=              2.0821

 Normal termination of Gaussian 16 at Mon Apr 21 22:59:02 2025.
