 Gaussian 16, Revision A.03,
 Gaussian 16:  ES64L-G16RevA.03 25-Dec-2016

 ---------------------------------------------------
 #p UM062X/6-311+G** force int=superfine pop=saveNBO
 ---------------------------------------------------

 -------------------
 Title Card Required
 -------------------
 Symbolic Z-matrix:
 Charge =  0 Multiplicity = 1

                         Standard orientation:
 ---------------------------------------------------------------------
 Center     Atomic      Atomic             Coordinates (Angstroms)
 Number     Number       Type             X           Y           Z
 ---------------------------------------------------------------------
      1          8           0        0.000000    0.000000   -1.126757
      2         16           0        0.000000    0.000000    0.563379
 ---------------------------------------------------------------------

 SCF Done:  E(UM062X) =  -473.265468263     A.U. after   11 cycles

 Unable to determine electronic state:  an orbital has unidentified symmetry.
 Alpha  occ. eigenvalues --  -90.01348 -19.72325  -8.37094  -6.29257  -6.29092
 Alpha  occ. eigenvalues --   -6.28257  -1.13025  -0.77647  -0.49899  -0.47695
 Alpha  occ. eigenvalues --   -0.45179  -0.31970
 Alpha virt. eigenvalues --   -0.16561  -0.01284   0.02273   0.04532   0.05266
 Alpha virt. eigenvalues --    0.08057   0.19056   0.20970   0.21412   0.27487
 Alpha virt. eigenvalues --    0.32948   0.33892   0.34946   0.64222   0.73970

  Beta  occ. eigenvalues --  -90.01348 -19.72325  -8.37094  -6.29257  -6.29092
  Beta  occ. eigenvalues --   -6.28257  -1.13025  -0.77647  -0.49899  -0.47695
  Beta  occ. eigenvalues --   -0.45179  -0.31970
  Beta virt. eigenvalues --   -0.16561  -0.01284   0.02273   0.04532   0.05266
  Beta virt. eigenvalues --    0.08057   0.19056   0.20970   0.21412   0.27487
  Beta virt. eigenvalues --    0.32948   0.33892   0.34946   0.64222   0.73970

 Mulliken charges and spin densities:
               1          2
     1  O   -0.243226   0.000000
     2  S    0.243226  -0.000000
 Sum of Mulliken charges =  -0.00000  -0.00000

 Dipole moment (field-independent basis, Debye):
    X=              0.0000    Y=              0.0000    Z=              2.1992  Tot=              2.1992
 Quadrupole moment (field-independent basis, Debye-Ang):
   XX=            -20.1080   YY=            -16.2216   ZZ=            -18.8421
   XY=              0.0000   XZ=              0.0000   YZ=              0.0000

 Summary of Natural Population Analysis:

                                       Natural Population
                Natural  -----------------------------------------------
    Atom  No    Charge         Core      Valence    Rydberg      Total
 -----------------------------------------------------------------------
      O    1   -0.26164      0.99998     3.25753    0.00414     4.26164
      S    2    0.26164      4.99987     2.71359    0.02490     7.73836
 =======================================================================
   * Total *   -0.00000      5.99985     5.97111    0.02904    12.00000

 Normal termination of Gaussian 16 at Mon Apr 21 19:54:51 2025.
