 Gaussian 16, Revision A.03,
 Gaussian 16:  ES64L-G16RevA.03 25-Dec-2016

 ---------------------------------------
 #p UM062X/6-311+G** force int=superfine
 ---------------------------------------

 -------------------
 Title Card Required
 -------------------
 Symbolic Z-matrix:
 Charge =  1 Multiplicity = 2

                         Standard orientation:
 ---------------------------------------------------------------------
 Center     Atomic      Atomic             Coordinates (Angstroms)
 Number     Number       Type             X           Y           Z
 ---------------------------------------------------------------------
      1          6           0        1.208767    0.908033   -1.574487
      2          6           0       -1.208768   -0.908029    1.574488
      3          1           0       -2.087545   -0.889572    0.941332
      4          1           0        1.003498    0.077603   -2.239106
      5          1           0       -1.003943   -0.078190    2.239983
      6          1           0       -0.570190   -1.782956    1.588285
      7          1           0        2.087526    0.889801   -0.941299
      8          1           0        0.570661    1.783292   -1.589202
 ---------------------------------------------------------------------

 SCF Done:  E(UM062X) =  -79.3142412268     A.U. after   10 cycles

 The electronic state is 2-A.
 Alpha  occ. eigenvalues --  -10.82874 -10.82873  -1.01497  -1.01297  -0.72608
 Alpha  occ. eigenvalues --   -0.72608  -0.72558  -0.72558  -0.46063
 Alpha virt. eigenvalues --   -0.37876  -0.12322  -0.10033  -0.09028  -0.09028
 Alpha virt. eigenvalues --   -0.06191  -0.06191  -0.04445  -0.02548   0.00599
 Alpha virt. eigenvalues --    0.00602   0.01537   0.01539   0.02280   0.09163

  Beta  occ. eigenvalues --  -10.82647 -10.82647  -0.98831  -0.98738  -0.72068
  Beta  occ. eigenvalues --   -0.72068  -0.72011  -0.72010
  Beta virt. eigenvalues --   -0.31385  -0.26684  -0.17108  -0.10248  -0.10239
  Beta virt. eigenvalues --   -0.10235  -0.06128  -0.06128  -0.05762  -0.01578
  Beta virt. eigenvalues --    0.00528   0.00531   0.01783   0.01786   0.02255

 Mulliken charges and spin densities:
               1          2
     1  C   -0.235704   0.559224
     2  C   -0.235706   0.559223
     3  H    0.245252  -0.019739
     4  H    0.245230  -0.019725
     5  H    0.245249  -0.019728
     6  H    0.245204  -0.019756
     7  H    0.245253  -0.019740
     8  H    0.245222  -0.019760
 Sum of Mulliken charges =   1.00000   1.00000

 Dipole moment (field-independent basis, Debye):
    X=              0.0000    Y=             -0.0000    Z=             -0.0000  Tot=              0.0000
 Quadrupole moment (field-independent basis, Debye-Ang):
   XX=             -4.2756   YY=             -7.2599   ZZ=              0.4883
   XY=              5.1424   XZ=             -8.9158   YZ=             -6.6964

 Normal termination of Gaussian 16 at Tue Nov 19 08:46:27 2024.
