 Gaussian 16, Revision A.03,
 Gaussian 16:  ES64L-G16RevA.03 25-Dec-2016

 --------------------------------------------
 #p opt UM062X/6-311+G** nosymm int=superfine
 --------------------------------------------

 -------------------
 Title Card Required
 -------------------
 Symbolic Z-matrix:
 Charge =  0 Multiplicity = 1

 SCF Done:  E(UM062X) =  -379.559274776     A.U. after   16 cycles
 SCF Done:  E(UM062X) =  -379.560707916     A.U. after   10 cycles
 SCF Done:  E(UM062X) =  -379.560714187     A.U. after   11 cycles
 Optimization completed.
    -- Stationary point found.

                          Input orientation:
 ---------------------------------------------------------------------
 Center     Atomic      Atomic             Coordinates (Angstroms)
 Number     Number       Type             X           Y           Z
 ---------------------------------------------------------------------
      1          6           0       -1.965377    0.000000    0.000000
      2         15           0        1.965377    0.000000    0.000000
      3          1           0       -3.088295   -0.000000   -0.000000
 ---------------------------------------------------------------------

 Alpha  occ. eigenvalues --  -78.06866 -10.72141  -6.88783  -5.00699  -4.99756
 Alpha  occ. eigenvalues --   -4.99756  -0.76896  -0.60250  -0.42549  -0.23448
 Alpha  occ. eigenvalues --   -0.23448
 Alpha virt. eigenvalues --   -0.15755  -0.15755  -0.11668   0.01059   0.04153
 Alpha virt. eigenvalues --    0.05972   0.05972   0.07649   0.08385   0.08385
 Alpha virt. eigenvalues --    0.12930   0.15911   0.32928   0.33509   0.33509

  Beta  occ. eigenvalues --  -78.06866 -10.72141  -6.88783  -5.00699  -4.99756
  Beta  occ. eigenvalues --   -4.99756  -0.76896  -0.60250  -0.42549  -0.23448
  Beta  occ. eigenvalues --   -0.23448
  Beta virt. eigenvalues --   -0.15755  -0.15755  -0.11668   0.01059   0.04153
  Beta virt. eigenvalues --    0.05972   0.05972   0.07649   0.08385   0.08385
  Beta virt. eigenvalues --    0.12930   0.15911   0.32928   0.33509   0.33509

 Mulliken charges and spin densities:
               1          2
     1  C   -0.084915   0.000000
     2  P   -0.077580  -0.000000
     3  H    0.162495  -0.000000
 Sum of Mulliken charges =  -0.00000  -0.00000

 Dipole moment (field-independent basis, Debye):
    X=             -3.4849    Y=             -0.0000    Z=             -0.0000  Tot=              3.4849
 Quadrupole moment (field-independent basis, Debye-Ang):
   XX=             -9.9908   YY=            -24.1749   ZZ=            -24.1749
   XY=              0.0000   XZ=              0.0000   YZ=             -0.0000

 Normal termination of Gaussian 16 at Mon Apr 21 19:27:53 2025.
