 Gaussian 16, Revision A.03,
 Gaussian 16:  ES64L-G16RevA.03 25-Dec-2016

 --------------------------------------------
 #p opt UM062X/6-311+G** nosymm int=superfine
 --------------------------------------------

 -------------------
 Title Card Required
 -------------------
 Symbolic Z-matrix:
 Charge =  1 Multiplicity = 2

 SCF Done:  E(UM062X) =  -579.693237685     A.U. after   15 cycles
 SCF Done:  E(UM062X) =  -579.699063859     A.U. after   13 cycles
 SCF Done:  E(UM062X) =  -579.703793984     A.U. after   15 cycles
 SCF Done:  E(UM062X) =  -579.703861970     A.U. after   12 cycles
 SCF Done:  E(UM062X) =  -579.704007322     A.U. after   11 cycles
 SCF Done:  E(UM062X) =  -579.704083512     A.U. after   12 cycles
 SCF Done:  E(UM062X) =  -579.704086394     A.U. after   11 cycles
 Optimization completed.
    -- Stationary point found.

                          Input orientation:
 ---------------------------------------------------------------------
 Center     Atomic      Atomic             Coordinates (Angstroms)
 Number     Number       Type             X           Y           Z
 ---------------------------------------------------------------------
      1         14           0       -1.652975    0.000000    0.000000
      2         14           0        1.652975    0.000000    0.000000
      3          1           0       -1.865374   -1.488840   -0.000000
      4          1           0        1.866126    1.488491   -0.000000
 ---------------------------------------------------------------------

 Alpha  occ. eigenvalues --  -67.27323 -67.27321  -5.81497  -5.81496  -4.12616
 Alpha  occ. eigenvalues --   -4.12615  -4.12547  -4.12546  -4.11883  -4.11882
 Alpha  occ. eigenvalues --   -0.77732  -0.75416  -0.53999  -0.53307  -0.44615
 Alpha virt. eigenvalues --   -0.29781  -0.26780  -0.25427  -0.12060  -0.10491
 Alpha virt. eigenvalues --   -0.09051  -0.08702  -0.08361  -0.07540  -0.05962
 Alpha virt. eigenvalues --   -0.05786  -0.05774  -0.02995   0.12396   0.13859

  Beta  occ. eigenvalues --  -67.27043 -67.27041  -5.81398  -5.81396  -4.12474
  Beta  occ. eigenvalues --   -4.12473  -4.11934  -4.11933  -4.11699  -4.11697
  Beta  occ. eigenvalues --   -0.75778  -0.73562  -0.53679  -0.51576
  Beta virt. eigenvalues --   -0.29780  -0.29194  -0.26112  -0.21038  -0.12883
  Beta virt. eigenvalues --   -0.10352  -0.08987  -0.08787  -0.08179  -0.07053
  Beta virt. eigenvalues --   -0.05653  -0.05559  -0.05299  -0.02473   0.11253

 Mulliken charges and spin densities:
               1          2
     1  Si   0.567529   0.509060
     2  Si   0.567428   0.509245
     3  H   -0.067493  -0.009152
     4  H   -0.067465  -0.009153
 Sum of Mulliken charges =   1.00000   1.00000

 Dipole moment (field-independent basis, Debye):
    X=              0.0001    Y=              0.0002    Z=             -0.0000  Tot=              0.0003
 Quadrupole moment (field-independent basis, Debye-Ang):
   XX=             -6.7085   YY=            -27.0896   ZZ=            -19.5858
   XY=              1.6321   XZ=             -0.0000   YZ=              0.0000

 Normal termination of Gaussian 16 at Mon Apr 21 20:39:28 2025.
