 Gaussian 16, Revision A.03,
 Gaussian 16:  ES64L-G16RevA.03 25-Dec-2016

 --------------------------------------------
 #p opt UM062X/6-311+G** nosymm int=superfine
 --------------------------------------------

 -------------------
 Title Card Required
 -------------------
 Symbolic Z-matrix:
 Charge =  1 Multiplicity = 2

 SCF Done:  E(UM062X) =  -1615.49042600     A.U. after   29 cycles
 SCF Done:  E(UM062X) =  -1615.52039354     A.U. after   26 cycles
 SCF Done:  E(UM062X) =  -1615.53459740     A.U. after   28 cycles
 SCF Done:  E(UM062X) =  -1615.53479620     A.U. after   29 cycles
 SCF Done:  E(UM062X) =  -1615.53320174     A.U. after   30 cycles
 SCF Done:  E(UM062X) =  -1615.53431507     A.U. after   24 cycles
 SCF Done:  E(UM062X) =  -1615.53492013     A.U. after   21 cycles
 SCF Done:  E(UM062X) =  -1615.53497212     A.U. after   22 cycles
 SCF Done:  E(UM062X) =  -1615.53498769     A.U. after   22 cycles
 SCF Done:  E(UM062X) =  -1615.53500296     A.U. after   23 cycles
 SCF Done:  E(UM062X) =  -1615.54220629     A.U. after   19 cycles
 SCF Done:  E(UM062X) =  -1615.54223489     A.U. after   19 cycles
 SCF Done:  E(UM062X) =  -1615.54226269     A.U. after   19 cycles
 SCF Done:  E(UM062X) =  -1615.54227598     A.U. after   19 cycles
 SCF Done:  E(UM062X) =  -1615.54228078     A.U. after   18 cycles
 SCF Done:  E(UM062X) =  -1615.54228249     A.U. after   17 cycles
 SCF Done:  E(UM062X) =  -1615.54228285     A.U. after   15 cycles
 SCF Done:  E(UM062X) =  -1615.54228306     A.U. after   15 cycles
 SCF Done:  E(UM062X) =  -1615.54228312     A.U. after   15 cycles
 SCF Done:  E(UM062X) =  -1615.54228314     A.U. after   13 cycles
 Optimization completed.
    -- Stationary point found.

                          Input orientation:
 ---------------------------------------------------------------------
 Center     Atomic      Atomic             Coordinates (Angstroms)
 Number     Number       Type             X           Y           Z
 ---------------------------------------------------------------------
      1          6           0       -1.968774   -0.000000    0.000000
      2          6           0        1.968774    0.000000   -0.000000
      3          6           0        0.010118   -1.916457    0.015858
      4          6           0        0.014887   -3.329220    0.008161
      5          6           0       -1.048222   -4.181869    0.421156
      6          6           0       -1.340651   -1.360714    0.310310
      7          6           0        0.638493   -5.572967   -0.266933
      8          1           0        1.235519   -6.435021   -0.527218
      9          6           0       -1.503130    1.089659    0.826879
     10          6           0       -0.607983   -5.573522    0.245261
     11          1           0       -1.208611   -6.439061    0.486482
     12          6           0        1.080489   -4.180241   -0.413938
     13          6           0        1.365427   -1.377776   -0.257242
     14          6           0        1.718572    2.454318   -0.686427
     15          6           0       -2.720779    0.029888   -1.241967
     16          6           0       -1.235464    3.422085    1.515895
     17          1           0       -1.556949    4.454283    1.428080
     18          6           0       -2.201027   -3.625704    0.884779
     19          1           0       -3.030227   -4.217189    1.254611
     20          6           0       -3.528899    1.111766   -1.702277
     21          6           0        2.371521   -2.229158   -0.694587
     22          1           0        3.346249   -1.792278   -0.885485
     23          6           0        2.869322    0.055040    1.112306
     24          6           0        3.746303    1.146665    1.429373
     25          6           0        2.249026   -3.624687   -0.843518
     26          1           0        3.081997   -4.212516   -1.209435
     27          6           0       -1.900611    2.460388    0.742727
     28          6           0       -0.521412    0.790048    1.813987
     29          1           0       -0.261511   -0.243426    1.998220
     30          6           0        2.919126   -1.083971    1.978658
     31          1           0        2.211063   -1.886746    1.836015
     32          6           0       -0.211388    3.102154    2.391897
     33          1           0        0.279543    3.875309    2.970010
     34          6           0       -2.317196   -2.221202    0.779241
     35          1           0       -3.282957   -1.780550    1.002244
     36          6           0       -4.203424    0.998918   -2.927692
     37          1           0       -4.832673    1.824890   -3.239674
     38          6           0        1.466575    1.045044   -0.835093
     39          6           0       -3.025756    2.957001   -0.031860
     40          1           0       -3.337217    3.960341    0.243887
     41          6           0       -4.085979   -0.110120   -3.746008
     42          1           0       -4.616458   -0.156995   -4.688637
     43          6           0       -3.726334    2.381168   -1.018866
     44          1           0       -4.531403    2.979868   -1.434237
     45          6           0        4.711082    0.969913    2.449372
     46          1           0        5.401225    1.781623    2.644833
     47          6           0        0.120815    1.758716    2.560030
     48          1           0        0.869483    1.462705    3.287223
     49          6           0       -2.626003   -1.093925   -2.107726
     50          1           0       -2.016930   -1.939940   -1.822402
     51          6           0        4.762722   -0.166902    3.216034
     52          1           0        5.504155   -0.260400    4.000349
     53          6           0        0.922922    3.367402   -1.408488
     54          1           0        1.096558    4.426118   -1.257553
     55          6           0        3.821499   -1.188423    3.003992
     56          1           0        3.810211   -2.061741    3.643741
     57          6           0       -0.038991    2.952171   -2.300466
     58          1           0       -0.642315    3.681107   -2.828320
     59          6           0        2.781458    3.036546    0.064256
     60          1           0        2.889600    4.107419   -0.077654
     61          6           0       -3.275096   -1.161961   -3.325757
     62          1           0       -3.155014   -2.043758   -3.943500
     63          6           0        3.697956    2.463902    0.882702
     64          1           0        4.457894    3.133835    1.271577
     65          6           0        0.532628    0.665926   -1.848729
     66          1           0        0.380101   -0.382924   -2.058329
     67          6           0       -0.200957    1.582386   -2.557314
     68          1           0       -0.917301    1.241513   -3.296157
 ---------------------------------------------------------------------

 Alpha  occ. eigenvalues --  -10.74151 -10.70923 -10.70748 -10.70507 -10.70372
 Alpha  occ. eigenvalues --  -10.68995 -10.68928 -10.68869 -10.68837 -10.68126
 Alpha  occ. eigenvalues --  -10.67896 -10.67753 -10.67546 -10.67340 -10.67253
 Alpha  occ. eigenvalues --  -10.67162 -10.67146 -10.66946 -10.66682 -10.66284
 Alpha  occ. eigenvalues --  -10.66254 -10.66089 -10.65629 -10.65537 -10.65503
 Alpha  occ. eigenvalues --  -10.65310 -10.64945 -10.64662 -10.64411 -10.64350
 Alpha  occ. eigenvalues --  -10.64046 -10.64007 -10.63959 -10.63934 -10.63885
 Alpha  occ. eigenvalues --  -10.63832 -10.63748 -10.63743 -10.63508 -10.63426
 Alpha  occ. eigenvalues --  -10.63355 -10.63261  -1.13023  -1.10747  -1.09963
 Alpha  occ. eigenvalues --   -1.08259  -1.06375  -1.05932  -1.04282  -1.03925
 Alpha  occ. eigenvalues --   -1.01812  -1.00035  -0.99768  -0.99049  -0.98345
 Alpha  occ. eigenvalues --   -0.95521  -0.95258  -0.94995  -0.94313  -0.93597
 Alpha  occ. eigenvalues --   -0.91683  -0.90940  -0.88534  -0.86968  -0.85581
 Alpha  occ. eigenvalues --   -0.83538  -0.82408  -0.81692  -0.81331  -0.81063
 Alpha  occ. eigenvalues --   -0.78976  -0.77947  -0.77817  -0.77624  -0.75648
 Alpha  occ. eigenvalues --   -0.74991  -0.73705  -0.73074  -0.71343  -0.69619
 Alpha  occ. eigenvalues --   -0.69259  -0.68494  -0.68372  -0.67611  -0.67142
 Alpha  occ. eigenvalues --   -0.66441  -0.65823  -0.64898  -0.64325  -0.63964
 Alpha  occ. eigenvalues --   -0.63736  -0.63066  -0.62461  -0.62355  -0.61847
 Alpha  occ. eigenvalues --   -0.61313  -0.60575  -0.60393  -0.59246  -0.59107
 Alpha  occ. eigenvalues --   -0.58714  -0.58690  -0.58411  -0.57874  -0.57681
 Alpha  occ. eigenvalues --   -0.57615  -0.57172  -0.56001  -0.55700  -0.54776
 Alpha  occ. eigenvalues --   -0.54477  -0.53969  -0.53898  -0.53449  -0.53271
 Alpha  occ. eigenvalues --   -0.52670  -0.51801  -0.51226  -0.51105  -0.50875
 Alpha  occ. eigenvalues --   -0.50423  -0.50079  -0.49990  -0.49038  -0.48721
 Alpha  occ. eigenvalues --   -0.48021  -0.47511  -0.46906  -0.46419  -0.44608
 Alpha  occ. eigenvalues --   -0.43277  -0.41848  -0.41155  -0.40146  -0.39535
 Alpha  occ. eigenvalues --   -0.38228  -0.37247  -0.36671  -0.29458
 Alpha virt. eigenvalues --   -0.21993  -0.17448  -0.15481  -0.12694  -0.10794
 Alpha virt. eigenvalues --   -0.10119  -0.09472  -0.08733  -0.07815  -0.07678
 Alpha virt. eigenvalues --   -0.07438  -0.06906  -0.06823  -0.06192  -0.05953

  Beta  occ. eigenvalues --  -10.74148 -10.70922 -10.70747 -10.70504 -10.70372
  Beta  occ. eigenvalues --  -10.68994 -10.68928 -10.68864 -10.68817 -10.68125
  Beta  occ. eigenvalues --  -10.67896 -10.67754 -10.67546 -10.67339 -10.67252
  Beta  occ. eigenvalues --  -10.67204 -10.67143 -10.66678 -10.66562 -10.66343
  Beta  occ. eigenvalues --  -10.66282 -10.66171 -10.65629 -10.65537 -10.65413
  Beta  occ. eigenvalues --  -10.65231 -10.64939 -10.64657 -10.64413 -10.64314
  Beta  occ. eigenvalues --  -10.64031 -10.64008 -10.63972 -10.63923 -10.63833
  Beta  occ. eigenvalues --  -10.63815 -10.63741 -10.63722 -10.63458 -10.63452
  Beta  occ. eigenvalues --  -10.63365 -10.63200  -1.13008  -1.10706  -1.09950
  Beta  occ. eigenvalues --   -1.07912  -1.06357  -1.05746  -1.04265  -1.03737
  Beta  occ. eigenvalues --   -1.01768  -0.99840  -0.99735  -0.98599  -0.98317
  Beta  occ. eigenvalues --   -0.95339  -0.95241  -0.94941  -0.94131  -0.93566
  Beta  occ. eigenvalues --   -0.91555  -0.90789  -0.88513  -0.86960  -0.84935
  Beta  occ. eigenvalues --   -0.83439  -0.82284  -0.81609  -0.81302  -0.80994
  Beta  occ. eigenvalues --   -0.78865  -0.77917  -0.77752  -0.77488  -0.75570
  Beta  occ. eigenvalues --   -0.74865  -0.73403  -0.72894  -0.71306  -0.69598
  Beta  occ. eigenvalues --   -0.69211  -0.68444  -0.68319  -0.67373  -0.67105
  Beta  occ. eigenvalues --   -0.66376  -0.65743  -0.64671  -0.64259  -0.63915
  Beta  occ. eigenvalues --   -0.63565  -0.62790  -0.62440  -0.62277  -0.61828
  Beta  occ. eigenvalues --   -0.61207  -0.60466  -0.60319  -0.59174  -0.59028
  Beta  occ. eigenvalues --   -0.58566  -0.58511  -0.58226  -0.57749  -0.57599
  Beta  occ. eigenvalues --   -0.57536  -0.57093  -0.55912  -0.55269  -0.54668
  Beta  occ. eigenvalues --   -0.54377  -0.53933  -0.53616  -0.53211  -0.53041
  Beta  occ. eigenvalues --   -0.52637  -0.51756  -0.51116  -0.50978  -0.50668
  Beta  occ. eigenvalues --   -0.50257  -0.50031  -0.49816  -0.48839  -0.48623
  Beta  occ. eigenvalues --   -0.47836  -0.47343  -0.46332  -0.45659  -0.43706
  Beta  occ. eigenvalues --   -0.42873  -0.41240  -0.40629  -0.39952  -0.39057
  Beta  occ. eigenvalues --   -0.38173  -0.37015  -0.35876
  Beta virt. eigenvalues --   -0.21925  -0.17505  -0.16640  -0.15246  -0.12758
  Beta virt. eigenvalues --   -0.10761  -0.10019  -0.09415  -0.08740  -0.07722
  Beta virt. eigenvalues --   -0.07391  -0.07049  -0.06775  -0.06517  -0.06163

 Mulliken charges and spin densities:
               1          2
     1  C    0.217252   0.577740
     2  C    0.380082  -0.006511
     3  C    0.444858   0.016811
     4  C    0.091464  -0.009144
     5  C    0.137430   0.022349
     6  C    0.032528  -0.110456
     7  C   -0.294960   0.005397
     8  H    0.175072  -0.000159
     9  C    0.048855  -0.123378
    10  C   -0.264397   0.001289
    11  H    0.177080   0.000058
    12  C    0.127639   0.001944
    13  C   -0.008430  -0.005520
    14  C    0.681558   0.028261
    15  C    0.167363  -0.094328
    16  C   -0.175816  -0.095581
    17  H    0.156709   0.002315
    18  C   -0.279422   0.020506
    19  H    0.172317   0.000292
    20  C    0.714131   0.154542
    21  C   -0.610978  -0.001623
    22  H    0.171658  -0.000083
    23  C    0.159704  -0.000322
    24  C    0.681816   0.002709
    25  C   -0.315286  -0.001307
    26  H    0.172209   0.000098
    27  C    0.591654   0.162614
    28  C   -0.074173   0.177516
    29  H    0.175914  -0.010042
    30  C   -0.192023   0.001633
    31  H    0.221446  -0.000115
    32  C   -0.329098   0.164486
    33  H    0.165900  -0.008352
    34  C   -0.439727   0.056325
    35  H    0.173782  -0.001133
    36  C   -0.191706  -0.073215
    37  H    0.165149   0.001910
    38  C   -0.026133   0.002657
    39  C   -0.639469   0.016108
    40  H    0.168407  -0.000738
    41  C   -0.373526   0.142384
    42  H    0.175289  -0.006809
    43  C   -0.495629   0.020694
    44  H    0.168053  -0.002289
    45  C   -0.131984   0.004736
    46  H    0.182259  -0.000041
    47  C   -0.288732  -0.070900
    48  H    0.166242   0.002618
    49  C   -0.288671   0.110703
    50  H    0.198708  -0.005085
    51  C   -0.308861   0.003146
    52  H    0.194731  -0.000122
    53  C   -0.356948   0.011623
    54  H    0.163455  -0.000609
    55  C   -0.152649   0.000346
    56  H    0.184542  -0.000115
    57  C   -0.143291  -0.001456
    58  H    0.183396   0.000190
    59  C   -0.558064  -0.011826
    60  H    0.179292   0.000255
    61  C   -0.288531  -0.055772
    62  H    0.166506   0.001901
    63  C   -0.478569   0.003104
    64  H    0.180662  -0.000616
    65  C   -0.405587  -0.023695
    66  H    0.217203   0.002235
    67  C   -0.013194  -0.000480
    68  H    0.193538   0.000325
 Sum of Mulliken charges =   1.00000   1.00000

 Dipole moment (field-independent basis, Debye):
    X=              6.0648    Y=              1.9297    Z=              0.5143  Tot=              6.3851
 Quadrupole moment (field-independent basis, Debye-Ang):
   XX=           -177.8279   YY=           -172.5421   ZZ=           -209.4840
   XY=              3.7223   XZ=             32.3004   YZ=             -4.0949

 Normal termination of Gaussian 16 at Fri Nov 22 04:43:25 2024.
