 Gaussian 16, Revision A.03,
 Gaussian 16:  ES64L-G16RevA.03 25-Dec-2016

 ---------------------------------------------------
 #p UM062X/6-311+G** force int=superfine pop=saveNBO
 ---------------------------------------------------

 -------------------
 Title Card Required
 -------------------
 Symbolic Z-matrix:
 Charge =  0 Multiplicity = 1

                         Standard orientation:
 ---------------------------------------------------------------------
 Center     Atomic      Atomic             Coordinates (Angstroms)
 Number     Number       Type             X           Y           Z
 ---------------------------------------------------------------------
      1          6           0        0.000000    0.000000   -1.955522
      2          8           0        0.000000    0.000000    1.466642
 ---------------------------------------------------------------------

 SCF Done:  E(UM062X) =  -112.753439881     A.U. after   36 cycles

 The electronic state is 1-SG.
 Alpha  occ. eigenvalues --  -19.72438 -10.74325  -1.02687  -0.66790  -0.41473
 Alpha  occ. eigenvalues --   -0.41473  -0.30756
 Alpha virt. eigenvalues --   -0.16592  -0.13117  -0.13117   0.03947   0.06954
 Alpha virt. eigenvalues --    0.06954   0.07858   0.17056   0.19902   0.19902
 Alpha virt. eigenvalues --    0.25678   0.55018   0.55018   0.56459   0.64715

  Beta  occ. eigenvalues --  -19.72438 -10.74325  -1.02687  -0.66790  -0.41473
  Beta  occ. eigenvalues --   -0.41473  -0.30756
  Beta virt. eigenvalues --   -0.16592  -0.13117  -0.13117   0.03947   0.06954
  Beta virt. eigenvalues --    0.06954   0.07858   0.17056   0.19902   0.19902
  Beta virt. eigenvalues --    0.25678   0.55018   0.55018   0.56459   0.64715

 Mulliken charges and spin densities:
               1          2
     1  C    0.119434  -0.000000
     2  O   -0.119434   0.000000
 Sum of Mulliken charges =  -0.00000  -0.00000

 Dipole moment (field-independent basis, Debye):
    X=              0.0000    Y=              0.0000    Z=             -2.0325  Tot=              2.0325
 Quadrupole moment (field-independent basis, Debye-Ang):
   XX=            -11.1537   YY=            -11.1537   ZZ=            -11.6451
   XY=              0.0000   XZ=              0.0000   YZ=              0.0000

 Summary of Natural Population Analysis:

                                       Natural Population
                Natural  -----------------------------------------------
    Atom  No    Charge         Core      Valence    Rydberg      Total
 -----------------------------------------------------------------------
      C    1    0.06814      1.00000     1.93155    0.00031     2.93186
      O    2   -0.06814      1.00000     3.06780    0.00034     4.06814
 =======================================================================
   * Total *   -0.00000      2.00000     4.99936    0.00064     7.00000

 Normal termination of Gaussian 16 at Mon Apr 21 19:26:05 2025.
