 Gaussian 16, Revision A.03,
 Gaussian 16:  ES64L-G16RevA.03 25-Dec-2016

 --------------------------------------------
 #p opt UM062X/6-311+G** nosymm int=superfine
 --------------------------------------------

 -------------------
 Title Card Required
 -------------------
 Symbolic Z-matrix:
 Charge =  0 Multiplicity = 1

 SCF Done:  E(UM062X) =  -379.854221706     A.U. after   11 cycles
 SCF Done:  E(UM062X) =  -379.854340055     A.U. after    9 cycles
 Optimization completed.
    -- Stationary point found.

                          Input orientation:
 ---------------------------------------------------------------------
 Center     Atomic      Atomic             Coordinates (Angstroms)
 Number     Number       Type             X           Y           Z
 ---------------------------------------------------------------------
      1          6           0       -0.990377    0.000000    0.000000
      2         15           0        0.990377    0.000000    0.000000
      3          1           0       -2.077562    0.000000    0.000000
 ---------------------------------------------------------------------

 Alpha  occ. eigenvalues --  -78.08939 -10.65227  -6.90507  -5.01897  -5.01854
 Alpha  occ. eigenvalues --   -5.01854  -0.75576  -0.63228  -0.42666  -0.29822
 Alpha  occ. eigenvalues --   -0.29822
 Alpha virt. eigenvalues --   -0.07809  -0.07809   0.00168   0.01764   0.05154
 Alpha virt. eigenvalues --    0.05154   0.06207   0.07107   0.10513   0.10513
 Alpha virt. eigenvalues --    0.16205   0.22124   0.31877   0.32792   0.32792

  Beta  occ. eigenvalues --  -78.08939 -10.65227  -6.90507  -5.01897  -5.01854
  Beta  occ. eigenvalues --   -5.01854  -0.75576  -0.63228  -0.42666  -0.29822
  Beta  occ. eigenvalues --   -0.29822
  Beta virt. eigenvalues --   -0.07809  -0.07809   0.00168   0.01764   0.05154
  Beta virt. eigenvalues --    0.05154   0.06207   0.07107   0.10513   0.10513
  Beta virt. eigenvalues --    0.16205   0.22124   0.31877   0.32792   0.32792

 Mulliken charges and spin densities:
               1          2
     1  C   -0.328971  -0.000000
     2  P    0.110662   0.000000
     3  H    0.218309   0.000000
 Sum of Mulliken charges =  -0.00000  -0.00000

 Dipole moment (field-independent basis, Debye):
    X=             -0.3450    Y=             -0.0000    Z=              0.0000  Tot=              0.3450
 Quadrupole moment (field-independent basis, Debye-Ang):
   XX=            -14.2593   YY=            -21.8306   ZZ=            -21.8306
   XY=             -0.0000   XZ=             -0.0000   YZ=              0.0000

 Normal termination of Gaussian 16 at Mon Apr 21 19:29:24 2025.
