 Gaussian 16, Revision A.03,
 Gaussian 16:  ES64L-G16RevA.03 25-Dec-2016

 ---------------------------------------------------
 #p UM062X/6-311+G** force int=superfine pop=saveNBO
 ---------------------------------------------------

 -------------------
 Title Card Required
 -------------------
 Symbolic Z-matrix:
 Charge =  0 Multiplicity = 1

                         Standard orientation:
 ---------------------------------------------------------------------
 Center     Atomic      Atomic             Coordinates (Angstroms)
 Number     Number       Type             X           Y           Z
 ---------------------------------------------------------------------
      1         16           0        0.000000    0.000000    1.650200
      2         16           0        0.000000    0.000000   -1.650200
 ---------------------------------------------------------------------

 SCF Done:  E(UM062X) =  -796.089923883     A.U. after    9 cycles

 Unable to determine electronic state:  partially filled degenerate orbitals.
 Alpha  occ. eigenvalues --  -89.99271 -89.99271  -8.34971  -8.34971  -6.27006
 Alpha  occ. eigenvalues --   -6.27006  -6.26989  -6.26989  -6.26152  -6.26152
 Alpha  occ. eigenvalues --   -0.79010  -0.76964  -0.35419  -0.35362  -0.34030
 Alpha  occ. eigenvalues --   -0.32368
 Alpha virt. eigenvalues --   -0.22741  -0.19612   0.03081   0.03718   0.04900
 Alpha virt. eigenvalues --    0.05398   0.07199   0.07517   0.07659   0.13199
 Alpha virt. eigenvalues --    0.31750   0.32461   0.32655   0.36245   0.36383

  Beta  occ. eigenvalues --  -89.99271 -89.99271  -8.34971  -8.34971  -6.27006
  Beta  occ. eigenvalues --   -6.27006  -6.26989  -6.26989  -6.26152  -6.26152
  Beta  occ. eigenvalues --   -0.79010  -0.76964  -0.35419  -0.35362  -0.34030
  Beta  occ. eigenvalues --   -0.32368
  Beta virt. eigenvalues --   -0.22741  -0.19612   0.03081   0.03718   0.04900
  Beta virt. eigenvalues --    0.05398   0.07199   0.07517   0.07659   0.13199
  Beta virt. eigenvalues --    0.31750   0.32461   0.32655   0.36245   0.36383

 Mulliken charges and spin densities:
               1          2
     1  S   -0.000000  -0.000000
     2  S   -0.000000  -0.000000
 Sum of Mulliken charges =  -0.00000  -0.00000

 Dipole moment (field-independent basis, Debye):
    X=             -0.0000    Y=              0.0000    Z=             -0.0000  Tot=              0.0000
 Quadrupole moment (field-independent basis, Debye-Ang):
   XX=            -30.3291   YY=            -25.4064   ZZ=            -22.5589
   XY=              0.0000   XZ=             -0.0000   YZ=              0.0000

 Summary of Natural Population Analysis:

                                       Natural Population
                Natural  -----------------------------------------------
    Atom  No    Charge         Core      Valence    Rydberg      Total
 -----------------------------------------------------------------------
      S    1    0.00000      4.99999     2.99907    0.00094     8.00000
      S    2    0.00000      4.99999     2.99907    0.00094     8.00000
 =======================================================================
   * Total *    0.00000      9.99999     5.99814    0.00187    16.00000

 Normal termination of Gaussian 16 at Mon Apr 21 20:09:10 2025.
