 Gaussian 16, Revision A.03,
 Gaussian 16:  ES64L-G16RevA.03 25-Dec-2016

 ---------------------------------------------------------
 #p opt UM062X/6-311+G** nosymm int=superfine SCF=NoVarAcc
 ---------------------------------------------------------

 -------------------
 Title Card Required
 -------------------
 Symbolic Z-matrix:
 Charge =  1 Multiplicity = 2

 SCF Done:  E(UM062X) =  -77.9051317824     A.U. after   10 cycles
 SCF Done:  E(UM062X) =  -77.9090827392     A.U. after    9 cycles
 SCF Done:  E(UM062X) =  -77.9116123031     A.U. after    9 cycles
 SCF Done:  E(UM062X) =  -77.9116156415     A.U. after    8 cycles
 Optimization completed.
    -- Stationary point found.

                          Input orientation:
 ---------------------------------------------------------------------
 Center     Atomic      Atomic             Coordinates (Angstroms)
 Number     Number       Type             X           Y           Z
 ---------------------------------------------------------------------
      1          6           0       -1.881027    0.000000    0.000000
      2          6           0        1.881027    0.000000    0.000000
      3          1           0       -2.438882   -0.942742    0.000000
      4          1           0       -2.438827    0.942774    0.000000
      5          1           0        2.438882    0.942742   -0.000000
      6          1           0        2.438827   -0.942774   -0.000000
 ---------------------------------------------------------------------

 Alpha  occ. eigenvalues --  -10.88727 -10.88727  -1.00012  -0.99913  -0.74691
 Alpha  occ. eigenvalues --   -0.74639  -0.58539  -0.56667
 Alpha virt. eigenvalues --   -0.31983  -0.31530  -0.12798  -0.10881  -0.09214
 Alpha virt. eigenvalues --   -0.07253  -0.06511  -0.05475  -0.04293  -0.01638
 Alpha virt. eigenvalues --   -0.00520   0.00176   0.02156   0.05905   0.27284

  Beta  occ. eigenvalues --  -10.87915 -10.87914  -0.97818  -0.97587  -0.73658
  Beta  occ. eigenvalues --   -0.73592  -0.47551
  Beta virt. eigenvalues --   -0.35736  -0.30134  -0.29551  -0.12583  -0.10977
  Beta virt. eigenvalues --   -0.09040  -0.07037  -0.06567  -0.04517  -0.03792
  Beta virt. eigenvalues --   -0.01369   0.00154   0.00576   0.02248   0.06660

 Mulliken charges and spin densities:
               1          2
     1  C    0.021285   0.486296
     2  C    0.021285   0.486296
     3  H    0.239358   0.006852
     4  H    0.239357   0.006852
     5  H    0.239358   0.006852
     6  H    0.239357   0.006852
 Sum of Mulliken charges =   1.00000   1.00000

 Dipole moment (field-independent basis, Debye):
    X=              0.0000    Y=             -0.0000    Z=             -0.0000  Tot=              0.0000
 Quadrupole moment (field-independent basis, Debye-Ang):
   XX=             17.1583   YY=             -9.4277   ZZ=            -10.7415
   XY=             -0.0000   XZ=             -0.0000   YZ=             -0.0000

 Normal termination of Gaussian 16 at Tue Dec  3 13:31:46 2024.
