 Gaussian 16, Revision A.03,
 Gaussian 16:  ES64L-G16RevA.03 25-Dec-2016

 ---------------------------------------
 #p UM062X/6-311+G** force int=superfine
 ---------------------------------------

 -------------------
 Title Card Required
 -------------------
 Symbolic Z-matrix:
 Charge =  0 Multiplicity = 1

                         Standard orientation:
 ---------------------------------------------------------------------
 Center     Atomic      Atomic             Coordinates (Angstroms)
 Number     Number       Type             X           Y           Z
 ---------------------------------------------------------------------
      1          6           0        0.945861   -0.001966    0.043139
      2          6           0       -0.945861    0.001966   -0.043139
      3          1           0       -1.303273   -0.517853    0.841135
      4          1           0        1.221254    0.516267    0.957191
      5          1           0       -1.221255   -0.516266   -0.957191
      6          1           0       -1.259115    1.041961   -0.056509
      7          1           0        1.303273    0.517852   -0.841135
      8          1           0        1.259116   -1.041960    0.056509
 ---------------------------------------------------------------------

 SCF Done:  E(UM062X) =  -79.7602635957     A.U. after    8 cycles

 The electronic state is 1-A.
 Alpha  occ. eigenvalues --  -10.54059 -10.54047  -0.80022  -0.71968  -0.48638
 Alpha  occ. eigenvalues --   -0.48638  -0.43490  -0.43490  -0.35363
 Alpha virt. eigenvalues --    0.02283   0.03314   0.05639   0.05639   0.08565
 Alpha virt. eigenvalues --    0.08565   0.09332   0.13036   0.15405   0.18285
 Alpha virt. eigenvalues --    0.18285   0.21899   0.21899   0.24261   0.27289

  Beta  occ. eigenvalues --  -10.54059 -10.54047  -0.80022  -0.71968  -0.48638
  Beta  occ. eigenvalues --   -0.48638  -0.43490  -0.43490  -0.35363
  Beta virt. eigenvalues --    0.02283   0.03314   0.05639   0.05639   0.08565
  Beta virt. eigenvalues --    0.08565   0.09332   0.13036   0.15405   0.18285
  Beta virt. eigenvalues --    0.18285   0.21899   0.21899   0.24261   0.27289

 Mulliken charges and spin densities:
               1          2
     1  C   -0.492678   0.000000
     2  C   -0.492677  -0.000000
     3  H    0.164226   0.000000
     4  H    0.164226  -0.000000
     5  H    0.164226   0.000000
     6  H    0.164225   0.000000
     7  H    0.164226   0.000000
     8  H    0.164225   0.000000
 Sum of Mulliken charges =  -0.00000   0.00000

 Dipole moment (field-independent basis, Debye):
    X=             -0.0000    Y=              0.0000    Z=             -0.0000  Tot=              0.0000
 Quadrupole moment (field-independent basis, Debye-Ang):
   XX=            -15.6004   YY=            -14.9095   ZZ=            -14.9110
   XY=              0.0014   XZ=             -0.0315   YZ=              0.0001

 Normal termination of Gaussian 16 at Tue Nov 19 12:48:55 2024.
