 Gaussian 16, Revision A.03,
 Gaussian 16:  ES64L-G16RevA.03 25-Dec-2016

 --------------------------------------------
 #p opt UM062X/6-311+G** nosymm int=superfine
 --------------------------------------------

 -------------------
 Title Card Required
 -------------------
 Symbolic Z-matrix:
 Charge =  0 Multiplicity = 1

 SCF Done:  E(UM062X) =  -110.165177711     A.U. after   12 cycles
 SCF Done:  E(UM062X) =  -110.166508713     A.U. after   14 cycles
 SCF Done:  E(UM062X) =  -110.169560985     A.U. after   16 cycles
 SCF Done:  E(UM062X) =  -110.171073179     A.U. after   19 cycles
 SCF Done:  E(UM062X) =  -110.171109377     A.U. after   18 cycles
 SCF Done:  E(UM062X) =  -110.171113902     A.U. after   12 cycles
 SCF Done:  E(UM062X) =  -110.171113956     A.U. after   14 cycles
 Optimization completed.
    -- Stationary point found.

                          Input orientation:
 ---------------------------------------------------------------------
 Center     Atomic      Atomic             Coordinates (Angstroms)
 Number     Number       Type             X           Y           Z
 ---------------------------------------------------------------------
      1          7           0       -1.815428    0.000000    0.000000
      2          7           0        1.815428    0.000000    0.000000
      3          1           0       -1.576190   -1.011461   -0.000000
      4          1           0        1.576189    1.011461   -0.000000
 ---------------------------------------------------------------------

 Alpha  occ. eigenvalues --  -14.88398 -14.88396  -0.92791  -0.92331  -0.49076
 Alpha  occ. eigenvalues --   -0.48836  -0.30819  -0.29875
 Alpha virt. eigenvalues --   -0.21783  -0.20669   0.04925   0.06934   0.10797
 Alpha virt. eigenvalues --    0.11357   0.13054   0.14468   0.15269   0.17420
 Alpha virt. eigenvalues --    0.18864   0.22640   0.53054   0.54636   0.74944

  Beta  occ. eigenvalues --  -14.88398 -14.88396  -0.92791  -0.92331  -0.49076
  Beta  occ. eigenvalues --   -0.48836  -0.30819  -0.29875
  Beta virt. eigenvalues --   -0.21783  -0.20669   0.04925   0.06934   0.10797
  Beta virt. eigenvalues --    0.11357   0.13054   0.14468   0.15269   0.17420
  Beta virt. eigenvalues --    0.18864   0.22640   0.53054   0.54636   0.74944

 Mulliken charges and spin densities:
               1          2
     1  N   -0.234519  -0.000001
     2  N   -0.234520   0.000001
     3  H    0.234520  -0.000000
     4  H    0.234520   0.000000
 Sum of Mulliken charges =  -0.00000  -0.00000

 Dipole moment (field-independent basis, Debye):
    X=             -0.0000    Y=             -0.0000    Z=             -0.0000  Tot=              0.0000
 Quadrupole moment (field-independent basis, Debye-Ang):
   XX=            -15.2192   YY=            -11.3160   ZZ=            -14.1936
   XY=              5.9555   XZ=              0.0000   YZ=              0.0000

 Normal termination of Gaussian 16 at Thu May 15 15:43:49 2025.
