 Gaussian 16, Revision A.03,
 Gaussian 16:  ES64L-G16RevA.03 25-Dec-2016

 --------------------------------------------
 #p opt UM062X/6-311+G** nosymm int=superfine
 --------------------------------------------

 -------------------
 Title Card Required
 -------------------
 Symbolic Z-matrix:
 Charge =  0 Multiplicity = 1

 SCF Done:  E(UM062X) =  -92.8913997886     A.U. after   14 cycles
 SCF Done:  E(UM062X) =  -92.8932033961     A.U. after   10 cycles
 SCF Done:  E(UM062X) =  -92.8932127520     A.U. after    9 cycles
 Optimization completed.
    -- Stationary point found.

                          Input orientation:
 ---------------------------------------------------------------------
 Center     Atomic      Atomic             Coordinates (Angstroms)
 Number     Number       Type             X           Y           Z
 ---------------------------------------------------------------------
      1          6           0       -1.247395    0.000000    0.000000
      2          7           0        1.247395    0.000000    0.000000
      3          1           0       -2.370332    0.000000    0.000000
 ---------------------------------------------------------------------

 Alpha  occ. eigenvalues --  -14.85596 -10.74757  -0.80205  -0.77737  -0.44046
 Alpha  occ. eigenvalues --   -0.29413  -0.29413
 Alpha virt. eigenvalues --   -0.15531  -0.15531  -0.08874   0.00875   0.06980
 Alpha virt. eigenvalues --    0.07176   0.07176   0.13229   0.17010   0.17010
 Alpha virt. eigenvalues --    0.18190   0.26019   0.44416   0.53187   0.53187

  Beta  occ. eigenvalues --  -14.85596 -10.74757  -0.80205  -0.77737  -0.44046
  Beta  occ. eigenvalues --   -0.29413  -0.29413
  Beta virt. eigenvalues --   -0.15531  -0.15531  -0.08874   0.00875   0.06980
  Beta virt. eigenvalues --    0.07176   0.07176   0.13229   0.17010   0.17010
  Beta virt. eigenvalues --    0.18190   0.26019   0.44416   0.53187   0.53187

 Mulliken charges and spin densities:
               1          2
     1  C   -0.057437   0.000000
     2  N   -0.135978  -0.000000
     3  H    0.193415  -0.000000
 Sum of Mulliken charges =  -0.00000  -0.00000

 Dipole moment (field-independent basis, Debye):
    X=             -4.0879    Y=             -0.0000    Z=              0.0000  Tot=              4.0879
 Quadrupole moment (field-independent basis, Debye-Ang):
   XX=             -5.9853   YY=            -14.2636   ZZ=            -14.2636
   XY=             -0.0000   XZ=             -0.0000   YZ=             -0.0000

 Normal termination of Gaussian 16 at Mon Apr 21 18:38:18 2025.
