 Gaussian 16, Revision A.03,
 Gaussian 16:  ES64L-G16RevA.03 25-Dec-2016

 ---------------------------------------------------
 #p UM062X/6-311+G** force int=superfine pop=saveNBO
 ---------------------------------------------------

 -------------------
 Title Card Required
 -------------------
 Symbolic Z-matrix:
 Charge =  0 Multiplicity = 1

                         Standard orientation:
 ---------------------------------------------------------------------
 Center     Atomic      Atomic             Coordinates (Angstroms)
 Number     Number       Type             X           Y           Z
 ---------------------------------------------------------------------
      1         15           0        0.000000    0.000000    1.838495
      2         15           0        0.000000    0.000000   -1.838495
 ---------------------------------------------------------------------

 SCF Done:  E(UM062X) =  -682.319949940     A.U. after    9 cycles

 The electronic state is 1-SGG.
 Alpha  occ. eigenvalues --  -78.12189 -78.12189  -6.93779  -6.93778  -5.05070
 Alpha  occ. eigenvalues --   -5.05069  -5.05068  -5.05068  -5.05068  -5.05068
 Alpha  occ. eigenvalues --   -0.64729  -0.62878  -0.28093  -0.25617  -0.25617
 Alpha virt. eigenvalues --   -0.17035  -0.17035  -0.14239   0.02348   0.03169
 Alpha virt. eigenvalues --    0.04518   0.04518   0.06284   0.06388   0.06388
 Alpha virt. eigenvalues --    0.10728   0.29595   0.29595   0.30072   0.32904

  Beta  occ. eigenvalues --  -78.12189 -78.12189  -6.93779  -6.93778  -5.05070
  Beta  occ. eigenvalues --   -5.05069  -5.05068  -5.05068  -5.05068  -5.05068
  Beta  occ. eigenvalues --   -0.64729  -0.62878  -0.28093  -0.25617  -0.25617
  Beta virt. eigenvalues --   -0.17035  -0.17035  -0.14239   0.02348   0.03169
  Beta virt. eigenvalues --    0.04518   0.04518   0.06284   0.06388   0.06388
  Beta virt. eigenvalues --    0.10728   0.29595   0.29595   0.30072   0.32904

 Mulliken charges and spin densities:
               1          2
     1  P   -0.000000   0.000000
     2  P   -0.000000   0.000000
 Sum of Mulliken charges =  -0.00000   0.00000

 Dipole moment (field-independent basis, Debye):
    X=             -0.0000    Y=             -0.0000    Z=              0.0000  Tot=              0.0000
 Quadrupole moment (field-independent basis, Debye-Ang):
   XX=            -29.4517   YY=            -29.4517   ZZ=            -24.2451
   XY=              0.0000   XZ=             -0.0000   YZ=              0.0000

 Summary of Natural Population Analysis:

                                       Natural Population
                Natural  -----------------------------------------------
    Atom  No    Charge         Core      Valence    Rydberg      Total
 -----------------------------------------------------------------------
      P    1   -0.00000      5.00000     2.49937    0.00063     7.50000
      P    2   -0.00000      5.00000     2.49937    0.00063     7.50000
 =======================================================================
   * Total *   -0.00000      9.99999     4.99874    0.00127    15.00000

 Normal termination of Gaussian 16 at Mon Apr 21 21:21:29 2025.
