 Gaussian 16, Revision A.03,
 Gaussian 16:  ES64L-G16RevA.03 25-Dec-2016

 --------------------------------------------
 #p opt UM062X/6-311+G** nosymm int=superfine
 --------------------------------------------

 -------------------
 Title Card Required
 -------------------
 Symbolic Z-matrix:
 Charge =  1 Multiplicity = 2

 SCF Done:  E(UM062X) =  -580.872696961     A.U. after   14 cycles
 SCF Done:  E(UM062X) =  -580.879821362     A.U. after   12 cycles
 SCF Done:  E(UM062X) =  -580.881797693     A.U. after    9 cycles
 SCF Done:  E(UM062X) =  -580.881800209     A.U. after   10 cycles
 Optimization completed.
    -- Stationary point found.

                          Input orientation:
 ---------------------------------------------------------------------
 Center     Atomic      Atomic             Coordinates (Angstroms)
 Number     Number       Type             X           Y           Z
 ---------------------------------------------------------------------
      1         14           0       -2.041295    0.000000    0.000000
      2         14           0        2.041295    0.000000    0.000000
      3          1           0       -2.936049   -1.191215    0.000025
      4          1           0        2.936049    1.191214    0.001056
      5          1           0       -2.936064    1.191204   -0.000097
      6          1           0        2.936064   -1.191203   -0.001128
 ---------------------------------------------------------------------

 Alpha  occ. eigenvalues --  -67.24453 -67.24453  -5.78939  -5.78937  -4.10212
 Alpha  occ. eigenvalues --   -4.10211  -4.09884  -4.09884  -4.09545  -4.09545
 Alpha  occ. eigenvalues --   -0.78555  -0.78285  -0.60288  -0.60217  -0.50686
 Alpha  occ. eigenvalues --   -0.46810
 Alpha virt. eigenvalues --   -0.27623  -0.26590  -0.13302  -0.12077  -0.09284
 Alpha virt. eigenvalues --   -0.08015  -0.07801  -0.07525  -0.06797  -0.06217
 Alpha virt. eigenvalues --   -0.06090  -0.05759  -0.05616  -0.03415   0.13281

  Beta  occ. eigenvalues --  -67.24104 -67.24104  -5.78667  -5.78666  -4.10106
  Beta  occ. eigenvalues --   -4.10106  -4.09430  -4.09430  -4.09099  -4.09098
  Beta  occ. eigenvalues --   -0.76732  -0.76306  -0.59111  -0.59022  -0.44708
  Beta virt. eigenvalues --   -0.32018  -0.26433  -0.25201  -0.12279  -0.11618
  Beta virt. eigenvalues --   -0.09384  -0.07546  -0.07297  -0.06557  -0.06461
  Beta virt. eigenvalues --   -0.05969  -0.05568  -0.05352  -0.05324  -0.03025

 Mulliken charges and spin densities:
               1          2
     1  Si   0.556343   0.385842
     2  Si   0.556343   0.385842
     3  H   -0.028172   0.057079
     4  H   -0.028172   0.057079
     5  H   -0.028171   0.057079
     6  H   -0.028171   0.057079
 Sum of Mulliken charges =   1.00000   1.00000

 Dipole moment (field-independent basis, Debye):
    X=              0.0000    Y=              0.0000    Z=             -0.0000  Tot=              0.0000
 Quadrupole moment (field-independent basis, Debye-Ang):
   XX=             -0.8360   YY=            -25.8023   ZZ=            -20.8260
   XY=             -0.0000   XZ=              0.0000   YZ=             -0.0022

 Normal termination of Gaussian 16 at Mon Apr 21 20:21:38 2025.
