 Gaussian 16, Revision A.03,
 Gaussian 16:  ES64L-G16RevA.03 25-Dec-2016

 --------------------------------------------
 #p opt UM062X/6-311+G** nosymm int=superfine
 --------------------------------------------

 -------------------
 Title Card Required
 -------------------
 Symbolic Z-matrix:
 Charge =  0 Multiplicity = 3

 SCF Done:  E(UM062X) =  -39.1368900273     A.U. after   10 cycles
 SCF Done:  E(UM062X) =  -39.1412580804     A.U. after   10 cycles
 SCF Done:  E(UM062X) =  -39.1418939758     A.U. after   10 cycles
 SCF Done:  E(UM062X) =  -39.1418952780     A.U. after    7 cycles
 Optimization completed.
    -- Stationary point found.

                          Input orientation:
 ---------------------------------------------------------------------
 Center     Atomic      Atomic             Coordinates (Angstroms)
 Number     Number       Type             X           Y           Z
 ---------------------------------------------------------------------
      1          6           0       -0.907365   -0.000065   -0.000014
      2          1           0       -1.325127   -0.993881    0.000013
      3          1           0       -1.326325    0.993248   -0.000151
 ---------------------------------------------------------------------

 Alpha  occ. eigenvalues --  -10.57319  -0.76757  -0.52572  -0.34343  -0.30446
 Alpha virt. eigenvalues --    0.04596   0.05773   0.08324   0.08751   0.16288
 Alpha virt. eigenvalues --    0.21418   0.43516   0.47237   0.56991   0.57891
 Alpha virt. eigenvalues --    0.67585   0.70753   1.06140   1.22561   1.25124

  Beta  occ. eigenvalues --  -10.55501  -0.67891  -0.50473
  Beta virt. eigenvalues --   -0.06205  -0.03570   0.03144   0.06531   0.13576
  Beta virt. eigenvalues --    0.14684   0.19159   0.22185   0.44454   0.44658
  Beta virt. eigenvalues --    0.58837   0.59056   0.75772   0.76280   1.19370

 Mulliken charges and spin densities:
               1          2
     1  C   -0.354689   2.063655
     2  H    0.177344  -0.031827
     3  H    0.177344  -0.031828
 Sum of Mulliken charges =  -0.00000   2.00000

 Dipole moment (field-independent basis, Debye):
    X=             -0.6866    Y=             -0.0004    Z=             -0.0001  Tot=              0.6866
 Quadrupole moment (field-independent basis, Debye-Ang):
   XX=             -6.4528   YY=             -5.8981   ZZ=             -8.3964
   XY=             -0.0007   XZ=              0.0002   YZ=             -0.0002

 1\1\GINC-NODE02\FOpt\UM062X\6-311+G(d,p)\C1H2(3)\SZHAO\16-Apr-2025\0\\
 #p opt UM062X/6-311+G** nosymm int=superfine\\Title Card Required\\0,3
 \C,-0.9073650167,-0.000064706,-0.0000139073\H,-1.3251271882,-0.9938814
 033,0.0000126262\H,-1.326325305,0.9932477793,-0.0001510289\\Version=ES
 64L-G16RevA.03\HF=-39.1418953\S2=2.006279\S2-1=0.\S2A=2.000011\RMSD=8.
 229e-09\RMSF=2.603e-05\Dipole=-0.2701406,-0.0001628,-0.0000357\Quadrup
 ole=0.3442037,0.7566005,-1.1008042,-0.000495,0.000137,-0.0001529\PG=C0
 1 [X(C1H2)]\\@

 Normal termination of Gaussian 16 at Wed Apr 16 08:42:15 2025.
