 Gaussian 16, Revision A.03,
 Gaussian 16:  ES64L-G16RevA.03 25-Dec-2016

 --------------------------------------------
 #p opt UM062X/6-311+G** nosymm int=superfine
 --------------------------------------------

 -------------------
 Title Card Required
 -------------------
 Symbolic Z-matrix:
 Charge =  1 Multiplicity = 2

 SCF Done:  E(UM062X) =  -76.8599181839     A.U. after   41 cycles
 SCF Done:  E(UM062X) =  -76.8743596672     A.U. after   10 cycles
 SCF Done:  E(UM062X) =  -76.8744076701     A.U. after    8 cycles
 Optimization completed.
    -- Stationary point found.

                          Input orientation:
 ---------------------------------------------------------------------
 Center     Atomic      Atomic             Coordinates (Angstroms)
 Number     Number       Type             X           Y           Z
 ---------------------------------------------------------------------
      1          6           0       -0.565422    0.000000    0.000000
      2          6           0        0.565422    0.000000    0.000000
      3          1           0       -1.643206   -0.000000    0.000000
      4          1           0        1.643206   -0.000000    0.000000
 ---------------------------------------------------------------------

 Alpha  occ. eigenvalues --  -10.92288 -10.91802  -1.27083  -0.96332  -0.90421
 Alpha  occ. eigenvalues --   -0.76491  -0.73494
 Alpha virt. eigenvalues --   -0.24154  -0.22205  -0.14594  -0.14539  -0.11768
 Alpha virt. eigenvalues --   -0.10771  -0.10495  -0.04378  -0.04368  -0.03855
 Alpha virt. eigenvalues --    0.02349   0.04524   0.17828   0.18156   0.27853

  Beta  occ. eigenvalues --  -10.92012 -10.91559  -1.21911  -0.94778  -0.89787
  Beta  occ. eigenvalues --   -0.70907
  Beta virt. eigenvalues --   -0.48407  -0.20749  -0.18606  -0.15643  -0.13940
  Beta virt. eigenvalues --   -0.11799  -0.11006  -0.10646  -0.03802  -0.03559
  Beta virt. eigenvalues --   -0.02769   0.02317   0.04840   0.18572   0.18614

 Mulliken charges and spin densities:
               1          2
     1  C    0.209892   0.519524
     2  C    0.209892   0.519524
     3  H    0.290108  -0.019524
     4  H    0.290108  -0.019524
 Sum of Mulliken charges =   1.00000   1.00000

 Dipole moment (field-independent basis, Debye):
    X=             -0.0000    Y=             -0.0000    Z=              0.0000  Tot=              0.0000
 Quadrupole moment (field-independent basis, Debye-Ang):
   XX=             -1.2606   YY=            -10.2214   ZZ=            -10.0575
   XY=             -0.0000   XZ=             -0.0000   YZ=             -0.8470

 Normal termination of Gaussian 16 at Tue Nov 19 12:59:09 2024.
