 Gaussian 16, Revision A.03,
 Gaussian 16:  ES64L-G16RevA.03 25-Dec-2016

 --------------------------------------------
 #p opt UM062X/6-311+G** nosymm int=superfine
 --------------------------------------------

 -------------------
 Title Card Required
 -------------------
 Symbolic Z-matrix:
 Charge =  0 Multiplicity = 1

 SCF Done:  E(UM062X) =  -683.595653497     A.U. after   11 cycles
 SCF Done:  E(UM062X) =  -683.596018160     A.U. after   10 cycles
 SCF Done:  E(UM062X) =  -683.596539731     A.U. after   11 cycles
 SCF Done:  E(UM062X) =  -683.596604553     A.U. after   16 cycles
 Optimization completed.
    -- Stationary point found.

                          Input orientation:
 ---------------------------------------------------------------------
 Center     Atomic      Atomic             Coordinates (Angstroms)
 Number     Number       Type             X           Y           Z
 ---------------------------------------------------------------------
      1         15           0       -2.109490    0.000000    0.000000
      2         15           0        2.109490    0.000000    0.000000
      3          1           0       -1.975375   -1.417260    0.000000
      4          1           0        1.975375    1.417260    0.000000
 ---------------------------------------------------------------------

 Alpha  occ. eigenvalues --  -78.08432 -78.08432  -6.90467  -6.90467  -5.01877
 Alpha  occ. eigenvalues --   -5.01877  -5.01859  -5.01859  -5.01679  -5.01679
 Alpha  occ. eigenvalues --   -0.68678  -0.68064  -0.40580  -0.40446  -0.25660
 Alpha  occ. eigenvalues --   -0.24096
 Alpha virt. eigenvalues --   -0.16999  -0.15347   0.01931   0.03033   0.03708
 Alpha virt. eigenvalues --    0.04505   0.05560   0.05935   0.06430   0.07577
 Alpha virt. eigenvalues --    0.08424   0.11557   0.28319   0.29530   0.30394

  Beta  occ. eigenvalues --  -78.08432 -78.08432  -6.90467  -6.90467  -5.01877
  Beta  occ. eigenvalues --   -5.01877  -5.01859  -5.01859  -5.01679  -5.01679
  Beta  occ. eigenvalues --   -0.68678  -0.68064  -0.40580  -0.40446  -0.25660
  Beta  occ. eigenvalues --   -0.24096
  Beta virt. eigenvalues --   -0.16999  -0.15347   0.01931   0.03033   0.03708
  Beta virt. eigenvalues --    0.04505   0.05560   0.05935   0.06430   0.07577
  Beta virt. eigenvalues --    0.08424   0.11557   0.28319   0.29530   0.30394

 Mulliken charges and spin densities:
               1          2
     1  P    0.009798  -0.000000
     2  P    0.009798   0.000000
     3  H   -0.009798   0.000000
     4  H   -0.009798  -0.000000
 Sum of Mulliken charges =  -0.00000  -0.00000

 Dipole moment (field-independent basis, Debye):
    X=             -0.0000    Y=             -0.0000    Z=              0.0000  Tot=              0.0000
 Quadrupole moment (field-independent basis, Debye-Ang):
   XX=            -26.8306   YY=            -28.4972   ZZ=            -30.8144
   XY=              3.2830   XZ=              0.0000   YZ=              0.0000

 Normal termination of Gaussian 16 at Mon Apr 21 21:14:04 2025.
