 Gaussian 16, Revision A.03,
 Gaussian 16:  ES64L-G16RevA.03 25-Dec-2016

 --------------------------------------------
 #p opt UM062X/6-311+G** nosymm int=superfine
 --------------------------------------------

 -------------------
 Title Card Required
 -------------------
 Symbolic Z-matrix:
 Charge = -1 Multiplicity = 2

 SCF Done:  E(UM062X) =  -53.1931226117     A.U. after   12 cycles
 SCF Done:  E(UM062X) =  -53.1982079516     A.U. after   10 cycles
 SCF Done:  E(UM062X) =  -53.1993713008     A.U. after   11 cycles
 SCF Done:  E(UM062X) =  -53.1993782923     A.U. after    8 cycles
 Optimization completed.
    -- Stationary point found.

                          Input orientation:
 ---------------------------------------------------------------------
 Center     Atomic      Atomic             Coordinates (Angstroms)
 Number     Number       Type             X           Y           Z
 ---------------------------------------------------------------------
      1          5           0       -2.415672    0.000000    0.000000
      2          5           0        2.415672    0.000000    0.000000
      3          1           0        2.462346   -1.197047   -0.000016
      4          1           0       -2.462239   -0.598517    1.036678
      5          1           0        2.462411    0.598534   -1.036661
      6          1           0        2.462167    0.598503    1.036689
      7          1           0       -2.462355    1.197047   -0.000001
      8          1           0       -2.462330   -0.598521   -1.036672
 ---------------------------------------------------------------------

 Alpha  occ. eigenvalues --   -6.85550  -6.85550  -0.40777  -0.40563  -0.22680
 Alpha  occ. eigenvalues --   -0.22680  -0.22602  -0.22602   0.01509
 Alpha virt. eigenvalues --    0.09625   0.16275   0.17413   0.17413   0.17958
 Alpha virt. eigenvalues --    0.17958   0.18117   0.23537   0.23921   0.32644
 Alpha virt. eigenvalues --    0.32645   0.33292   0.33292   0.34017   0.38379

  Beta  occ. eigenvalues --   -6.85513  -6.85513  -0.39141  -0.38996  -0.22537
  Beta  occ. eigenvalues --   -0.22537  -0.22437  -0.22437
  Beta virt. eigenvalues --    0.04713   0.12630   0.12816   0.13889   0.13891
  Beta virt. eigenvalues --    0.17342   0.17342   0.19179   0.22617   0.24511
  Beta virt. eigenvalues --    0.31499   0.31632   0.31633   0.32314   0.32315

 Mulliken charges and spin densities:
               1          2
     1  B   -0.365585   0.544955
     2  B   -0.365585   0.544955
     3  H   -0.044781  -0.014956
     4  H   -0.044815  -0.015000
     5  H   -0.044822  -0.015000
     6  H   -0.044812  -0.014999
     7  H   -0.044782  -0.014956
     8  H   -0.044818  -0.015000
 Sum of Mulliken charges =  -1.00000   1.00000

 Dipole moment (field-independent basis, Debye):
    X=              0.0000    Y=             -0.0000    Z=              0.0001  Tot=              0.0001
 Quadrupole moment (field-independent basis, Debye-Ang):
   XX=            -51.5181   YY=            -24.3935   ZZ=            -24.3936
   XY=              0.0001   XZ=              0.0000   YZ=              0.0000

 Normal termination of Gaussian 16 at Mon Apr 21 16:59:15 2025.
