 Gaussian 16, Revision A.03,
 Gaussian 16:  ES64L-G16RevA.03 25-Dec-2016

 ---------------------------------------------------
 #p UM062X/6-311+G** force int=superfine pop=saveNBO
 ---------------------------------------------------

 -------------------
 Title Card Required
 -------------------
 Symbolic Z-matrix:
 Charge =  0 Multiplicity = 1

                         Standard orientation:
 ---------------------------------------------------------------------
 Center     Atomic      Atomic             Coordinates (Angstroms)
 Number     Number       Type             X           Y           Z
 ---------------------------------------------------------------------
      1          6           0        0.000000    0.000000   -2.820794
      2         16           0        0.000000    0.000000    1.057798
 ---------------------------------------------------------------------

 SCF Done:  E(UM062X) =  -435.746794047     A.U. after   20 cycles

 The electronic state is 1-SG.
 Alpha  occ. eigenvalues --  -89.93482 -10.82537  -8.29310  -6.21109  -6.21109
 Alpha  occ. eigenvalues --   -6.21026  -0.73112  -0.71080  -0.29532  -0.28282
 Alpha  occ. eigenvalues --   -0.28282
 Alpha virt. eigenvalues --   -0.20629  -0.20629  -0.18969   0.02580   0.05614
 Alpha virt. eigenvalues --    0.05737   0.05737   0.08387   0.08387   0.08450
 Alpha virt. eigenvalues --    0.13513   0.35545   0.36349   0.36349   0.51473

  Beta  occ. eigenvalues --  -89.93482 -10.82537  -8.29310  -6.21109  -6.21109
  Beta  occ. eigenvalues --   -6.21026  -0.73112  -0.71080  -0.29532  -0.28282
  Beta  occ. eigenvalues --   -0.28282
  Beta virt. eigenvalues --   -0.20629  -0.20629  -0.18969   0.02580   0.05614
  Beta virt. eigenvalues --    0.05737   0.05737   0.08387   0.08387   0.08450
  Beta virt. eigenvalues --    0.13513   0.35545   0.36349   0.36349   0.51473

 Mulliken charges and spin densities:
               1          2
     1  C    0.218167   0.000001
     2  S   -0.218167  -0.000001
 Sum of Mulliken charges =  -0.00000   0.00000

 Dipole moment (field-independent basis, Debye):
    X=              0.0000    Y=              0.0000    Z=             -4.0487  Tot=              4.0487
 Quadrupole moment (field-independent basis, Debye-Ang):
   XX=            -20.9130   YY=            -20.9130   ZZ=            -11.1174
   XY=              0.0000   XZ=              0.0000   YZ=              0.0000

 Summary of Natural Population Analysis:

                                       Natural Population
                Natural  -----------------------------------------------
    Atom  No    Charge         Core      Valence    Rydberg      Total
 -----------------------------------------------------------------------
      C    1    0.12337      1.00000     1.87618    0.00045     2.87663
      S    2   -0.12337      5.00000     3.12312    0.00025     8.12337
 =======================================================================
   * Total *   -0.00000      6.00000     4.99930    0.00070    11.00000

 Normal termination of Gaussian 16 at Mon Apr 21 19:46:13 2025.
