 Gaussian 16, Revision A.03,
 Gaussian 16:  ES64L-G16RevA.03 25-Dec-2016

 --------------------------------------------
 #p opt UM062X/6-311+G** nosymm int=superfine
 --------------------------------------------

 -------------------
 Title Card Required
 -------------------
 Symbolic Z-matrix:
 Charge =  0 Multiplicity = 1

 SCF Done:  E(UM062X) =  -95.5749121408     A.U. after   18 cycles
 SCF Done:  E(UM062X) =  -95.5898326995     A.U. after   13 cycles
 SCF Done:  E(UM062X) =  -95.6002876110     A.U. after   14 cycles
 SCF Done:  E(UM062X) =  -95.6007181707     A.U. after   13 cycles
 SCF Done:  E(UM062X) =  -95.6012299083     A.U. after   14 cycles
 SCF Done:  E(UM062X) =  -95.6015545033     A.U. after   13 cycles
 SCF Done:  E(UM062X) =  -95.6016615594     A.U. after   13 cycles
 SCF Done:  E(UM062X) =  -95.6016902188     A.U. after   12 cycles
 SCF Done:  E(UM062X) =  -95.6016926515     A.U. after   11 cycles
 SCF Done:  E(UM062X) =  -95.6016931480     A.U. after   10 cycles
 SCF Done:  E(UM062X) =  -95.6016948657     A.U. after   11 cycles
 SCF Done:  E(UM062X) =  -95.6016959063     A.U. after   11 cycles
 SCF Done:  E(UM062X) =  -95.6016962335     A.U. after   11 cycles
 Optimization completed.
    -- Stationary point found.

                          Input orientation:
 ---------------------------------------------------------------------
 Center     Atomic      Atomic             Coordinates (Angstroms)
 Number     Number       Type             X           Y           Z
 ---------------------------------------------------------------------
      1          6           0       -2.005542    0.000000    0.000000
      2          7           0        2.005542    0.000000    0.000000
      3          1           0        1.947478   -1.014710    0.140038
      4          1           0       -1.979585    1.080105    0.013122
      5          1           0        1.948248    0.370584    0.954993
      6          1           0       -1.979639   -0.525934   -0.943500
      7          1           0       -2.126399   -0.549552    0.922641
 ---------------------------------------------------------------------

 Alpha  occ. eigenvalues --  -14.74731 -10.62162  -0.90154  -0.81142  -0.53324
 Alpha  occ. eigenvalues --   -0.53179  -0.50671  -0.35901  -0.24317
 Alpha virt. eigenvalues --   -0.15055   0.01747   0.04559   0.04855   0.07033
 Alpha virt. eigenvalues --    0.09937   0.12984   0.15807   0.16717   0.16722
 Alpha virt. eigenvalues --    0.17645   0.20409   0.21977   0.26598   0.41034

  Beta  occ. eigenvalues --  -14.74731 -10.62162  -0.90154  -0.81142  -0.53324
  Beta  occ. eigenvalues --   -0.53179  -0.50671  -0.35901  -0.24317
  Beta virt. eigenvalues --   -0.15055   0.01747   0.04559   0.04855   0.07033
  Beta virt. eigenvalues --    0.09937   0.12984   0.15807   0.16717   0.16722
  Beta virt. eigenvalues --    0.17645   0.20409   0.21977   0.26598   0.41034

 Mulliken charges and spin densities:
               1          2
     1  C   -0.426167  -0.000000
     2  N   -0.578332   0.000000
     3  H    0.209476  -0.000000
     4  H    0.198276   0.000000
     5  H    0.209481  -0.000000
     6  H    0.198329   0.000000
     7  H    0.188937   0.000000
 Sum of Mulliken charges =   0.00000  -0.00000

 Dipole moment (field-independent basis, Debye):
    X=             -3.5682    Y=             -1.0040    Z=              1.7069  Tot=              4.0809
 Quadrupole moment (field-independent basis, Debye-Ang):
   XX=            -15.9349   YY=            -13.4622   ZZ=            -14.2711
   XY=             -2.0299   XZ=              3.4547   YZ=              0.7281

 Normal termination of Gaussian 16 at Mon Apr 21 18:18:30 2025.
