 Gaussian 16, Revision A.03,
 Gaussian 16:  ES64L-G16RevA.03 25-Dec-2016

 ---------------------------------------
 #p UM062X/6-311+G** force int=superfine
 ---------------------------------------

 -------------------
 Title Card Required
 -------------------
 Symbolic Z-matrix:
 Charge =  0 Multiplicity = 1

                         Standard orientation:
 ---------------------------------------------------------------------
 Center     Atomic      Atomic             Coordinates (Angstroms)
 Number     Number       Type             X           Y           Z
 ---------------------------------------------------------------------
      1          6           0        0.725407    0.000002   -0.000001
      2          6           0       -0.725407   -0.000002    0.000001
      3          1           0       -1.137861   -0.920579    0.422104
      4          1           0        1.137853   -0.094729    1.008300
      5          1           0       -1.137854    0.094731   -1.008299
      6          1           0       -1.137874    0.825849    0.586179
      7          1           0        1.137861    0.920580   -0.422102
      8          1           0        1.137875   -0.825850   -0.586178
 ---------------------------------------------------------------------

 SCF Done:  E(UM062X) =  -79.7937804403     A.U. after    8 cycles

 The electronic state is 1-A.
 Alpha  occ. eigenvalues --  -10.51679 -10.51626  -0.86403  -0.69585  -0.50855
 Alpha  occ. eigenvalues --   -0.50855  -0.44435  -0.39416  -0.39416
 Alpha virt. eigenvalues --    0.02166   0.04150   0.05395   0.05395   0.08818
 Alpha virt. eigenvalues --    0.08818   0.08853   0.14024   0.18913   0.18913
 Alpha virt. eigenvalues --    0.20790   0.20791   0.24115   0.27739   0.31497

  Beta  occ. eigenvalues --  -10.51679 -10.51626  -0.86403  -0.69585  -0.50855
  Beta  occ. eigenvalues --   -0.50855  -0.44435  -0.39416  -0.39416
  Beta virt. eigenvalues --    0.02166   0.04150   0.05395   0.05395   0.08818
  Beta virt. eigenvalues --    0.08818   0.08853   0.14024   0.18913   0.18913
  Beta virt. eigenvalues --    0.20790   0.20791   0.24115   0.27739   0.31497

 Mulliken charges and spin densities:
               1          2
     1  C   -0.462576   0.000000
     2  C   -0.462576  -0.000000
     3  H    0.154192  -0.000000
     4  H    0.154191  -0.000000
     5  H    0.154191  -0.000000
     6  H    0.154192   0.000000
     7  H    0.154192  -0.000000
     8  H    0.154193  -0.000000
 Sum of Mulliken charges =  -0.00000   0.00000

 Dipole moment (field-independent basis, Debye):
    X=             -0.0000    Y=              0.0000    Z=              0.0000  Tot=              0.0000
 Quadrupole moment (field-independent basis, Debye-Ang):
   XX=            -15.6320   YY=            -14.9684   ZZ=            -14.9685
   XY=             -0.0000   XZ=             -0.0000   YZ=             -0.0000

 Normal termination of Gaussian 16 at Tue Nov 19 12:42:28 2024.
