 Gaussian 16, Revision A.03,
 Gaussian 16:  ES64L-G16RevA.03 25-Dec-2016

 --------------------------------------------
 #p opt UM062X/6-311+G** nosymm int=superfine
 --------------------------------------------

 -------------------
 Title Card Required
 -------------------
 Symbolic Z-matrix:
 Charge =  0 Multiplicity = 1

 SCF Done:  E(UM062X) =  -683.604505561     A.U. after   11 cycles
 SCF Done:  E(UM062X) =  -683.604956905     A.U. after   12 cycles
 SCF Done:  E(UM062X) =  -683.605504878     A.U. after   12 cycles
 SCF Done:  E(UM062X) =  -683.605534313     A.U. after   12 cycles
 Optimization completed.
    -- Stationary point found.

                          Input orientation:
 ---------------------------------------------------------------------
 Center     Atomic      Atomic             Coordinates (Angstroms)
 Number     Number       Type             X           Y           Z
 ---------------------------------------------------------------------
      1         15           0       -2.034490    0.000000    0.000000
      2         15           0        2.034490    0.000000    0.000000
      3          1           0       -1.911203   -1.418150    0.000000
      4          1           0        1.911203    1.418150    0.000000
 ---------------------------------------------------------------------

 Alpha  occ. eigenvalues --  -78.08488 -78.08488  -6.90509  -6.90508  -5.01920
 Alpha  occ. eigenvalues --   -5.01920  -5.01903  -5.01903  -5.01720  -5.01720
 Alpha  occ. eigenvalues --   -0.68739  -0.67996  -0.40589  -0.40417  -0.26068
 Alpha  occ. eigenvalues --   -0.24262
 Alpha virt. eigenvalues --   -0.16809  -0.14910   0.01960   0.03062   0.03727
 Alpha virt. eigenvalues --    0.04542   0.05555   0.05928   0.06457   0.07691
 Alpha virt. eigenvalues --    0.08523   0.11679   0.28158   0.30067   0.30292

  Beta  occ. eigenvalues --  -78.08488 -78.08488  -6.90509  -6.90508  -5.01920
  Beta  occ. eigenvalues --   -5.01920  -5.01903  -5.01903  -5.01720  -5.01720
  Beta  occ. eigenvalues --   -0.68739  -0.67996  -0.40589  -0.40417  -0.26068
  Beta  occ. eigenvalues --   -0.24262
  Beta virt. eigenvalues --   -0.16809  -0.14910   0.01960   0.03062   0.03727
  Beta virt. eigenvalues --    0.04542   0.05555   0.05928   0.06457   0.07691
  Beta virt. eigenvalues --    0.08523   0.11679   0.28158   0.30067   0.30292

 Mulliken charges and spin densities:
               1          2
     1  P    0.008789  -0.000000
     2  P    0.008789   0.000000
     3  H   -0.008789   0.000000
     4  H   -0.008789  -0.000000
 Sum of Mulliken charges =  -0.00000  -0.00000

 Dipole moment (field-independent basis, Debye):
    X=             -0.0000    Y=             -0.0000    Z=              0.0000  Tot=              0.0000
 Quadrupole moment (field-independent basis, Debye-Ang):
   XX=            -26.7393   YY=            -28.4853   ZZ=            -30.8361
   XY=              3.2147   XZ=              0.0000   YZ=              0.0000

 Normal termination of Gaussian 16 at Mon Apr 21 21:13:04 2025.
