 Gaussian 16, Revision A.03,
 Gaussian 16:  ES64L-G16RevA.03 25-Dec-2016

 ---------------------------------------------------
 #p UM062X/6-311+G** force int=superfine pop=saveNBO
 ---------------------------------------------------

 -------------------
 Title Card Required
 -------------------
 Symbolic Z-matrix:
 Charge =  0 Multiplicity = 1

                         Standard orientation:
 ---------------------------------------------------------------------
 Center     Atomic      Atomic             Coordinates (Angstroms)
 Number     Number       Type             X           Y           Z
 ---------------------------------------------------------------------
      1         16           0        0.000000    0.000000    2.100200
      2         16           0        0.000000    0.000000   -2.100200
 ---------------------------------------------------------------------

 SCF Done:  E(UM062X) =  -796.023211167     A.U. after    9 cycles

 Unable to determine electronic state:  partially filled degenerate orbitals.
 Alpha  occ. eigenvalues --  -89.98631 -89.98631  -8.34450  -8.34450  -6.26476
 Alpha  occ. eigenvalues --   -6.26476  -6.26458  -6.26458  -6.25636  -6.25636
 Alpha  occ. eigenvalues --   -0.77990  -0.77452  -0.34801  -0.34474  -0.31928
 Alpha  occ. eigenvalues --   -0.30882
 Alpha virt. eigenvalues --   -0.23949  -0.22832   0.02919   0.03874   0.04671
 Alpha virt. eigenvalues --    0.05089   0.07008   0.07098   0.07443   0.12078
 Alpha virt. eigenvalues --    0.30343   0.32680   0.33515   0.35542   0.36412

  Beta  occ. eigenvalues --  -89.98631 -89.98631  -8.34450  -8.34450  -6.26476
  Beta  occ. eigenvalues --   -6.26476  -6.26458  -6.26458  -6.25636  -6.25636
  Beta  occ. eigenvalues --   -0.77990  -0.77452  -0.34801  -0.34474  -0.31928
  Beta  occ. eigenvalues --   -0.30882
  Beta virt. eigenvalues --   -0.23949  -0.22832   0.02919   0.03874   0.04671
  Beta virt. eigenvalues --    0.05089   0.07008   0.07098   0.07443   0.12078
  Beta virt. eigenvalues --    0.30343   0.32680   0.33515   0.35542   0.36412

 Mulliken charges and spin densities:
               1          2
     1  S    0.000000   0.000000
     2  S    0.000000   0.000000
 Sum of Mulliken charges =   0.00000   0.00000

 Dipole moment (field-independent basis, Debye):
    X=              0.0000    Y=              0.0000    Z=             -0.0000  Tot=              0.0000
 Quadrupole moment (field-independent basis, Debye-Ang):
   XX=            -30.4078   YY=            -25.3656   ZZ=            -22.7762
   XY=              0.0000   XZ=             -0.0000   YZ=              0.0000

 Summary of Natural Population Analysis:

                                       Natural Population
                Natural  -----------------------------------------------
    Atom  No    Charge         Core      Valence    Rydberg      Total
 -----------------------------------------------------------------------
      S    1    0.00000      5.00000     2.99943    0.00058     8.00000
      S    2    0.00000      5.00000     2.99943    0.00058     8.00000
 =======================================================================
   * Total *    0.00000      9.99999     5.99885    0.00116    16.00000

 Normal termination of Gaussian 16 at Mon Apr 21 20:08:43 2025.
