 Gaussian 16, Revision A.03,
 Gaussian 16:  ES64L-G16RevA.03 25-Dec-2016

 --------------------------------------------
 #p opt UM062X/6-311+G** nosymm int=superfine
 --------------------------------------------

 -------------------
 Title Card Required
 -------------------
 Symbolic Z-matrix:
 Charge =  0 Multiplicity = 1

 SCF Done:  E(UM062X) =  -437.343503137     A.U. after   12 cycles
 SCF Done:  E(UM062X) =  -437.344751062     A.U. after   10 cycles
 SCF Done:  E(UM062X) =  -437.345140043     A.U. after   11 cycles
 SCF Done:  E(UM062X) =  -437.344477760     A.U. after   11 cycles
 SCF Done:  E(UM062X) =  -437.345147665     A.U. after    8 cycles
 Optimization completed.
    -- Stationary point found.

                          Input orientation:
 ---------------------------------------------------------------------
 Center     Atomic      Atomic             Coordinates (Angstroms)
 Number     Number       Type             X           Y           Z
 ---------------------------------------------------------------------
      1          6           0       -1.052140    0.000000    0.000000
      2         16           0        1.052140    0.000000    0.000000
      3          1           0       -1.546717   -0.962675    0.000317
      4          1           0       -1.547162    0.962446   -0.000641
 ---------------------------------------------------------------------

 Alpha  occ. eigenvalues --  -89.92311 -10.66996  -8.28115  -6.20208  -6.20067
 Alpha  occ. eigenvalues --   -6.19465  -0.82165  -0.71711  -0.55734  -0.41039
 Alpha  occ. eigenvalues --   -0.32143  -0.30042
 Alpha virt. eigenvalues --   -0.11921  -0.01559   0.02807   0.05026   0.06280
 Alpha virt. eigenvalues --    0.06649   0.08294   0.08520   0.09618   0.14551
 Alpha virt. eigenvalues --    0.16415   0.20653   0.34792   0.36422   0.36864

  Beta  occ. eigenvalues --  -89.92311 -10.66996  -8.28115  -6.20208  -6.20067
  Beta  occ. eigenvalues --   -6.19465  -0.82165  -0.71711  -0.55734  -0.41039
  Beta  occ. eigenvalues --   -0.32143  -0.30042
  Beta virt. eigenvalues --   -0.11921  -0.01559   0.02807   0.05026   0.06280
  Beta virt. eigenvalues --    0.06649   0.08294   0.08520   0.09618   0.14551
  Beta virt. eigenvalues --    0.16415   0.20653   0.34792   0.36422   0.36864

 Mulliken charges and spin densities:
               1          2
     1  C   -0.347762   0.000000
     2  S   -0.075180  -0.000000
     3  H    0.211473  -0.000000
     4  H    0.211469  -0.000000
 Sum of Mulliken charges =   0.00000   0.00000

 Dipole moment (field-independent basis, Debye):
    X=             -2.6874    Y=             -0.0002    Z=             -0.0003  Tot=              2.6874
 Quadrupole moment (field-independent basis, Debye-Ang):
   XX=            -16.9689   YY=            -20.9998   ZZ=            -21.4205
   XY=             -0.0005   XZ=              0.0002   YZ=             -0.0002

 Normal termination of Gaussian 16 at Mon Apr 21 19:41:29 2025.
