 Gaussian 16, Revision A.03,
 Gaussian 16:  ES64L-G16RevA.03 25-Dec-2016

 --------------------------------------------
 #p opt UM062X/6-311+G** nosymm int=superfine
 --------------------------------------------

 -------------------
 Title Card Required
 -------------------
 Symbolic Z-matrix:
 Charge =  0 Multiplicity = 1

 SCF Done:  E(UM062X) =  -76.8915469126     A.U. after   14 cycles
 SCF Done:  E(UM062X) =  -76.8925300500     A.U. after   13 cycles
 SCF Done:  E(UM062X) =  -76.8938116100     A.U. after   15 cycles
 SCF Done:  E(UM062X) =  -76.8941171774     A.U. after   15 cycles
 SCF Done:  E(UM062X) =  -76.8942387893     A.U. after   15 cycles
 SCF Done:  E(UM062X) =  -76.8942541965     A.U. after   12 cycles
 SCF Done:  E(UM062X) =  -76.8942549899     A.U. after   14 cycles
 SCF Done:  E(UM062X) =  -76.8942549976     A.U. after   11 cycles
 Optimization completed.
    -- Stationary point found.

                          Input orientation:
 ---------------------------------------------------------------------
 Center     Atomic      Atomic             Coordinates (Angstroms)
 Number     Number       Type             X           Y           Z
 ---------------------------------------------------------------------
      1          6           0       -1.657625    0.000000    0.000000
      2          6           0        1.657625    0.000000    0.000000
      3          1           0       -1.516573   -0.654195    0.894812
      4          1           0        1.516627    0.654698   -0.894452
 ---------------------------------------------------------------------

 Alpha  occ. eigenvalues --  -10.67520 -10.67518  -0.72997  -0.72000  -0.39068
 Alpha  occ. eigenvalues --   -0.38629  -0.24906
 Alpha virt. eigenvalues --   -0.11053  -0.10496  -0.09065   0.03375   0.04784
 Alpha virt. eigenvalues --    0.07263   0.07414   0.09433   0.09885   0.10911
 Alpha virt. eigenvalues --    0.14254   0.17939   0.19856   0.43671   0.45227

  Beta  occ. eigenvalues --  -10.67520 -10.67518  -0.72997  -0.72000  -0.39068
  Beta  occ. eigenvalues --   -0.38629  -0.24906
  Beta virt. eigenvalues --   -0.11053  -0.10496  -0.09065   0.03375   0.04784
  Beta virt. eigenvalues --    0.07263   0.07414   0.09433   0.09885   0.10911
  Beta virt. eigenvalues --    0.14254   0.17939   0.19856   0.43671   0.45227

 Mulliken charges and spin densities:
               1          2
     1  C   -0.146314   0.000000
     2  C   -0.146322  -0.000000
     3  H    0.146319  -0.000000
     4  H    0.146318   0.000000
 Sum of Mulliken charges =  -0.00000   0.00000

 Dipole moment (field-independent basis, Debye):
    X=              0.0000    Y=              0.0007    Z=              0.0005  Tot=              0.0009
 Quadrupole moment (field-independent basis, Debye-Ang):
   XX=            -16.9063   YY=            -12.8599   ZZ=            -13.6698
   XY=              3.2716   XZ=             -4.4721   YZ=              1.2744

 Normal termination of Gaussian 16 at Tue Dec  3 23:24:33 2024.
