 Gaussian 16, Revision A.03,
 Gaussian 16:  ES64L-G16RevA.03 25-Dec-2016

 ----------------------------------------------------------------------
 #p opt UM062X/6-311+G** nosymm int=superfine SCF=(MaxCycle=200,NoVarAc
 c,noincfock) guess=read
 ----------------------------------------------------------------------

 -------------------
 Title Card Required
 -------------------
 Symbolic Z-matrix:
 Charge =  0 Multiplicity = 1

 SCF Done:  E(UM062X) =  -151.305606684     A.U. after   36 cycles
 SCF Done:  E(UM062X) =  -151.306132616     A.U. after   32 cycles
 SCF Done:  E(UM062X) =  -151.306873636     A.U. after   17 cycles
 SCF Done:  E(UM062X) =  -151.307556702     A.U. after   18 cycles
 SCF Done:  E(UM062X) =  -151.307967646     A.U. after   21 cycles
 SCF Done:  E(UM062X) =  -151.308157446     A.U. after   16 cycles
 SCF Done:  E(UM062X) =  -151.308188847     A.U. after   20 cycles
 SCF Done:  E(UM062X) =  -151.308201493     A.U. after   18 cycles
 SCF Done:  E(UM062X) =  -151.308203420     A.U. after   14 cycles
 SCF Done:  E(UM062X) =  -151.308203433     A.U. after   18 cycles
 Optimization completed.
    -- Stationary point found.

                          Input orientation:
 ---------------------------------------------------------------------
 Center     Atomic      Atomic             Coordinates (Angstroms)
 Number     Number       Type             X           Y           Z
 ---------------------------------------------------------------------
      1          8           0       -1.886938    0.000000    0.000000
      2          8           0        1.886938    0.000000    0.000000
      3          1           0       -1.692793   -0.759073   -0.578398
      4          1           0        1.692981    0.758606    0.579074
 ---------------------------------------------------------------------

 Alpha  occ. eigenvalues --  -19.72407 -19.72406  -1.12983  -1.12797  -0.56755
 Alpha  occ. eigenvalues --   -0.56657  -0.44186  -0.44058  -0.36128
 Alpha virt. eigenvalues --   -0.27247   0.05068   0.07469   0.15077   0.15159
 Alpha virt. eigenvalues --    0.16950   0.18229   0.19689   0.20123   0.20473
 Alpha virt. eigenvalues --    0.30757   0.49081   0.51139   0.99660   1.00964

  Beta  occ. eigenvalues --  -19.72407 -19.72406  -1.12983  -1.12797  -0.56755
  Beta  occ. eigenvalues --   -0.56657  -0.44186  -0.44058  -0.36128
  Beta virt. eigenvalues --   -0.27247   0.05068   0.07469   0.15077   0.15159
  Beta virt. eigenvalues --    0.16950   0.18229   0.19689   0.20123   0.20473
  Beta virt. eigenvalues --    0.30757   0.49081   0.51139   0.99660   1.00964

 Mulliken charges and spin densities:
               1          2
     1  O   -0.267363   0.000000
     2  O   -0.267375  -0.000000
     3  H    0.267370   0.000000
     4  H    0.267368   0.000000
 Sum of Mulliken charges =  -0.00000   0.00000

 Dipole moment (field-independent basis, Debye):
    X=              0.0003    Y=             -0.0009    Z=              0.0013  Tot=              0.0016
 Quadrupole moment (field-independent basis, Debye-Ang):
   XX=            -13.5150   YY=            -10.5822   ZZ=            -11.9169
   XY=              5.2282   XZ=              3.9872   YZ=              2.4332

 Normal termination of Gaussian 16 at Tue Apr 22 00:23:25 2025.
