 Gaussian 16, Revision A.03,
 Gaussian 16:  ES64L-G16RevA.03 25-Dec-2016

 --------------------------------------------
 #p opt UM062X/6-311+G** nosymm int=superfine
 --------------------------------------------

 -------------------
 Title Card Required
 -------------------
 Symbolic Z-matrix:
 Charge =  0 Multiplicity = 1

 SCF Done:  E(UM062X) =  -94.5379288557     A.U. after   11 cycles
 SCF Done:  E(UM062X) =  -94.5413971345     A.U. after   10 cycles
 SCF Done:  E(UM062X) =  -94.5415518768     A.U. after   10 cycles
 SCF Done:  E(UM062X) =  -94.5290763689     A.U. after   13 cycles
 SCF Done:  E(UM062X) =  -94.5412613965     A.U. after   10 cycles
 SCF Done:  E(UM062X) =  -94.5415681643     A.U. after    7 cycles
 SCF Done:  E(UM062X) =  -94.5416105087     A.U. after   10 cycles
 SCF Done:  E(UM062X) =  -94.5416129452     A.U. after    9 cycles
 Optimization completed.
    -- Stationary point found.

                          Input orientation:
 ---------------------------------------------------------------------
 Center     Atomic      Atomic             Coordinates (Angstroms)
 Number     Number       Type             X           Y           Z
 ---------------------------------------------------------------------
      1          6           0       -0.781637    0.000000    0.000000
      2          7           0        0.781637    0.000000    0.000000
      3          1           0       -1.338584   -0.928859   -0.016507
      4          1           0        0.989199   -1.005342   -0.017810
      5          1           0       -1.243268    0.976638    0.017399
 ---------------------------------------------------------------------

 Alpha  occ. eigenvalues --  -14.78825 -10.62877  -0.93943  -0.73905  -0.55356
 Alpha  occ. eigenvalues --   -0.47722  -0.37472  -0.34621
 Alpha virt. eigenvalues --   -0.04681   0.01894   0.03358   0.04942   0.07535
 Alpha virt. eigenvalues --    0.12493   0.15690   0.16166   0.17814   0.20798
 Alpha virt. eigenvalues --    0.22056   0.24588   0.26661   0.44258   0.46531

  Beta  occ. eigenvalues --  -14.78825 -10.62877  -0.93943  -0.73905  -0.55356
  Beta  occ. eigenvalues --   -0.47722  -0.37472  -0.34621
  Beta virt. eigenvalues --   -0.04681   0.01894   0.03358   0.04942   0.07535
  Beta virt. eigenvalues --    0.12493   0.15690   0.16166   0.17814   0.20798
  Beta virt. eigenvalues --    0.22056   0.24588   0.26661   0.44258   0.46531

 Mulliken charges and spin densities:
               1          2
     1  C   -0.274109  -0.000000
     2  N   -0.275654  -0.000000
     3  H    0.169975  -0.000000
     4  H    0.195128   0.000000
     5  H    0.184659  -0.000000
 Sum of Mulliken charges =   0.00000  -0.00000

 Dipole moment (field-independent basis, Debye):
    X=             -2.1654    Y=             -1.4859    Z=             -0.0263  Tot=              2.6263
 Quadrupole moment (field-independent basis, Debye-Ang):
   XX=            -12.7092   YY=            -11.3961   ZZ=            -14.7850
   XY=             -1.9292   XZ=             -0.0342   YZ=              0.0602

 Normal termination of Gaussian 16 at Mon Apr 21 18:20:32 2025.
