 Gaussian 16, Revision A.03,
 Gaussian 16:  ES64L-G16RevA.03 25-Dec-2016

 --------------------------------------------
 #p opt UM062X/6-311+G** nosymm int=superfine
 --------------------------------------------

 -------------------
 Title Card Required
 -------------------
 Symbolic Z-matrix:
 Charge =  0 Multiplicity = 1

 SCF Done:  E(UM062X) =  -115.619961069     A.U. after   11 cycles
 SCF Done:  E(UM062X) =  -115.629755289     A.U. after   10 cycles
 SCF Done:  E(UM062X) =  -115.630882346     A.U. after   10 cycles
 SCF Done:  E(UM062X) =  -115.630888112     A.U. after    8 cycles
 SCF Done:  E(UM062X) =  -115.630889200     A.U. after    8 cycles
 Optimization completed.
    -- Stationary point found.

                          Input orientation:
 ---------------------------------------------------------------------
 Center     Atomic      Atomic             Coordinates (Angstroms)
 Number     Number       Type             X           Y           Z
 ---------------------------------------------------------------------
      1          6           0       -0.982203    0.000000    0.000000
      2          8           0        0.982203    0.000000    0.000000
      3          1           0        1.122574   -0.953528    0.000285
      4          1           0       -1.217486   -0.513810    0.922680
      5          1           0       -1.133463    1.070045   -0.000748
      6          1           0       -1.217534   -0.515093   -0.921954
 ---------------------------------------------------------------------

 Alpha  occ. eigenvalues --  -19.61557 -10.62017  -1.05360  -0.80264  -0.52976
 Alpha  occ. eigenvalues --   -0.52202  -0.47932  -0.38417  -0.35429
 Alpha virt. eigenvalues --   -0.02264   0.01208   0.04863   0.05300   0.07938
 Alpha virt. eigenvalues --    0.15258   0.17508   0.17545   0.20392   0.23038
 Alpha virt. eigenvalues --    0.23495   0.24144   0.33077   0.41397   0.42656

  Beta  occ. eigenvalues --  -19.61557 -10.62017  -1.05360  -0.80264  -0.52976
  Beta  occ. eigenvalues --   -0.52202  -0.47932  -0.38417  -0.35429
  Beta virt. eigenvalues --   -0.02264   0.01208   0.04863   0.05300   0.07938
  Beta virt. eigenvalues --    0.15258   0.17508   0.17545   0.20392   0.23038
  Beta virt. eigenvalues --    0.23495   0.24144   0.33077   0.41397   0.42656

 Mulliken charges and spin densities:
               1          2
     1  C   -0.304690   0.000000
     2  O   -0.484742  -0.000000
     3  H    0.232648   0.000000
     4  H    0.180070   0.000000
     5  H    0.196660  -0.000000
     6  H    0.180054  -0.000000
 Sum of Mulliken charges =  -0.00000  -0.00000

 Dipole moment (field-independent basis, Debye):
    X=             -2.8608    Y=             -1.5331    Z=              0.0005  Tot=              3.2457
 Quadrupole moment (field-independent basis, Debye-Ang):
   XX=            -13.4778   YY=            -11.4485   ZZ=            -13.8136
   XY=             -2.1145   XZ=              0.0007   YZ=             -0.0007

 Normal termination of Gaussian 16 at Mon Apr 21 18:40:38 2025.
