 Gaussian 16, Revision A.03,
 Gaussian 16:  ES64L-G16RevA.03 25-Dec-2016

 --------------------------------------------
 #p opt UM062X/6-311+G** nosymm int=superfine
 --------------------------------------------

 -------------------
 Title Card Required
 -------------------
 Symbolic Z-matrix:
 Charge =  1 Multiplicity = 2

 SCF Done:  E(UM062X) =  -75.7026572876     A.U. after   13 cycles
 SCF Done:  E(UM062X) =  -75.8085000435     A.U. after   11 cycles
 SCF Done:  E(UM062X) =  -75.9481188995     A.U. after   11 cycles
 SCF Done:  E(UM062X) =  -76.0414866721     A.U. after   12 cycles
 SCF Done:  E(UM062X) =  -76.0620793178     A.U. after   11 cycles
 SCF Done:  E(UM062X) =  -76.0662342720     A.U. after   10 cycles
 SCF Done:  E(UM062X) =  -76.0671646139     A.U. after    9 cycles
 SCF Done:  E(UM062X) =  -76.0671662325     A.U. after    8 cycles
 Optimization completed.
    -- Stationary point found.

                          Input orientation:
 ---------------------------------------------------------------------
 Center     Atomic      Atomic             Coordinates (Angstroms)
 Number     Number       Type             X           Y           Z
 ---------------------------------------------------------------------
      1          6           0       -0.332239    0.000000    0.000000
      2          6           0        0.332239    0.000000    0.000000
      3          1           0       -1.266483   -0.677625    0.000000
      4          1           0       -1.265557    0.679829    0.000000
      5          1           0        1.266483    0.677625   -0.000000
      6          1           0        1.265557   -0.679829   -0.000000
 ---------------------------------------------------------------------

 Alpha  occ. eigenvalues --  -11.05835 -10.80539  -1.19244  -0.96458  -0.96365
 Alpha  occ. eigenvalues --   -0.89497  -0.84606  -0.53737
 Alpha virt. eigenvalues --   -0.22622  -0.16237  -0.14355  -0.12387  -0.11054
 Alpha virt. eigenvalues --   -0.09401  -0.07968  -0.05808  -0.01348   0.00023
 Alpha virt. eigenvalues --    0.02009   0.02834   0.18410   0.18815   0.22109

  Beta  occ. eigenvalues --  -11.05985 -10.80637  -1.18237  -0.94394  -0.92087
  Beta  occ. eigenvalues --   -0.89449  -0.82541
  Beta virt. eigenvalues --   -0.34175  -0.19467  -0.16101  -0.13994  -0.11960
  Beta virt. eigenvalues --   -0.10895  -0.09210  -0.04074  -0.01539  -0.00213
  Beta virt. eigenvalues --    0.01184   0.03618   0.04342   0.17308   0.17756

 Mulliken charges and spin densities:
               1          2
     1  C   -0.113368   0.068651
     2  C   -0.113368   0.068651
     3  H    0.306624   0.215146
     4  H    0.306744   0.216203
     5  H    0.306624   0.215146
     6  H    0.306744   0.216203
 Sum of Mulliken charges =   1.00000   1.00000

 Dipole moment (field-independent basis, Debye):
    X=             -0.0000    Y=             -0.0000    Z=             -0.0000  Tot=              0.0000
 Quadrupole moment (field-independent basis, Debye-Ang):
   XX=             -2.2197   YY=             -8.3051   ZZ=            -10.7976
   XY=             -0.0062   XZ=             -0.0000   YZ=              0.0000

 Normal termination of Gaussian 16 at Tue Nov 19 10:23:07 2024.
