 Gaussian 16, Revision A.03,
 Gaussian 16:  ES64L-G16RevA.03 25-Dec-2016

 ----------------------------------------------------------------------
 #p opt UM062X/6-311+G** nosymm int=superfine SCF=(MaxCycle=200,NoVarAc
 c,noincfock) guess=read
 ----------------------------------------------------------------------

 -------------------
 Title Card Required
 -------------------
 Symbolic Z-matrix:
 Charge =  0 Multiplicity = 1

 SCF Done:  E(UM062X) =  -81.7138425110     A.U. after   27 cycles
 SCF Done:  E(UM062X) =  -81.7340325168     A.U. after   20 cycles
 SCF Done:  E(UM062X) =  -81.7374818048     A.U. after   14 cycles
 SCF Done:  E(UM062X) =  -81.7424395780     A.U. after   14 cycles
 SCF Done:  E(UM062X) =  -81.7439825552     A.U. after   14 cycles
 SCF Done:  E(UM062X) =  -81.7456956636     A.U. after   15 cycles
 SCF Done:  E(UM062X) =  -81.7459784856     A.U. after   14 cycles
 SCF Done:  E(UM062X) =  -81.7460290088     A.U. after   11 cycles
 SCF Done:  E(UM062X) =  -81.7460616580     A.U. after   13 cycles
 SCF Done:  E(UM062X) =  -81.7460747646     A.U. after   11 cycles
 SCF Done:  E(UM062X) =  -81.7460779225     A.U. after    9 cycles
 Optimization completed.
    -- Stationary point found.

                          Input orientation:
 ---------------------------------------------------------------------
 Center     Atomic      Atomic             Coordinates (Angstroms)
 Number     Number       Type             X           Y           Z
 ---------------------------------------------------------------------
      1          5           0       -1.745399    0.000000    0.000000
      2          7           0        1.745399    0.000000    0.000000
      3          1           0       -2.084806   -1.121337   -0.025128
      4          1           0        1.744627    0.802632    0.637661
      5          1           0       -2.084801    1.121331   -0.025442
      6          1           0        1.744627   -0.802512    0.637811
 ---------------------------------------------------------------------

 Alpha  occ. eigenvalues --  -14.71768  -7.18269  -0.87408  -0.62897  -0.51492
 Alpha  occ. eigenvalues --   -0.48075  -0.33339  -0.24020
 Alpha virt. eigenvalues --   -0.10229  -0.08682   0.00756   0.02753   0.04156
 Alpha virt. eigenvalues --    0.05044   0.09572   0.11776   0.13624   0.17407
 Alpha virt. eigenvalues --    0.20201   0.20704   0.21636   0.28232   0.32442

  Beta  occ. eigenvalues --  -14.71768  -7.18269  -0.87408  -0.62897  -0.51492
  Beta  occ. eigenvalues --   -0.48075  -0.33339  -0.24020
  Beta virt. eigenvalues --   -0.10229  -0.08682   0.00756   0.02753   0.04156
  Beta virt. eigenvalues --    0.05044   0.09572   0.11776   0.13624   0.17407
  Beta virt. eigenvalues --    0.20201   0.20704   0.21636   0.28232   0.32442

 Mulliken charges and spin densities:
               1          2
     1  B    0.160922  -0.000006
     2  N   -0.703629   0.000006
     3  H    0.065625  -0.000000
     4  H    0.205729  -0.000000
     5  H    0.065625  -0.000000
     6  H    0.205729  -0.000000
 Sum of Mulliken charges =  -0.00000   0.00000

 Dipole moment (field-independent basis, Debye):
    X=             -5.0782    Y=              0.0002    Z=              1.8564  Tot=              5.4068
 Quadrupole moment (field-independent basis, Debye-Ang):
   XX=            -14.0047   YY=            -13.4417   ZZ=            -14.5698
   XY=              0.0003   XZ=              3.5484   YZ=             -0.0001

 Normal termination of Gaussian 16 at Mon Apr 21 20:46:52 2025.
