 Gaussian 16, Revision A.03,
 Gaussian 16:  ES64L-G16RevA.03 25-Dec-2016

 --------------------------------------------
 #p opt UM062X/6-311+G** nosymm int=superfine
 --------------------------------------------

 -------------------
 Title Card Required
 -------------------
 Symbolic Z-matrix:
 Charge =  0 Multiplicity = 1

 SCF Done:  E(UM062X) =  -683.658565327     A.U. after   11 cycles
 SCF Done:  E(UM062X) =  -683.659527335     A.U. after   10 cycles
 SCF Done:  E(UM062X) =  -683.659906543     A.U. after   10 cycles
 SCF Done:  E(UM062X) =  -683.659906794     A.U. after   10 cycles
 Optimization completed.
    -- Stationary point found.

                          Input orientation:
 ---------------------------------------------------------------------
 Center     Atomic      Atomic             Coordinates (Angstroms)
 Number     Number       Type             X           Y           Z
 ---------------------------------------------------------------------
      1         15           0       -1.709490    0.000000    0.000000
      2         15           0        1.709490    0.000000    0.000000
      3          1           0       -1.623961   -1.420424    0.000000
      4          1           0        1.623961    1.420424    0.000000
 ---------------------------------------------------------------------

 Alpha  occ. eigenvalues --  -78.08442 -78.08442  -6.90405  -6.90404  -5.01818
 Alpha  occ. eigenvalues --   -5.01818  -5.01812  -5.01811  -5.01620  -5.01620
 Alpha  occ. eigenvalues --   -0.69198  -0.67355  -0.40662  -0.40130  -0.28175
 Alpha  occ. eigenvalues --   -0.25259
 Alpha virt. eigenvalues --   -0.15587  -0.12063   0.01989   0.03136   0.03772
 Alpha virt. eigenvalues --    0.04664   0.05282   0.05914   0.06574   0.08299
 Alpha virt. eigenvalues --    0.08701   0.12138   0.27678   0.29776   0.30192

  Beta  occ. eigenvalues --  -78.08442 -78.08442  -6.90405  -6.90404  -5.01818
  Beta  occ. eigenvalues --   -5.01818  -5.01812  -5.01811  -5.01620  -5.01620
  Beta  occ. eigenvalues --   -0.69198  -0.67355  -0.40662  -0.40130  -0.28175
  Beta  occ. eigenvalues --   -0.25259
  Beta virt. eigenvalues --   -0.15587  -0.12063   0.01989   0.03136   0.03772
  Beta virt. eigenvalues --    0.04664   0.05282   0.05914   0.06574   0.08299
  Beta virt. eigenvalues --    0.08701   0.12138   0.27678   0.29776   0.30192

 Mulliken charges and spin densities:
               1          2
     1  P    0.005609  -0.000000
     2  P    0.005609   0.000000
     3  H   -0.005609   0.000000
     4  H   -0.005609  -0.000000
 Sum of Mulliken charges =  -0.00000   0.00000

 Dipole moment (field-independent basis, Debye):
    X=             -0.0000    Y=              0.0000    Z=              0.0000  Tot=              0.0000
 Quadrupole moment (field-independent basis, Debye-Ang):
   XX=            -27.0712   YY=            -28.3562   ZZ=            -30.8023
   XY=              2.8962   XZ=              0.0000   YZ=              0.0000

 Normal termination of Gaussian 16 at Mon Apr 21 21:13:19 2025.
