 Gaussian 16, Revision A.03,
 Gaussian 16:  ES64L-G16RevA.03 25-Dec-2016

 --------------------------------------------
 #p opt UM062X/6-311+G** nosymm int=superfine
 --------------------------------------------

 -------------------
 Title Card Required
 -------------------
 Symbolic Z-matrix:
 Charge =  0 Multiplicity = 1

 SCF Done:  E(UM062X) =  -77.1545386887     A.U. after    9 cycles
 SCF Done:  E(UM062X) =  -77.1916373861     A.U. after    9 cycles
 SCF Done:  E(UM062X) =  -77.2127180442     A.U. after    9 cycles
 SCF Done:  E(UM062X) =  -77.2128060686     A.U. after    8 cycles
 Optimization completed.
    -- Stationary point found.

                          Input orientation:
 ---------------------------------------------------------------------
 Center     Atomic      Atomic             Coordinates (Angstroms)
 Number     Number       Type             X           Y           Z
 ---------------------------------------------------------------------
      1          6           0       -0.742159    0.000000    0.000000
      2          6           0        0.742159    0.000000    0.000000
      3          1           0       -1.813022    0.000016   -0.000016
      4          1           0        1.813015    0.000010   -0.000010
 ---------------------------------------------------------------------

 Alpha  occ. eigenvalues --  -10.62144 -10.62086  -0.80096  -0.67960  -0.55289
 Alpha  occ. eigenvalues --   -0.32064  -0.32064
 Alpha virt. eigenvalues --   -0.00806  -0.00806   0.01915   0.02407   0.08129
 Alpha virt. eigenvalues --    0.08129   0.09381   0.11096   0.11851   0.11851
 Alpha virt. eigenvalues --    0.18220   0.23367   0.31922   0.46057   0.58647

  Beta  occ. eigenvalues --  -10.62144 -10.62086  -0.80096  -0.67960  -0.55289
  Beta  occ. eigenvalues --   -0.32064  -0.32064
  Beta virt. eigenvalues --   -0.00806  -0.00806   0.01915   0.02407   0.08129
  Beta virt. eigenvalues --    0.08129   0.09381   0.11096   0.11851   0.11851
  Beta virt. eigenvalues --    0.18220   0.23367   0.31922   0.46057   0.58647

 Mulliken charges and spin densities:
               1          2
     1  C   -0.222088  -0.000000
     2  C   -0.222089   0.000000
     3  H    0.222090  -0.000000
     4  H    0.222087   0.000000
 Sum of Mulliken charges =  -0.00000  -0.00000

 Dipole moment (field-independent basis, Debye):
    X=             -0.0000    Y=              0.0000    Z=             -0.0000  Tot=              0.0000
 Quadrupole moment (field-independent basis, Debye-Ang):
   XX=             -5.8320   YY=            -15.0462   ZZ=            -15.0462
   XY=             -0.0000   XZ=              0.0000   YZ=             -0.0000

 Normal termination of Gaussian 16 at Tue Dec  3 20:08:53 2024.
