 Gaussian 16, Revision A.03,
 Gaussian 16:  ES64L-G16RevA.03 25-Dec-2016

 --------------------------------------------
 #p opt UM062X/6-311+G** nosymm int=superfine
 --------------------------------------------

 -------------------
 Title Card Required
 -------------------
 Symbolic Z-matrix:
 Charge =  0 Multiplicity = 1

 SCF Done:  E(UM062X) =  -78.5625651795     A.U. after    8 cycles
 SCF Done:  E(UM062X) =  -78.5627803550     A.U. after    7 cycles
 SCF Done:  E(UM062X) =  -78.5627944244     A.U. after    6 cycles
 Optimization completed.
    -- Stationary point found.

                          Input orientation:
 ---------------------------------------------------------------------
 Center     Atomic      Atomic             Coordinates (Angstroms)
 Number     Number       Type             X           Y           Z
 ---------------------------------------------------------------------
      1          6           0       -0.676129    0.000000    0.000000
      2          6           0        0.676129    0.000000    0.000000
      3          1           0       -1.239646   -0.925447    0.000000
      4          1           0       -1.239761    0.925313    0.000000
      5          1           0        1.239646    0.925447   -0.000000
      6          1           0        1.239761   -0.925313   -0.000000
 ---------------------------------------------------------------------

 Alpha  occ. eigenvalues --  -10.54270 -10.54170  -0.85576  -0.66551  -0.54184
 Alpha  occ. eigenvalues --   -0.48296  -0.42246  -0.33118
 Alpha virt. eigenvalues --    0.02335   0.03396   0.04055   0.05147   0.07780
 Alpha virt. eigenvalues --    0.08159   0.09724   0.13277   0.16033   0.17327
 Alpha virt. eigenvalues --    0.20097   0.23006   0.31209   0.35409   0.43767

  Beta  occ. eigenvalues --  -10.54270 -10.54170  -0.85576  -0.66551  -0.54184
  Beta  occ. eigenvalues --   -0.48296  -0.42246  -0.33118
  Beta virt. eigenvalues --    0.02335   0.03396   0.04055   0.05147   0.07780
  Beta virt. eigenvalues --    0.08159   0.09724   0.13277   0.16033   0.17327
  Beta virt. eigenvalues --    0.20097   0.23006   0.31209   0.35409   0.43767

 Mulliken charges and spin densities:
               1          2
     1  C   -0.299103   0.000000
     2  C   -0.299103  -0.000000
     3  H    0.149545   0.000000
     4  H    0.149559   0.000000
     5  H    0.149545  -0.000000
     6  H    0.149559  -0.000000
 Sum of Mulliken charges =  -0.00000   0.00000

 Dipole moment (field-independent basis, Debye):
    X=             -0.0000    Y=              0.0000    Z=             -0.0000  Tot=              0.0000
 Quadrupole moment (field-independent basis, Debye-Ang):
   XX=            -12.2303   YY=            -12.3086   ZZ=            -16.0075
   XY=             -0.0003   XZ=             -0.0000   YZ=              0.0000

 Normal termination of Gaussian 16 at Tue Nov 19 10:36:56 2024.
