 Gaussian 16, Revision A.03,
 Gaussian 16:  ES64L-G16RevA.03 25-Dec-2016

 --------------------------------------------
 #p opt UM062X/6-311+G** nosymm int=superfine
 --------------------------------------------

 -------------------
 Title Card Required
 -------------------
 Symbolic Z-matrix:
 Charge = -1 Multiplicity = 2

 SCF Done:  E(UM062X) =  -51.8468490269     A.U. after   12 cycles
 SCF Done:  E(UM062X) =  -51.8468659647     A.U. after   13 cycles
 Optimization completed.
    -- Stationary point found.

                          Input orientation:
 ---------------------------------------------------------------------
 Center     Atomic      Atomic             Coordinates (Angstroms)
 Number     Number       Type             X           Y           Z
 ---------------------------------------------------------------------
      1          5           0       -2.072274    0.000000    0.000000
      2          5           0        2.072274    0.000000    0.000000
      3          1           0       -2.741898   -1.012834   -0.000016
      4          1           0        2.741898    1.012834   -0.000491
      5          1           0       -2.741900    1.012832   -0.000014
      6          1           0        2.741900   -1.012832    0.000461
 ---------------------------------------------------------------------

 Alpha  occ. eigenvalues --   -6.87865  -6.87864  -0.38002  -0.37914  -0.22112
 Alpha  occ. eigenvalues --   -0.22057  -0.05545  -0.02368
 Alpha virt. eigenvalues --    0.11769   0.13033   0.15023   0.15614   0.15708
 Alpha virt. eigenvalues --    0.17503   0.19849   0.20818   0.20858   0.23093
 Alpha virt. eigenvalues --    0.32107   0.33406   0.33989   0.36990   0.50579

  Beta  occ. eigenvalues --   -6.87266  -6.87266  -0.36670  -0.36509  -0.21421
  Beta  occ. eigenvalues --   -0.21351   0.01744
  Beta virt. eigenvalues --    0.12687   0.13091   0.14118   0.14493   0.16317
  Beta virt. eigenvalues --    0.17902   0.18172   0.22180   0.22437   0.24084
  Beta virt. eigenvalues --    0.25291   0.32158   0.33575   0.34127   0.37819

 Mulliken charges and spin densities:
               1          2
     1  B   -0.342432   0.491896
     2  B   -0.342432   0.491896
     3  H   -0.078784   0.004052
     4  H   -0.078784   0.004052
     5  H   -0.078784   0.004052
     6  H   -0.078784   0.004052
 Sum of Mulliken charges =  -1.00000   1.00000

 Dipole moment (field-independent basis, Debye):
    X=              0.0000    Y=             -0.0000    Z=             -0.0001  Tot=              0.0001
 Quadrupole moment (field-independent basis, Debye-Ang):
   XX=            -42.2801   YY=            -24.5141   ZZ=            -18.9943
   XY=              0.0000   XZ=             -0.0000   YZ=              0.0013

 Normal termination of Gaussian 16 at Mon Apr 21 17:26:25 2025.
