 Gaussian 16, Revision A.03,
 Gaussian 16:  ES64L-G16RevA.03 25-Dec-2016

 ---------------------------------------
 #p UM062X/6-311+G** force int=superfine
 ---------------------------------------

 -------------------
 Title Card Required
 -------------------
 Symbolic Z-matrix:
 Charge =  1 Multiplicity = 2

                         Standard orientation:
 ---------------------------------------------------------------------
 Center     Atomic      Atomic             Coordinates (Angstroms)
 Number     Number       Type             X           Y           Z
 ---------------------------------------------------------------------
      1          6           0        0.000000    0.000000    0.646196
      2          6           0        0.000000    0.000000   -0.646196
      3          1           0        0.000000    0.000000    1.728776
      4          1           0        0.000000    0.000000   -1.728776
 ---------------------------------------------------------------------

 SCF Done:  E(UM062X) =  -76.8972406497     A.U. after    8 cycles

 Unable to determine electronic state:  an orbital has unidentified symmetry.
 Alpha  occ. eigenvalues --  -10.95021 -10.94860  -1.21088  -0.97428  -0.89176
 Alpha  occ. eigenvalues --   -0.71592  -0.68980
 Alpha virt. eigenvalues --   -0.28643  -0.26626  -0.16100  -0.14470  -0.11459
 Alpha virt. eigenvalues --   -0.10161  -0.09913  -0.07090  -0.04883  -0.04464
 Alpha virt. eigenvalues --    0.02243   0.04529   0.14739   0.19101   0.29730

  Beta  occ. eigenvalues --  -10.94778 -10.94639  -1.16393  -0.95826  -0.88636
  Beta  occ. eigenvalues --   -0.66526
  Beta virt. eigenvalues --   -0.45508  -0.24994  -0.22014  -0.15608  -0.15048
  Beta virt. eigenvalues --   -0.11610  -0.10440  -0.10153  -0.06650  -0.04362
  Beta virt. eigenvalues --   -0.03787   0.01940   0.04750   0.15311   0.19967

 Mulliken charges and spin densities:
               1          2
     1  C    0.183419   0.519450
     2  C    0.183419   0.519450
     3  H    0.316581  -0.019450
     4  H    0.316581  -0.019450
 Sum of Mulliken charges =   1.00000   1.00000

 Dipole moment (field-independent basis, Debye):
    X=              0.0000    Y=              0.0000    Z=             -0.0000  Tot=              0.0000
 Quadrupole moment (field-independent basis, Debye-Ang):
   XX=             -9.7497   YY=            -11.5938   ZZ=             -0.1615
   XY=              0.0000   XZ=             -0.0000   YZ=              0.0000

 Normal termination of Gaussian 16 at Tue Nov 19 13:31:26 2024.
