 Gaussian 16, Revision A.03,
 Gaussian 16:  ES64L-G16RevA.03 25-Dec-2016

 ---------------------------------------
 #p UM062X/6-311+G** force int=superfine
 ---------------------------------------

 -------------------
 Title Card Required
 -------------------
 Symbolic Z-matrix:
 Charge =  1 Multiplicity = 2

                         Standard orientation:
 ---------------------------------------------------------------------
 Center     Atomic      Atomic             Coordinates (Angstroms)
 Number     Number       Type             X           Y           Z
 ---------------------------------------------------------------------
      1          6           0        0.420637   -0.467935    0.865454
      2          6           0       -0.420633    0.467945   -0.865450
      3          1           0        0.439621    0.319024   -1.509771
      4          1           0        0.571601   -1.441448    0.410637
      5          1           0       -0.571840    1.441511   -0.410827
      6          1           0       -1.268386   -0.202573   -0.960835
      7          1           0       -0.439576   -0.318938    1.509812
      8          1           0        1.268551    0.202363    0.960962
 ---------------------------------------------------------------------

 SCF Done:  E(UM062X) =  -79.3673681913     A.U. after    9 cycles

 The electronic state is 2-A.
 Alpha  occ. eigenvalues --  -10.86014 -10.86005  -1.09406  -1.01807  -0.78106
 Alpha  occ. eigenvalues --   -0.78105  -0.73930  -0.73929  -0.61501
 Alpha virt. eigenvalues --   -0.26245  -0.16238  -0.11035  -0.11035  -0.09908
 Alpha virt. eigenvalues --   -0.07053  -0.06345  -0.06345  -0.05179  -0.05177
 Alpha virt. eigenvalues --   -0.02199   0.01659   0.01662   0.04600   0.07331

  Beta  occ. eigenvalues --  -10.85801 -10.85800  -1.06003  -0.98974  -0.77186
  Beta  occ. eigenvalues --   -0.77185  -0.73179  -0.73178
  Beta virt. eigenvalues --   -0.38390  -0.18905  -0.15991  -0.11098  -0.11098
  Beta virt. eigenvalues --   -0.08634  -0.07188  -0.06613  -0.06613  -0.04781
  Beta virt. eigenvalues --   -0.04779  -0.01337   0.02258   0.02261   0.05067

 Mulliken charges and spin densities:
               1          2
     1  C   -0.312293   0.556207
     2  C   -0.312292   0.556206
     3  H    0.270778  -0.018748
     4  H    0.270753  -0.018726
     5  H    0.270765  -0.018732
     6  H    0.270750  -0.018727
     7  H    0.270779  -0.018748
     8  H    0.270761  -0.018732
 Sum of Mulliken charges =   1.00000   1.00000

 Dipole moment (field-independent basis, Debye):
    X=             -0.0000    Y=             -0.0000    Z=             -0.0000  Tot=              0.0000
 Quadrupole moment (field-independent basis, Debye-Ang):
   XX=            -10.0437   YY=             -9.8610   ZZ=             -7.5624
   XY=             -0.8530   XZ=              1.5779   YZ=             -1.7558

 Normal termination of Gaussian 16 at Wed Nov 13 13:44:26 2024.
