 Gaussian 16, Revision A.03,
 Gaussian 16:  ES64L-G16RevA.03 25-Dec-2016

 --------------------------------------------
 #p opt UM062X/6-311+G** nosymm int=superfine
 --------------------------------------------

 -------------------
 Title Card Required
 -------------------
 Symbolic Z-matrix:
 Charge =  0 Multiplicity = 1

 SCF Done:  E(UM062X) =  -51.9713995453     A.U. after    8 cycles
 SCF Done:  E(UM062X) =  -51.9717993922     A.U. after    8 cycles
 SCF Done:  E(UM062X) =  -51.9719276289     A.U. after    8 cycles
 SCF Done:  E(UM062X) =  -51.9720523256     A.U. after    9 cycles
 SCF Done:  E(UM062X) =  -51.9685913795     A.U. after   10 cycles
 SCF Done:  E(UM062X) =  -51.9744406549     A.U. after   10 cycles
 SCF Done:  E(UM062X) =  -51.9775260302     A.U. after   11 cycles
 SCF Done:  E(UM062X) =  -51.9790321217     A.U. after    9 cycles
 SCF Done:  E(UM062X) =  -51.9765580886     A.U. after   10 cycles
 SCF Done:  E(UM062X) =  -51.9790538004     A.U. after    9 cycles
 SCF Done:  E(UM062X) =  -51.9790677349     A.U. after    8 cycles
 SCF Done:  E(UM062X) =  -51.9790678483     A.U. after    7 cycles
 Optimization completed.
    -- Stationary point found.

                          Input orientation:
 ---------------------------------------------------------------------
 Center     Atomic      Atomic             Coordinates (Angstroms)
 Number     Number       Type             X           Y           Z
 ---------------------------------------------------------------------
      1          5           0       -1.020607    0.000000    0.000000
      2          5           0        1.020607    0.000000    0.000000
      3          1           0       -1.613000   -0.730461   -0.727592
      4          1           0        1.613076    0.727725   -0.730262
      5          1           0       -1.613402    0.730332    0.727374
      6          1           0        1.613310   -0.727637    0.730147
 ---------------------------------------------------------------------

 Alpha  occ. eigenvalues --   -7.06921  -7.06903  -0.59199  -0.54101  -0.41613
 Alpha  occ. eigenvalues --   -0.41612  -0.32027
 Alpha virt. eigenvalues --   -0.03376  -0.03374   0.02305   0.02974   0.04864
 Alpha virt. eigenvalues --    0.04864   0.06828   0.07683   0.07684   0.11094
 Alpha virt. eigenvalues --    0.15247   0.17574   0.20052   0.21976   0.21979

  Beta  occ. eigenvalues --   -7.06921  -7.06903  -0.59199  -0.54101  -0.41613
  Beta  occ. eigenvalues --   -0.41612  -0.32027
  Beta virt. eigenvalues --   -0.03376  -0.03374   0.02305   0.02974   0.04864
  Beta virt. eigenvalues --    0.04864   0.06828   0.07683   0.07684   0.11094
  Beta virt. eigenvalues --    0.15247   0.17574   0.20052   0.21976   0.21979

 Mulliken charges and spin densities:
               1          2
     1  B   -0.030352  -0.000000
     2  B   -0.030350   0.000000
     3  H    0.015171   0.000000
     4  H    0.015174  -0.000000
     5  H    0.015179   0.000000
     6  H    0.015178   0.000000
 Sum of Mulliken charges =  -0.00000   0.00000

 Dipole moment (field-independent basis, Debye):
    X=              0.0000    Y=             -0.0000    Z=              0.0000  Tot=              0.0000
 Quadrupole moment (field-independent basis, Debye-Ang):
   XX=            -16.7747   YY=            -14.9508   ZZ=            -14.9498
   XY=             -0.0002   XZ=             -0.0001   YZ=             -0.0000

 Normal termination of Gaussian 16 at Mon Apr 21 17:05:06 2025.
