 Gaussian 16, Revision A.03,
 Gaussian 16:  ES64L-G16RevA.03 25-Dec-2016

 -------------------------------------------
 #p UM062X/6-31+G** freq=raman int=superfine
 -------------------------------------------

 -------------------
 Title Card Required
 -------------------
 Symbolic Z-matrix:
 Charge =  1 Multiplicity = 2

                         Standard orientation:
 ---------------------------------------------------------------------
 Center     Atomic      Atomic             Coordinates (Angstroms)
 Number     Number       Type             X           Y           Z
 ---------------------------------------------------------------------
      1          6           0       -0.000000    0.701158    0.000000
      2          6           0       -0.000000   -0.701158    0.000000
      3          1           0       -0.920317    1.257996    0.164109
      4          1           0        0.920317    1.257997   -0.164109
      5          1           0        0.920317   -1.257996    0.164109
      6          1           0       -0.920317   -1.257997   -0.164109
 ---------------------------------------------------------------------

 SCF Done:  E(UM062X) =  -78.1700409901     A.U. after   10 cycles

 The electronic state is 2-A.
 Alpha  occ. eigenvalues --  -10.90381 -10.90300  -1.18569  -0.97646  -0.84551
 Alpha  occ. eigenvalues --   -0.79474  -0.73571  -0.65425
 Alpha virt. eigenvalues --   -0.29612  -0.14356  -0.12502  -0.12167  -0.09936
 Alpha virt. eigenvalues --   -0.07685  -0.06601  -0.04577  -0.01223  -0.00532
 Alpha virt. eigenvalues --   -0.00083   0.04397   0.08778   0.14881   0.36219

  Beta  occ. eigenvalues --  -10.90134 -10.90066  -1.14767  -0.95611  -0.83124
  Beta  occ. eigenvalues --   -0.78496  -0.72918
  Beta virt. eigenvalues --   -0.40877  -0.22572  -0.15648  -0.12268  -0.12133
  Beta virt. eigenvalues --   -0.09787  -0.08320  -0.06361  -0.03155  -0.00790
  Beta virt. eigenvalues --   -0.00147   0.00545   0.04709   0.10616   0.15802

 Mulliken charges and spin densities:
               1          2
     1  C   -0.075927   0.535614
     2  C   -0.075927   0.535614
     3  H    0.287963  -0.017807
     4  H    0.287964  -0.017807
     5  H    0.287963  -0.017807
     6  H    0.287964  -0.017807
 Sum of Mulliken charges =   1.00000   1.00000

 Dipole moment (field-independent basis, Debye):
    X=             -0.0000    Y=              0.0000    Z=             -0.0000  Tot=              0.0000
 Quadrupole moment (field-independent basis, Debye-Ang):
   XX=             -8.3963   YY=             -5.4002   ZZ=            -11.5027
   XY=              0.0000   XZ=             -0.0000   YZ=             -0.0000

  Exact polarizability:  17.201   0.000  26.733  -0.000  -0.000  10.235
 Approx polarizability:  17.639   0.000  27.587  -0.000  -0.000  11.511

                      1                      2                      3
                      A                      B                      A
 Frequencies --    418.6311               819.1810               951.2699
 Red. masses --      1.0285                 1.0463                 1.1622
 Frc consts  --      0.1062                 0.4137                 0.6196
 IR Inten    --      0.0000                 5.3598                50.1783
 Raman Activ --      1.0538                 0.1102                 0.3861

                      4                      5                      6
                      B                      A                      A
 Frequencies --   1106.9454              1228.2047              1301.5920
 Red. masses --      1.4810                 1.4614                 1.7995
 Frc consts  --      1.0692                 1.2988                 1.7962
 IR Inten    --      0.0755                 7.2537                 0.0000
 Raman Activ --      0.0010                 1.0275                40.4779

                      7                      8                      9
                      B                      A                      B
 Frequencies --   1463.9190              1568.6295              3170.2381
 Red. masses --      1.1120                 1.6935                 1.0477
 Frc consts  --      1.4041                 2.4552                 6.2040
 IR Inten    --     41.0837                 0.0000                77.3913
 Raman Activ --      0.0241                 5.5029                 3.3734

                     10                     11                     12
                      A                      A                      B
 Frequencies --   3172.3224              3279.0748              3293.5200
 Red. masses --      1.0621                 1.1249                 1.1204
 Frc consts  --      6.2975                 7.1263                 7.1606
 IR Inten    --      0.0000                 1.5980                85.2721
 Raman Activ --    157.5964                75.9931                 1.8415

 - Thermochemistry -
 -------------------
 Temperature   298.150 Kelvin.  Pressure   1.00000 Atm.
 Atom     1 has atomic number  6 and mass  12.00000

 Molecular mass:    28.03130 amu.
 Principal axes and moments of inertia in atomic units:
                           1         2         3
     Eigenvalues --    12.58091  65.30501  77.11050
           X            0.00000   1.00000   0.00000
           Y            1.00000  -0.00000   0.00000
           Z           -0.00000   0.00000   1.00000
 This molecule is an asymmetric top.
 Rotational symmetry number  2.
 Rotational temperatures (Kelvin)      6.88455     1.32630     1.12324
 Rotational constants (GHZ):         143.45074    27.63557    23.40461
 Zero-point vibrational energy     130234.6 (Joules/Mol)
                                   31.12682 (Kcal/Mol)
 Warning -- explicit consideration of   1 degrees of freedom as
           vibrations may cause significant error
 Vibrational temperatures:    602.32  1178.62  1368.67  1592.65  1767.11
          (Kelvin)           1872.70  2106.25  2256.91  4561.27  4564.26
                             4717.86  4738.64

 Zero-point correction=                           0.049604 (Hartree/Particle)
 Thermal correction to Energy=                    0.052905
 Thermal correction to Enthalpy=                  0.053849
 Thermal correction to Gibbs Free Energy=         0.027211
 Sum of electronic and zero-point Energies=            -78.120437
 Sum of electronic and thermal Energies=               -78.117136
 Sum of electronic and thermal Enthalpies=             -78.116192
 Sum of electronic and thermal Free Energies=          -78.142830

                     E (Thermal)             CV                S
                      KCal/Mol        Cal/Mol-Kelvin    Cal/Mol-Kelvin
 Total                   33.199              9.197             56.065
 Electronic               0.000              0.000              1.377
 Translational            0.889              2.981             35.927
 Rotational               0.889              2.981             17.411
 Vibrational             31.421              3.236              1.350
 Vibration     1          0.781              1.430              0.897

 Normal termination of Gaussian 16 at Mon Nov 25 04:46:37 2024.
