 Gaussian 16, Revision A.03,
 Gaussian 16:  ES64L-G16RevA.03 25-Dec-2016

 --------------------------------------------
 #p opt UM062X/6-311+G** nosymm int=superfine
 --------------------------------------------

 -------------------
 Title Card Required
 -------------------
 Symbolic Z-matrix:
 Charge =  1 Multiplicity = 2

 SCF Done:  E(UM062X) =  -582.136966284     A.U. after   11 cycles
 SCF Done:  E(UM062X) =  -582.137718151     A.U. after    9 cycles
 SCF Done:  E(UM062X) =  -582.137907633     A.U. after    9 cycles
 SCF Done:  E(UM062X) =  -582.137907871     A.U. after    7 cycles
 Optimization completed.
    -- Stationary point found.

                          Input orientation:
 ---------------------------------------------------------------------
 Center     Atomic      Atomic             Coordinates (Angstroms)
 Number     Number       Type             X           Y           Z
 ---------------------------------------------------------------------
      1         14           0       -2.301292    0.000000    0.000000
      2         14           0        2.301292    0.000000    0.000000
      3          1           0        2.416727   -1.459961   -0.000007
      4          1           0       -2.416049   -0.729855    1.264502
      5          1           0        2.416560    0.730013   -1.264363
      6          1           0        2.415855    0.729942    1.264470
      7          1           0       -2.416752    1.459959   -0.000128
      8          1           0       -2.416341   -0.730103   -1.264331
 ---------------------------------------------------------------------

 Alpha  occ. eigenvalues --  -67.22490 -67.22490  -5.77327  -5.77326  -4.09011
 Alpha  occ. eigenvalues --   -4.09010  -4.08199  -4.08199  -4.08199  -4.08199
 Alpha  occ. eigenvalues --   -0.81033  -0.80655  -0.61401  -0.61400  -0.61311
 Alpha  occ. eigenvalues --   -0.61310  -0.40528
 Alpha virt. eigenvalues --   -0.29848  -0.12140  -0.11768  -0.09950  -0.09596
 Alpha virt. eigenvalues --   -0.09593  -0.08377  -0.08376  -0.07651  -0.07331
 Alpha virt. eigenvalues --   -0.07329  -0.06142  -0.06136  -0.04716   0.00664

  Beta  occ. eigenvalues --  -67.22221 -67.22221  -5.77247  -5.77245  -4.08383
  Beta  occ. eigenvalues --   -4.08382  -4.08107  -4.08107  -4.08106  -4.08106
  Beta  occ. eigenvalues --   -0.79296  -0.79076  -0.61286  -0.61286  -0.61186
  Beta  occ. eigenvalues --   -0.61185
  Beta virt. eigenvalues --   -0.32171  -0.23176  -0.15340  -0.12673  -0.12671
  Beta virt. eigenvalues --   -0.10855  -0.10792  -0.08873  -0.08873  -0.07320
  Beta virt. eigenvalues --   -0.06910  -0.06910  -0.05775  -0.05775  -0.05625

 Mulliken charges and spin densities:
               1          2
     1  Si   0.502079   0.552157
     2  Si   0.502079   0.552157
     3  H   -0.000706  -0.017409
     4  H   -0.000689  -0.017373
     5  H   -0.000681  -0.017376
     6  H   -0.000691  -0.017372
     7  H   -0.000706  -0.017409
     8  H   -0.000685  -0.017375
 Sum of Mulliken charges =   1.00000   1.00000

 Dipole moment (field-independent basis, Debye):
    X=              0.0000    Y=             -0.0000    Z=              0.0001  Tot=              0.0001
 Quadrupole moment (field-independent basis, Debye-Ang):
   XX=              5.0224   YY=            -26.2282   ZZ=            -26.2277
   XY=              0.0009   XZ=              0.0001   YZ=             -0.0000

 Normal termination of Gaussian 16 at Mon Apr 21 20:11:01 2025.
