 Gaussian 16, Revision A.03,
 Gaussian 16:  ES64L-G16RevA.03 25-Dec-2016

 --------------------------------------------
 #p opt UM062X/6-311+G** nosymm int=superfine
 --------------------------------------------

 -------------------
 Title Card Required
 -------------------
 Symbolic Z-matrix:
 Charge =  0 Multiplicity = 1

 SCF Done:  E(UM062X) =  -110.533317243     A.U. after   10 cycles
 SCF Done:  E(UM062X) =  -110.538850634     A.U. after    9 cycles
 SCF Done:  E(UM062X) =  -110.539500282     A.U. after    9 cycles
 Optimization completed.
    -- Stationary point found.

                          Input orientation:
 ---------------------------------------------------------------------
 Center     Atomic      Atomic             Coordinates (Angstroms)
 Number     Number       Type             X           Y           Z
 ---------------------------------------------------------------------
      1          7           0       -0.790428    0.000000    0.000000
      2          7           0        0.790428    0.000000    0.000000
      3          1           0       -0.928178   -1.019861   -0.000000
      4          1           0        0.928178    1.019861   -0.000000
 ---------------------------------------------------------------------

 Alpha  occ. eigenvalues --  -14.85301 -14.85275  -1.03163  -0.83731  -0.51389
 Alpha  occ. eigenvalues --   -0.50716  -0.39388  -0.37888
 Alpha virt. eigenvalues --   -0.09686   0.05141   0.06134   0.09005   0.11817
 Alpha virt. eigenvalues --    0.13066   0.15440   0.16744   0.16962   0.18562
 Alpha virt. eigenvalues --    0.22187   0.26545   0.54877   0.57894   0.74440

  Beta  occ. eigenvalues --  -14.85301 -14.85275  -1.03163  -0.83731  -0.51389
  Beta  occ. eigenvalues --   -0.50716  -0.39388  -0.37888
  Beta virt. eigenvalues --   -0.09686   0.05141   0.06134   0.09005   0.11817
  Beta virt. eigenvalues --    0.13066   0.15440   0.16744   0.16962   0.18562
  Beta virt. eigenvalues --    0.22187   0.26545   0.54877   0.57894   0.74440

 Mulliken charges and spin densities:
               1          2
     1  N   -0.249085   0.000000
     2  N   -0.249085  -0.000000
     3  H    0.249085  -0.000000
     4  H    0.249085   0.000000
 Sum of Mulliken charges =  -0.00000  -0.00000

 Dipole moment (field-independent basis, Debye):
    X=              0.0000    Y=              0.0000    Z=             -0.0000  Tot=              0.0000
 Quadrupole moment (field-independent basis, Debye-Ang):
   XX=            -13.6635   YY=            -10.5509   ZZ=            -13.2252
   XY=              3.8529   XZ=              0.0000   YZ=              0.0000

 Normal termination of Gaussian 16 at Thu May 15 15:33:00 2025.
