 Gaussian 16, Revision A.03,
 Gaussian 16:  ES64L-G16RevA.03 25-Dec-2016

 --------------------------------------------
 #p opt UM062X/6-311+G** nosymm int=superfine
 --------------------------------------------

 -------------------
 Title Card Required
 -------------------
 Symbolic Z-matrix:
 Charge =  0 Multiplicity = 1

 SCF Done:  E(UM062X) =  -579.978015269     A.U. after    8 cycles
 SCF Done:  E(UM062X) =  -579.978016261     A.U. after    6 cycles
 Optimization completed.
    -- Stationary point found.

                          Input orientation:
 ---------------------------------------------------------------------
 Center     Atomic      Atomic             Coordinates (Angstroms)
 Number     Number       Type             X           Y           Z
 ---------------------------------------------------------------------
      1         14           0       -1.078705    0.000000    0.000000
      2         14           0        1.078705    0.000000    0.000000
      3          1           0       -2.538370   -0.000064   -0.000000
      4          1           0        2.538370    0.000001    0.000000
 ---------------------------------------------------------------------

 Alpha  occ. eigenvalues --  -67.03437 -67.03437  -5.58125  -5.58104  -3.89294
 Alpha  occ. eigenvalues --   -3.89294  -3.89277  -3.89277  -3.89167  -3.89040
 Alpha  occ. eigenvalues --   -0.61933  -0.55381  -0.43479  -0.24817  -0.24817
 Alpha virt. eigenvalues --   -0.07155  -0.04636  -0.04636   0.01555   0.02330
 Alpha virt. eigenvalues --    0.03778   0.05013   0.05013   0.07180   0.07180
 Alpha virt. eigenvalues --    0.12210   0.15068   0.23934   0.28312   0.29513

  Beta  occ. eigenvalues --  -67.03437 -67.03437  -5.58125  -5.58104  -3.89294
  Beta  occ. eigenvalues --   -3.89294  -3.89277  -3.89277  -3.89167  -3.89040
  Beta  occ. eigenvalues --   -0.61933  -0.55381  -0.43479  -0.24817  -0.24817
  Beta virt. eigenvalues --   -0.07155  -0.04636  -0.04636   0.01555   0.02330
  Beta virt. eigenvalues --    0.03778   0.05013   0.05013   0.07180   0.07180
  Beta virt. eigenvalues --    0.12210   0.15068   0.23934   0.28312   0.29513

 Mulliken charges and spin densities:
               1          2
     1  Si  -0.033464  -0.000000
     2  Si  -0.033467   0.000000
     3  H    0.033466  -0.000000
     4  H    0.033466   0.000000
 Sum of Mulliken charges =  -0.00000   0.00000

 Dipole moment (field-independent basis, Debye):
    X=             -0.0000    Y=             -0.0000    Z=              0.0000  Tot=              0.0000
 Quadrupole moment (field-independent basis, Debye-Ang):
   XX=            -19.8370   YY=            -31.2906   ZZ=            -31.2906
   XY=              0.0002   XZ=              0.0000   YZ=              0.0000

 Normal termination of Gaussian 16 at Mon Apr 21 21:23:20 2025.
