 Gaussian 16, Revision A.03,
 Gaussian 16:  ES64L-G16RevA.03 25-Dec-2016

 ---------------------------------------
 #p UM062X/6-311+G** force int=superfine
 ---------------------------------------

 -------------------
 Title Card Required
 -------------------
 Symbolic Z-matrix:
 Charge =  1 Multiplicity = 2

                         Standard orientation:
 ---------------------------------------------------------------------
 Center     Atomic      Atomic             Coordinates (Angstroms)
 Number     Number       Type             X           Y           Z
 ---------------------------------------------------------------------
      1          6           0        0.000039    0.010319   -1.127024
      2          6           0       -0.000050   -0.010312    1.127024
      3          1           0       -0.549432   -0.940726    1.222048
      4          1           0        0.530439   -0.929242   -1.238508
      5          1           0       -0.530288    0.929299    1.238856
      6          1           0        1.079682   -0.022287    1.229819
      7          1           0        0.549330    0.940785   -1.222066
      8          1           0       -1.079663    0.022133   -1.230149
 ---------------------------------------------------------------------

 SCF Done:  E(UM062X) =  -79.3646113909     A.U. after    9 cycles

 The electronic state is 2-A.
 Alpha  occ. eigenvalues --  -10.85927 -10.85920  -1.08309  -1.02093  -0.77491
 Alpha  occ. eigenvalues --   -0.77490  -0.74106  -0.74106  -0.59953
 Alpha virt. eigenvalues --   -0.28294  -0.15948  -0.10891  -0.10891  -0.09938
 Alpha virt. eigenvalues --   -0.06814  -0.06292  -0.06292  -0.04819  -0.04817
 Alpha virt. eigenvalues --   -0.02414   0.01678   0.01680   0.04889   0.07313

  Beta  occ. eigenvalues --  -10.85718 -10.85718  -1.04978  -0.99387  -0.76632
  Beta  occ. eigenvalues --   -0.76631  -0.73409  -0.73408
  Beta virt. eigenvalues --   -0.37167  -0.20282  -0.15867  -0.11080  -0.11080
  Beta virt. eigenvalues --   -0.08995  -0.06918  -0.06596  -0.06595  -0.04474
  Beta virt. eigenvalues --   -0.04472  -0.01618   0.02220   0.02222   0.05322

 Mulliken charges and spin densities:
               1          2
     1  C   -0.304867   0.563175
     2  C   -0.304867   0.563175
     3  H    0.268301  -0.021071
     4  H    0.268273  -0.021054
     5  H    0.268287  -0.021061
     6  H    0.268279  -0.021043
     7  H    0.268302  -0.021071
     8  H    0.268293  -0.021050
 Sum of Mulliken charges =   1.00000   1.00000

 Dipole moment (field-independent basis, Debye):
    X=              0.0000    Y=             -0.0000    Z=             -0.0000  Tot=              0.0000
 Quadrupole moment (field-independent basis, Debye-Ang):
   XX=            -10.8519   YY=            -10.8513   ZZ=             -5.2520
   XY=              0.0000   XZ=             -0.0006   YZ=             -0.0519

 Normal termination of Gaussian 16 at Wed Nov 13 13:45:02 2024.
