 Gaussian 16, Revision A.03,
 Gaussian 16:  ES64L-G16RevA.03 25-Dec-2016

 --------------------------------------------
 #p opt UM062X/6-311+G** nosymm int=superfine
 --------------------------------------------

 -------------------
 Title Card Required
 -------------------
 Symbolic Z-matrix:
 Charge =  1 Multiplicity = 2

 SCF Done:  E(UM062X) =  -379.408686537     A.U. after   28 cycles
 SCF Done:  E(UM062X) =  -379.408972620     A.U. after   18 cycles
 Optimization completed.
    -- Stationary point found.

                          Input orientation:
 ---------------------------------------------------------------------
 Center     Atomic      Atomic             Coordinates (Angstroms)
 Number     Number       Type             X           Y           Z
 ---------------------------------------------------------------------
      1          6           0       -1.169427    0.000000    0.000000
      2         15           0        1.169427    0.000000    0.000000
      3          1           0       -2.275463    0.000000    0.000000
 ---------------------------------------------------------------------

 Alpha  occ. eigenvalues --  -78.39772 -10.96940  -7.20850  -5.32896  -5.32270
 Alpha  occ. eigenvalues --   -5.31828  -1.01101  -0.91439  -0.69013  -0.56285
 Alpha  occ. eigenvalues --   -0.53905
 Alpha virt. eigenvalues --   -0.36818  -0.36697  -0.31927  -0.13571  -0.10568
 Alpha virt. eigenvalues --   -0.09224  -0.09079  -0.08657  -0.05513  -0.05332
 Alpha virt. eigenvalues --   -0.00462   0.03727   0.11427   0.14195   0.14355

  Beta  occ. eigenvalues --  -78.39163 -10.96873  -7.20689  -5.32087  -5.31837
  Beta  occ. eigenvalues --   -5.30974  -0.99505  -0.87712  -0.68145  -0.52556
  Beta virt. eigenvalues --   -0.37524  -0.35602  -0.31448  -0.30151  -0.14577
  Beta virt. eigenvalues --   -0.11058  -0.09073  -0.09007  -0.08800  -0.05431
  Beta virt. eigenvalues --   -0.05389  -0.01153   0.03841   0.11019   0.11551

 Mulliken charges and spin densities:
               1          2
     1  C   -0.005315   0.216776
     2  P    0.688724   0.795883
     3  H    0.316591  -0.012660
 Sum of Mulliken charges =   1.00000   1.00000

 Dipole moment (field-independent basis, Debye):
    X=             -0.0030    Y=              0.0000    Z=              0.0000  Tot=              0.0030
 Quadrupole moment (field-independent basis, Debye-Ang):
   XX=             -1.6244   YY=            -16.3596   ZZ=            -18.7021
   XY=             -0.0000   XZ=             -0.0000   YZ=             -0.5667

 Normal termination of Gaussian 16 at Mon Apr 21 19:24:33 2025.
