 Gaussian 16, Revision A.03,
 Gaussian 16:  ES64L-G16RevA.03 25-Dec-2016

 ---------------------------------------
 #p UM062X/6-311+G** force int=superfine
 ---------------------------------------

 -------------------
 Title Card Required
 -------------------
 Symbolic Z-matrix:
 Charge =  1 Multiplicity = 2

                         Standard orientation:
 ---------------------------------------------------------------------
 Center     Atomic      Atomic             Coordinates (Angstroms)
 Number     Number       Type             X           Y           Z
 ---------------------------------------------------------------------
      1          7           0        0.000000    0.000000    1.380391
      2          7           0        0.000000    0.000000   -1.380391
 ---------------------------------------------------------------------

 SCF Done:  E(UM062X) =  -108.407343865     A.U. after   11 cycles

 Unable to determine electronic state:  partially filled degenerate orbitals.
 Alpha  occ. eigenvalues --  -15.34160 -15.34153  -1.22852  -1.20585  -0.69157
 Alpha  occ. eigenvalues --   -0.69077  -0.66461
 Alpha virt. eigenvalues --   -0.58011  -0.55348  -0.52834  -0.12875  -0.08646
 Alpha virt. eigenvalues --   -0.08512  -0.08460  -0.03242  -0.03001  -0.02775
 Alpha virt. eigenvalues --    0.04521   0.41747   0.47762   0.49056   0.53237

  Beta  occ. eigenvalues --  -15.33673 -15.33668  -1.19098  -1.16951  -0.67459
  Beta  occ. eigenvalues --   -0.64697
  Beta virt. eigenvalues --   -0.53518  -0.50857  -0.46560  -0.45164  -0.14078
  Beta virt. eigenvalues --   -0.09110  -0.09014  -0.08630  -0.03732  -0.03143
  Beta virt. eigenvalues --   -0.03025   0.03054   0.41923   0.49036   0.49235

 Mulliken charges and spin densities:
               1          2
     1  N    0.500000   0.500000
     2  N    0.500000   0.500000
 Sum of Mulliken charges =   1.00000   1.00000

 Dipole moment (field-independent basis, Debye):
    X=              0.0000    Y=             -0.0000    Z=             -0.0000  Tot=              0.0000
 Quadrupole moment (field-independent basis, Debye-Ang):
   XX=            -10.0155   YY=             -8.5641   ZZ=              0.8986
   XY=              0.0000   XZ=             -0.0000   YZ=             -0.0000

 Optimization completed.
    -- Stationary point found.
 Normal termination of Gaussian 16 at Wed Feb 26 13:54:13 2025.
