 Gaussian 16, Revision A.03,
 Gaussian 16:  ES64L-G16RevA.03 25-Dec-2016

 ---------------------------------------------------
 #p UM062X/6-311+G** force int=superfine pop=saveNBO
 ---------------------------------------------------

 -------------------
 Title Card Required
 -------------------
 Symbolic Z-matrix:
 Charge =  0 Multiplicity = 1

                         Standard orientation:
 ---------------------------------------------------------------------
 Center     Atomic      Atomic             Coordinates (Angstroms)
 Number     Number       Type             X           Y           Z
 ---------------------------------------------------------------------
      1          6           0        0.000000    0.000000   -2.020794
      2         16           0        0.000000    0.000000    0.757798
 ---------------------------------------------------------------------

 SCF Done:  E(UM062X) =  -435.888616177     A.U. after   16 cycles

 The electronic state is 1-SG.
 Alpha  occ. eigenvalues --  -89.94153 -10.81406  -8.29887  -6.22151  -6.21402
 Alpha  occ. eigenvalues --   -6.21402  -0.75058  -0.69578  -0.34871  -0.30811
 Alpha  occ. eigenvalues --   -0.30811
 Alpha virt. eigenvalues --   -0.17069  -0.17069  -0.13404   0.03271   0.05339
 Alpha virt. eigenvalues --    0.06033   0.06033   0.08752   0.08834   0.08834
 Alpha virt. eigenvalues --    0.14913   0.36078   0.36078   0.36689   0.52861

  Beta  occ. eigenvalues --  -89.94153 -10.81406  -8.29887  -6.22151  -6.21402
  Beta  occ. eigenvalues --   -6.21402  -0.75058  -0.69578  -0.34871  -0.30811
  Beta  occ. eigenvalues --   -0.30811
  Beta virt. eigenvalues --   -0.17069  -0.17069  -0.13404   0.03271   0.05339
  Beta virt. eigenvalues --    0.06033   0.06033   0.08752   0.08834   0.08834
  Beta virt. eigenvalues --    0.14913   0.36078   0.36078   0.36689   0.52861

 Mulliken charges and spin densities:
               1          2
     1  C    0.183490   0.000000
     2  S   -0.183490  -0.000000
 Sum of Mulliken charges =  -0.00000   0.00000

 Dipole moment (field-independent basis, Debye):
    X=              0.0000    Y=              0.0000    Z=             -2.3826  Tot=              2.3826
 Quadrupole moment (field-independent basis, Debye-Ang):
   XX=            -20.8121   YY=            -20.8121   ZZ=            -15.0515
   XY=              0.0000   XZ=              0.0000   YZ=              0.0000

 Summary of Natural Population Analysis:

                                       Natural Population
                Natural  -----------------------------------------------
    Atom  No    Charge         Core      Valence    Rydberg      Total
 -----------------------------------------------------------------------
      C    1    0.14952      1.00000     1.84963    0.00085     2.85048
      S    2   -0.14952      4.99999     3.14875    0.00078     8.14952
 =======================================================================
   * Total *   -0.00000      5.99999     4.99838    0.00163    11.00000

 Normal termination of Gaussian 16 at Mon Apr 21 19:40:54 2025.
