 Gaussian 16, Revision A.03,
 Gaussian 16:  ES64L-G16RevA.03 25-Dec-2016

 --------------------------------------------
 #p opt UM062X/6-311+G** nosymm int=superfine
 --------------------------------------------

 -------------------
 Title Card Required
 -------------------
 Symbolic Z-matrix:
 Charge =  0 Multiplicity = 1

 SCF Done:  E(UM062X) =  -94.3964225131     A.U. after   12 cycles
 SCF Done:  E(UM062X) =  -94.4056105137     A.U. after   12 cycles
 SCF Done:  E(UM062X) =  -94.4063296573     A.U. after   11 cycles
 SCF Done:  E(UM062X) =  -94.4060473754     A.U. after   12 cycles
 SCF Done:  E(UM062X) =  -94.4062159706     A.U. after   13 cycles
 SCF Done:  E(UM062X) =  -94.4064598406     A.U. after    9 cycles
 SCF Done:  E(UM062X) =  -94.4063420138     A.U. after   13 cycles
 SCF Done:  E(UM062X) =  -94.4064775677     A.U. after   11 cycles
 SCF Done:  E(UM062X) =  -94.4064779517     A.U. after   12 cycles
 Optimization completed.
    -- Stationary point found.

                          Input orientation:
 ---------------------------------------------------------------------
 Center     Atomic      Atomic             Coordinates (Angstroms)
 Number     Number       Type             X           Y           Z
 ---------------------------------------------------------------------
      1          6           0       -0.981637    0.000000    0.000000
      2          7           0        0.981637    0.000000    0.000000
      3          1           0       -1.497752   -0.950732   -0.000193
      4          1           0        1.034823   -1.030344   -0.000210
      5          1           0       -1.404003    0.993626    0.000200
 ---------------------------------------------------------------------

 Alpha  occ. eigenvalues --  -14.81512 -10.65904  -0.89149  -0.76801  -0.55300
 Alpha  occ. eigenvalues --   -0.44364  -0.37394  -0.30505
 Alpha virt. eigenvalues --   -0.10035  -0.00272   0.02166   0.04785   0.07423
 Alpha virt. eigenvalues --    0.07844   0.12722   0.15147   0.15872   0.17350
 Alpha virt. eigenvalues --    0.20680   0.22829   0.26811   0.41618   0.43949

  Beta  occ. eigenvalues --  -14.81512 -10.65904  -0.89149  -0.76801  -0.55300
  Beta  occ. eigenvalues --   -0.44364  -0.37394  -0.30505
  Beta virt. eigenvalues --   -0.10035  -0.00272   0.02166   0.04785   0.07423
  Beta virt. eigenvalues --    0.07844   0.12722   0.15147   0.15872   0.17350
  Beta virt. eigenvalues --    0.20680   0.22829   0.26811   0.41618   0.43949

 Mulliken charges and spin densities:
               1          2
     1  C   -0.315278   0.000000
     2  N   -0.276510  -0.000000
     3  H    0.193611  -0.000000
     4  H    0.195947   0.000000
     5  H    0.202230  -0.000000
 Sum of Mulliken charges =  -0.00000  -0.00000

 Dipole moment (field-independent basis, Debye):
    X=             -2.6109    Y=             -1.4662    Z=             -0.0003  Tot=              2.9944
 Quadrupole moment (field-independent basis, Debye-Ang):
   XX=            -12.2122   YY=            -11.4208   ZZ=            -15.6259
   XY=             -1.9337   XZ=             -0.0004   YZ=              0.0009

 Normal termination of Gaussian 16 at Mon Apr 21 18:22:39 2025.
