 Gaussian 16, Revision A.03,
 Gaussian 16:  ES64L-G16RevA.03 25-Dec-2016

 --------------------------------------------
 #p opt UM062X/6-311+G** nosymm int=superfine
 --------------------------------------------

 -------------------
 Title Card Required
 -------------------
 Symbolic Z-matrix:
 Charge =  0 Multiplicity = 1

 SCF Done:  E(UM062X) =  -79.7457267080     A.U. after    8 cycles
 SCF Done:  E(UM062X) =  -79.7610854691     A.U. after    8 cycles
 SCF Done:  E(UM062X) =  -79.7647320718     A.U. after    8 cycles
 SCF Done:  E(UM062X) =  -79.7647364362     A.U. after    6 cycles
 Optimization completed.
    -- Stationary point found.

                          Input orientation:
 ---------------------------------------------------------------------
 Center     Atomic      Atomic             Coordinates (Angstroms)
 Number     Number       Type             X           Y           Z
 ---------------------------------------------------------------------
      1          6           0       -0.931527    0.000000    0.000000
      2          6           0        0.931623    0.000000    0.000000
      3          1           0        1.253751   -0.898156    0.519728
      4          1           0       -1.253657   -0.899170   -0.517974
      5          1           0        1.253753    0.899170    0.517973
      6          1           0        1.253763   -0.001012   -1.037687
      7          1           0       -1.253656    0.898157   -0.519728
      8          1           0       -1.253669    0.001012    1.037686
 ---------------------------------------------------------------------

 Alpha  occ. eigenvalues --  -10.53929 -10.53916  -0.80293  -0.71820  -0.48712
 Alpha  occ. eigenvalues --   -0.48712  -0.43274  -0.43274  -0.35898
 Alpha virt. eigenvalues --    0.02273   0.03433   0.05637   0.05637   0.08583
 Alpha virt. eigenvalues --    0.08583   0.09294   0.13215   0.16188   0.18309
 Alpha virt. eigenvalues --    0.18309   0.21858   0.21858   0.24251   0.27359

  Beta  occ. eigenvalues --  -10.53929 -10.53916  -0.80293  -0.71820  -0.48712
  Beta  occ. eigenvalues --   -0.48712  -0.43274  -0.43274  -0.35898
  Beta virt. eigenvalues --    0.02273   0.03433   0.05637   0.05637   0.08583
  Beta virt. eigenvalues --    0.08583   0.09294   0.13215   0.16188   0.18309
  Beta virt. eigenvalues --    0.18309   0.21858   0.21858   0.24251   0.27359

 Mulliken charges and spin densities:
               1          2
     1  C   -0.491342  -0.000000
     2  C   -0.491342   0.000000
     3  H    0.163781  -0.000000
     4  H    0.163781   0.000000
     5  H    0.163781  -0.000000
     6  H    0.163780  -0.000000
     7  H    0.163781   0.000000
     8  H    0.163780   0.000000
 Sum of Mulliken charges =   0.00000  -0.00000

 Dipole moment (field-independent basis, Debye):
    X=             -0.0000    Y=             -0.0000    Z=             -0.0000  Tot=              0.0000
 Quadrupole moment (field-independent basis, Debye-Ang):
   XX=            -15.6047   YY=            -14.9165   ZZ=            -14.9165
   XY=              0.0000   XZ=              0.0000   YZ=             -0.0000

 Normal termination of Gaussian 16 at Tue Nov 19 12:01:35 2024.
