 Gaussian 16, Revision A.03,
 Gaussian 16:  ES64L-G16RevA.03 25-Dec-2016

 --------------------------------------------
 #p opt UM062X/6-311+G** nosymm int=superfine
 --------------------------------------------

 -------------------
 Title Card Required
 -------------------
 Symbolic Z-matrix:
 Charge =  1 Multiplicity = 2

 SCF Done:  E(UM062X) =  -76.6238497886     A.U. after   11 cycles
 SCF Done:  E(UM062X) =  -76.6620645564     A.U. after   11 cycles
 SCF Done:  E(UM062X) =  -76.7184173982     A.U. after   14 cycles
 SCF Done:  E(UM062X) =  -76.7221574811     A.U. after    9 cycles
 SCF Done:  E(UM062X) =  -76.7221706894     A.U. after    7 cycles
 Optimization completed.
    -- Stationary point found.

                          Input orientation:
 ---------------------------------------------------------------------
 Center     Atomic      Atomic             Coordinates (Angstroms)
 Number     Number       Type             X           Y           Z
 ---------------------------------------------------------------------
      1          6           0       -0.857453    0.000000    0.000000
      2          6           0        0.857453    0.000000    0.000000
      3          1           0       -1.954374   -0.000000    0.000000
      4          1           0        1.954352    0.000000   -0.000000
 ---------------------------------------------------------------------

 Alpha  occ. eigenvalues --  -11.00120 -11.00086  -1.09767  -0.99279  -0.83889
 Alpha  occ. eigenvalues --   -0.63222  -0.61120
 Alpha virt. eigenvalues --   -0.36597  -0.34607  -0.28774  -0.14181  -0.11358
 Alpha virt. eigenvalues --   -0.10510  -0.09035  -0.08801  -0.05324  -0.05015
 Alpha virt. eigenvalues --    0.01283   0.03695   0.07327   0.22797   0.31385

  Beta  occ. eigenvalues --  -10.99868 -10.99844  -1.05984  -0.97497  -0.82982
  Beta  occ. eigenvalues --   -0.59166
  Beta virt. eigenvalues --   -0.40572  -0.32884  -0.28366  -0.26667  -0.15206
  Beta virt. eigenvalues --   -0.11678  -0.10978  -0.09410  -0.09241  -0.05279
  Beta virt. eigenvalues --   -0.04995   0.00378   0.03794   0.07610   0.23462

 Mulliken charges and spin densities:
               1          2
     1  C    0.136262   0.521931
     2  C    0.136260   0.521924
     3  H    0.363743  -0.021928
     4  H    0.363735  -0.021927
 Sum of Mulliken charges =   1.00000   1.00000

 Dipole moment (field-independent basis, Debye):
    X=             -0.0001    Y=             -0.0000    Z=              0.0000  Tot=              0.0001
 Quadrupole moment (field-independent basis, Debye-Ang):
   XX=              3.3527   YY=            -11.8669   ZZ=            -11.6725
   XY=              0.0000   XZ=             -0.0000   YZ=             -1.0420

 Normal termination of Gaussian 16 at Tue Nov 19 13:15:58 2024.
