 Gaussian 16, Revision A.03,
 Gaussian 16:  ES64L-G16RevA.03 25-Dec-2016

 --------------------------------------------
 #p opt UM062X/6-311+G** nosymm int=superfine
 --------------------------------------------

 -------------------
 Title Card Required
 -------------------
 Symbolic Z-matrix:
 Charge =  0 Multiplicity = 4

 SCF Done:  E(UM062X) =  -38.4423630059     A.U. after   10 cycles
 SCF Done:  E(UM062X) =  -38.4427665685     A.U. after    9 cycles
 Optimization completed.
    -- Stationary point found.

                          Input orientation:
 ---------------------------------------------------------------------
 Center     Atomic      Atomic             Coordinates (Angstroms)
 Number     Number       Type             X           Y           Z
 ---------------------------------------------------------------------
      1          6           0       -0.559987    0.000000    0.000000
      2          1           0       -1.652445    0.000000    0.000000
 ---------------------------------------------------------------------

 Alpha  occ. eigenvalues --  -10.60722  -0.75580  -0.45517  -0.32175  -0.32175
 Alpha virt. eigenvalues --    0.04722   0.07435   0.08395   0.08395   0.18086
 Alpha virt. eigenvalues --    0.45640   0.56533   0.56533   0.59256   0.69061
 Alpha virt. eigenvalues --    1.11000   1.11000   1.32503   1.32504   1.56912

  Beta  occ. eigenvalues --  -10.57667  -0.62262
  Beta virt. eigenvalues --   -0.16578  -0.04438  -0.04438   0.04108   0.12837
  Beta virt. eigenvalues --    0.15481   0.15481   0.18253   0.39152   0.52820
  Beta virt. eigenvalues --    0.53698   0.53698   0.74917   1.25101   1.25101

 Mulliken charges and spin densities:
               1          2
     1  C   -0.207755   2.907259
     2  H    0.207755   0.092741
 Sum of Mulliken charges =  -0.00000   3.00000

 Dipole moment (field-independent basis, Debye):
    X=             -0.7764    Y=             -0.0000    Z=              0.0000  Tot=              0.7764
 Quadrupole moment (field-independent basis, Debye-Ang):
   XX=             -4.3562   YY=             -7.5495   ZZ=             -7.5495
   XY=              0.0000   XZ=             -0.0000   YZ=              0.0000

 1\1\GINC-NODE02\FOpt\UM062X\6-311+G(d,p)\C1H1(4)\SZHAO\16-Apr-2025\0\\
 #p opt UM062X/6-311+G** nosymm int=superfine\\Title Card Required\\0,4
 \C,-0.559986967,0.,0.\H,-1.652445033,0.,0.\\Version=ES64L-G16RevA.03\H
 F=-38.4427666\S2=3.752177\S2-1=0.\S2A=3.75\RMSD=4.382e-09\RMSF=1.342e-
 06\Dipole=-0.3054716,0.,0.\Quadrupole=1.5827269,-0.7913635,-0.7913635,
 0.,0.,0.\PG=C*V [C*(H1C1)]\\@

 Normal termination of Gaussian 16 at Wed Apr 16 08:18:43 2025.
