 Gaussian 16, Revision A.03,
 Gaussian 16:  ES64L-G16RevA.03 25-Dec-2016

 --------------------------------------------
 #p opt UM062X/6-311+G** nosymm int=superfine
 --------------------------------------------

 -------------------
 Title Card Required
 -------------------
 Symbolic Z-matrix:
 Charge =  1 Multiplicity = 2

 SCF Done:  E(UM062X) =  -76.5632494985     A.U. after   22 cycles
 SCF Done:  E(UM062X) =  -76.5633562774     A.U. after   11 cycles
 Optimization completed.
    -- Stationary point found.

                          Input orientation:
 ---------------------------------------------------------------------
 Center     Atomic      Atomic             Coordinates (Angstroms)
 Number     Number       Type             X           Y           Z
 ---------------------------------------------------------------------
      1          6           0       -1.032160    0.000000    0.000000
      2          6           0        1.032160    0.000000    0.000000
      3          1           0       -2.142480   -0.000000    0.000000
      4          1           0        2.142480   -0.000000   -0.000000
 ---------------------------------------------------------------------

 Alpha  occ. eigenvalues --  -11.01479 -11.01460  -1.05297  -0.99875  -0.78135
 Alpha  occ. eigenvalues --   -0.59122  -0.57159
 Alpha virt. eigenvalues --   -0.39954  -0.39770  -0.37998  -0.14020  -0.12107
 Alpha virt. eigenvalues --   -0.09601  -0.08522  -0.08305  -0.05375  -0.05109
 Alpha virt. eigenvalues --   -0.00281   0.02532   0.05502   0.24273   0.30157

  Beta  occ. eigenvalues --  -11.01198 -11.01186  -1.02183  -0.97918  -0.76961
  Beta  occ. eigenvalues --   -0.55339
  Beta virt. eigenvalues --   -0.37932  -0.37721  -0.36237  -0.30888  -0.14841
  Beta virt. eigenvalues --   -0.12397  -0.10317  -0.08834  -0.08711  -0.05434
  Beta virt. eigenvalues --   -0.05247  -0.01225   0.02610   0.05469   0.24109

 Mulliken charges and spin densities:
               1          2
     1  C    0.115695   0.524159
     2  C    0.115696   0.524155
     3  H    0.384305  -0.024157
     4  H    0.384304  -0.024157
 Sum of Mulliken charges =   1.00000   1.00000

 Dipole moment (field-independent basis, Debye):
    X=             -0.0000    Y=              0.0000    Z=              0.0000  Tot=              0.0000
 Quadrupole moment (field-independent basis, Debye-Ang):
   XX=              6.7267   YY=            -12.0092   ZZ=            -12.7039
   XY=             -0.0000   XZ=             -0.0000   YZ=             -1.0447

 Normal termination of Gaussian 16 at Tue Dec  3 11:22:34 2024.
