 Gaussian 16, Revision A.03,
 Gaussian 16:  ES64L-G16RevA.03 25-Dec-2016

 --------------------------------------------
 #p opt UM062X/6-311+G** nosymm int=superfine
 --------------------------------------------

 -------------------
 Title Card Required
 -------------------
 Symbolic Z-matrix:
 Charge =  0 Multiplicity = 1

 SCF Done:  E(UM062X) =  -437.296103682     A.U. after   10 cycles
 SCF Done:  E(UM062X) =  -437.408863520     A.U. after   11 cycles
 SCF Done:  E(UM062X) =  -437.424428272     A.U. after   11 cycles
 SCF Done:  E(UM062X) =  -437.439698408     A.U. after   10 cycles
 SCF Done:  E(UM062X) =  -437.441397091     A.U. after    9 cycles
 SCF Done:  E(UM062X) =  -437.441509425     A.U. after   10 cycles
 SCF Done:  E(UM062X) =  -437.441287658     A.U. after   10 cycles
 SCF Done:  E(UM062X) =  -437.441704117     A.U. after    9 cycles
 Optimization completed.
    -- Stationary point found.

                          Input orientation:
 ---------------------------------------------------------------------
 Center     Atomic      Atomic             Coordinates (Angstroms)
 Number     Number       Type             X           Y           Z
 ---------------------------------------------------------------------
      1          6           0       -0.689368    0.000254   -0.000103
      2         16           0        0.914911   -0.000384   -0.000197
      3          1           0       -1.265378   -0.924554    0.000157
      4          1           0       -1.265757    0.924822   -0.000143
 ---------------------------------------------------------------------

 Alpha  occ. eigenvalues --  -89.89813 -10.61483  -8.26470  -6.18536  -6.18465
 Alpha  occ. eigenvalues --   -6.17886  -0.89948  -0.68504  -0.53926  -0.45969
 Alpha  occ. eigenvalues --   -0.38087  -0.29203
 Alpha virt. eigenvalues --   -0.06130   0.01674   0.04735   0.04855   0.05478
 Alpha virt. eigenvalues --    0.08067   0.08893   0.10406   0.15194   0.16536
 Alpha virt. eigenvalues --    0.19013   0.20558   0.35524   0.36533   0.38061

  Beta  occ. eigenvalues --  -89.89813 -10.61483  -8.26470  -6.18536  -6.18465
  Beta  occ. eigenvalues --   -6.17886  -0.89948  -0.68504  -0.53926  -0.45969
  Beta  occ. eigenvalues --   -0.38087  -0.29203
  Beta virt. eigenvalues --   -0.06130   0.01674   0.04735   0.04855   0.05478
  Beta virt. eigenvalues --    0.08067   0.08893   0.10406   0.15194   0.16536
  Beta virt. eigenvalues --    0.19013   0.20558   0.35524   0.36533   0.38061

 Mulliken charges and spin densities:
               1          2
     1  C   -0.339281   0.000000
     2  S   -0.025531  -0.000000
     3  H    0.182403  -0.000000
     4  H    0.182409   0.000000
 Sum of Mulliken charges =  -0.00000  -0.00000

 Dipole moment (field-independent basis, Debye):
    X=             -1.7549    Y=              0.0002    Z=              0.0002  Tot=              1.7549
 Quadrupole moment (field-independent basis, Debye-Ang):
   XX=            -18.6535   YY=            -20.5707   ZZ=            -19.9046
   XY=             -0.0021   XZ=              0.0001   YZ=              0.0001

 Normal termination of Gaussian 16 at Wed Apr 16 03:37:27 2025.
