 Gaussian 16, Revision A.03,
 Gaussian 16:  ES64L-G16RevA.03 25-Dec-2016

 --------------------------------------------
 #p opt UM062X/6-311+G** nosymm int=superfine
 --------------------------------------------

 -------------------
 Title Card Required
 -------------------
 Symbolic Z-matrix:
 Charge =  0 Multiplicity = 1

 SCF Done:  E(UM062X) =  -110.185549538     A.U. after   13 cycles
 SCF Done:  E(UM062X) =  -110.188305361     A.U. after   13 cycles
 SCF Done:  E(UM062X) =  -110.192866847     A.U. after   17 cycles
 SCF Done:  E(UM062X) =  -110.193922807     A.U. after   18 cycles
 SCF Done:  E(UM062X) =  -110.193925247     A.U. after   12 cycles
 Optimization completed.
    -- Stationary point found.

                          Input orientation:
 ---------------------------------------------------------------------
 Center     Atomic      Atomic             Coordinates (Angstroms)
 Number     Number       Type             X           Y           Z
 ---------------------------------------------------------------------
      1          7           0       -1.640428    0.000000    0.000000
      2          7           0        1.640428    0.000000    0.000000
      3          1           0       -1.418836   -1.015262    0.000000
      4          1           0        1.418836    1.015262    0.000000
 ---------------------------------------------------------------------

 Alpha  occ. eigenvalues --  -14.88596 -14.88593  -0.92947  -0.92159  -0.49212
 Alpha  occ. eigenvalues --   -0.48742  -0.31837  -0.30402
 Alpha virt. eigenvalues --   -0.21242  -0.19619   0.05212   0.07117   0.10739
 Alpha virt. eigenvalues --    0.11512   0.13237   0.14731   0.15514   0.17878
 Alpha virt. eigenvalues --    0.19393   0.22823   0.52169   0.54968   0.72439

  Beta  occ. eigenvalues --  -14.88596 -14.88593  -0.92947  -0.92159  -0.49212
  Beta  occ. eigenvalues --   -0.48742  -0.31837  -0.30402
  Beta virt. eigenvalues --   -0.21242  -0.19619   0.05212   0.07117   0.10739
  Beta virt. eigenvalues --    0.11512   0.13237   0.14731   0.15514   0.17878
  Beta virt. eigenvalues --    0.19393   0.22823   0.52169   0.54968   0.72439

 Mulliken charges and spin densities:
               1          2
     1  N   -0.237648  -0.000000
     2  N   -0.237648   0.000000
     3  H    0.237648   0.000000
     4  H    0.237648  -0.000000
 Sum of Mulliken charges =  -0.00000  -0.00000

 Dipole moment (field-independent basis, Debye):
    X=             -0.0000    Y=              0.0000    Z=              0.0000  Tot=              0.0000
 Quadrupole moment (field-independent basis, Debye-Ang):
   XX=            -14.6887   YY=            -11.2505   ZZ=            -14.2066
   XY=              5.4193   XZ=             -0.0000   YZ=             -0.0000

 Normal termination of Gaussian 16 at Thu May 15 15:41:06 2025.
