 Gaussian 16, Revision A.03,
 Gaussian 16:  ES64L-G16RevA.03 25-Dec-2016

 --------------------------------------------
 #p opt UM062X/6-311+G** nosymm int=superfine
 --------------------------------------------

 -------------------
 Title Card Required
 -------------------
 Symbolic Z-matrix:
 Charge =  1 Multiplicity = 2

 SCF Done:  E(UM062X) =  -79.3109615139     A.U. after   10 cycles
 SCF Done:  E(UM062X) =  -79.3130854816     A.U. after    9 cycles
 SCF Done:  E(UM062X) =  -79.3131218948     A.U. after    9 cycles
 Optimization completed.
    -- Stationary point found.

                          Input orientation:
 ---------------------------------------------------------------------
 Center     Atomic      Atomic             Coordinates (Angstroms)
 Number     Number       Type             X           Y           Z
 ---------------------------------------------------------------------
      1          6           0       -2.282675    0.000000    0.000000
      2          6           0        2.282675    0.000000    0.000000
      3          1           0        2.303186   -0.937269    0.542480
      4          1           0       -2.301104   -0.938360   -0.540656
      5          1           0        2.302284    0.938456    0.540452
      6          1           0        2.301129   -0.001174   -1.082970
      7          1           0       -2.303250    0.937380   -0.542286
      8          1           0       -2.302247    0.000955    1.082953
 ---------------------------------------------------------------------

 Alpha  occ. eigenvalues --  -10.82590 -10.82589  -1.01239  -1.01078  -0.72369
 Alpha  occ. eigenvalues --   -0.72369  -0.72336  -0.72335  -0.45509
 Alpha virt. eigenvalues --   -0.37943  -0.12131  -0.09961  -0.08851  -0.08851
 Alpha virt. eigenvalues --   -0.06182  -0.06182  -0.04494  -0.02355   0.00883
 Alpha virt. eigenvalues --    0.00886   0.01630   0.01632   0.02167   0.09265

  Beta  occ. eigenvalues --  -10.82361 -10.82360  -0.98568  -0.98509  -0.71824
  Beta  occ. eigenvalues --   -0.71823  -0.71787  -0.71786
  Beta virt. eigenvalues --   -0.30502  -0.26672  -0.16959  -0.10252  -0.09809
  Beta virt. eigenvalues --   -0.09808  -0.06090  -0.06089  -0.05887  -0.01378
  Beta virt. eigenvalues --    0.00888   0.00891   0.01876   0.01879   0.02300

 Mulliken charges and spin densities:
               1          2
     1  C   -0.228967   0.560948
     2  C   -0.228967   0.560948
     3  H    0.243009  -0.020311
     4  H    0.242973  -0.020313
     5  H    0.242993  -0.020315
     6  H    0.242965  -0.020322
     7  H    0.243010  -0.020312
     8  H    0.242984  -0.020323
 Sum of Mulliken charges =   1.00000   1.00000

 Dipole moment (field-independent basis, Debye):
    X=              0.0000    Y=             -0.0000    Z=             -0.0000  Tot=              0.0000
 Quadrupole moment (field-independent basis, Debye-Ang):
   XX=             13.1983   YY=            -11.1237   ZZ=            -11.1238
   XY=             -0.0023   XZ=              0.0013   YZ=              0.0001

 Normal termination of Gaussian 16 at Sat Nov 16 16:13:57 2024.
