 Gaussian 16, Revision A.03,
 Gaussian 16:  ES64L-G16RevA.03 25-Dec-2016

 --------------------------------------------
 #p opt UM062X/6-311+G** nosymm int=superfine
 --------------------------------------------

 -------------------
 Title Card Required
 -------------------
 Symbolic Z-matrix:
 Charge =  0 Multiplicity = 1

 SCF Done:  E(UM062X) =  -474.393341016     A.U. after   19 cycles
 SCF Done:  E(UM062X) =  -474.394886291     A.U. after   17 cycles
 SCF Done:  E(UM062X) =  -474.397023183     A.U. after   18 cycles
 SCF Done:  E(UM062X) =  -474.397293934     A.U. after   18 cycles
 SCF Done:  E(UM062X) =  -474.397333485     A.U. after   24 cycles
 SCF Done:  E(UM062X) =  -474.397342944     A.U. after   22 cycles
 SCF Done:  E(UM062X) =  -474.397343528     A.U. after   16 cycles
 SCF Done:  E(UM062X) =  -474.397345054     A.U. after   13 cycles
 SCF Done:  E(UM062X) =  -474.397345690     A.U. after   24 cycles
 SCF Done:  E(UM062X) =  -474.397345940     A.U. after   13 cycles
 SCF Done:  E(UM062X) =  -474.397345957     A.U. after   19 cycles
 Optimization completed.
    -- Stationary point found.

                          Input orientation:
 ---------------------------------------------------------------------
 Center     Atomic      Atomic             Coordinates (Angstroms)
 Number     Number       Type             X           Y           Z
 ---------------------------------------------------------------------
      1          8           0       -1.564392    0.000000    0.000000
      2         16           0        1.564392    0.000000    0.000000
      3          1           0       -1.547765   -0.878437   -0.411487
      4          1           0        1.373381    0.537256    1.219861
 ---------------------------------------------------------------------

 Alpha  occ. eigenvalues --  -89.97851 -19.67440  -8.33964  -6.26182  -6.25809
 Alpha  occ. eigenvalues --   -6.25245  -1.08548  -0.83690  -0.52613  -0.49543
 Alpha  occ. eigenvalues --   -0.39845  -0.35647  -0.35371
 Alpha virt. eigenvalues --   -0.21001   0.01622   0.03943   0.04656   0.05508
 Alpha virt. eigenvalues --    0.07082   0.13950   0.19355   0.19924   0.21257
 Alpha virt. eigenvalues --    0.25785   0.30939   0.33965   0.34898   0.39390

  Beta  occ. eigenvalues --  -89.97851 -19.67440  -8.33964  -6.26182  -6.25809
  Beta  occ. eigenvalues --   -6.25245  -1.08548  -0.83690  -0.52613  -0.49543
  Beta  occ. eigenvalues --   -0.39845  -0.35647  -0.35371
  Beta virt. eigenvalues --   -0.21001   0.01622   0.03943   0.04656   0.05508
  Beta virt. eigenvalues --    0.07082   0.13950   0.19355   0.19924   0.21257
  Beta virt. eigenvalues --    0.25785   0.30939   0.33965   0.34898   0.39390

 Mulliken charges and spin densities:
               1          2
     1  O   -0.407522   0.000000
     2  S    0.048393  -0.000000
     3  H    0.247637  -0.000000
     4  H    0.111492   0.000000
 Sum of Mulliken charges =   0.00000  -0.00000

 Dipole moment (field-independent basis, Debye):
    X=              2.1629    Y=             -1.0948    Z=              0.3498  Tot=              2.4493
 Quadrupole moment (field-independent basis, Debye-Ang):
   XX=            -18.2348   YY=            -19.9697   ZZ=            -18.7865
   XY=              3.3612   XZ=              2.9071   YZ=              2.4859

 Normal termination of Gaussian 16 at Thu May 15 13:08:52 2025.
