 Gaussian 16, Revision A.03,
 Gaussian 16:  ES64L-G16RevA.03 25-Dec-2016

 --------------------------------------------
 #p opt UM062X/6-311+G** nosymm int=superfine
 --------------------------------------------

 -------------------
 Title Card Required
 -------------------
 Symbolic Z-matrix:
 Charge =  0 Multiplicity = 1

 SCF Done:  E(UM062X) =  -797.432826209     A.U. after   13 cycles
 SCF Done:  E(UM062X) =  -797.433721098     A.U. after   12 cycles
 SCF Done:  E(UM062X) =  -797.434730736     A.U. after   14 cycles
 SCF Done:  E(UM062X) =  -797.434741960     A.U. after   12 cycles
 SCF Done:  E(UM062X) =  -797.434742159     A.U. after   11 cycles
 SCF Done:  E(UM062X) =  -797.434742184     A.U. after   11 cycles
 Optimization completed.
    -- Stationary point found.

                          Input orientation:
 ---------------------------------------------------------------------
 Center     Atomic      Atomic             Coordinates (Angstroms)
 Number     Number       Type             X           Y           Z
 ---------------------------------------------------------------------
      1         16           0       -1.718191    0.000000    0.000000
      2         16           0        1.718191    0.000000    0.000000
      3          1           0       -1.632641   -1.331124   -0.181597
      4          1           0        1.632678    0.212563    1.326561
 ---------------------------------------------------------------------

 Alpha  occ. eigenvalues --  -89.94791 -89.94791  -8.30956  -8.30955  -6.23116
 Alpha  occ. eigenvalues --   -6.23115  -6.22846  -6.22846  -6.22285  -6.22285
 Alpha  occ. eigenvalues --   -0.81959  -0.80754  -0.47371  -0.47325  -0.33666
 Alpha  occ. eigenvalues --   -0.33390  -0.33196
 Alpha virt. eigenvalues --   -0.19112   0.01966   0.03124   0.04548   0.04997
 Alpha virt. eigenvalues --    0.06373   0.07098   0.07349   0.07484   0.10610
 Alpha virt. eigenvalues --    0.13131   0.30438   0.31181   0.33112   0.35002

  Beta  occ. eigenvalues --  -89.94791 -89.94791  -8.30956  -8.30955  -6.23116
  Beta  occ. eigenvalues --   -6.23115  -6.22846  -6.22846  -6.22285  -6.22285
  Beta  occ. eigenvalues --   -0.81959  -0.80754  -0.47371  -0.47325  -0.33666
  Beta  occ. eigenvalues --   -0.33390  -0.33196
  Beta virt. eigenvalues --   -0.19112   0.01966   0.03124   0.04548   0.04997
  Beta virt. eigenvalues --    0.06373   0.07098   0.07349   0.07484   0.10610
  Beta virt. eigenvalues --    0.13131   0.30438   0.31181   0.33112   0.35002

 Mulliken charges and spin densities:
               1          2
     1  S   -0.086804  -0.000000
     2  S   -0.086804   0.000000
     3  H    0.086802   0.000000
     4  H    0.086806  -0.000000
 Sum of Mulliken charges =  -0.00000  -0.00000

 Dipole moment (field-independent basis, Debye):
    X=              0.0001    Y=             -0.9114    Z=              0.9328  Tot=              1.3041
 Quadrupole moment (field-independent basis, Debye-Ang):
   XX=            -25.0958   YY=            -28.0202   ZZ=            -28.0754
   XY=              2.2819   XZ=              2.2295   YZ=              1.1850

 Normal termination of Gaussian 16 at Mon Apr 21 21:17:01 2025.
