 Gaussian 16, Revision A.03,
 Gaussian 16:  ES64L-G16RevA.03 25-Dec-2016

 ---------------------------------------------------
 #p UM062X/6-311+G** force int=superfine pop=saveNBO
 ---------------------------------------------------

 -------------------
 Title Card Required
 -------------------
 Symbolic Z-matrix:
 Charge =  0 Multiplicity = 1

                         Standard orientation:
 ---------------------------------------------------------------------
 Center     Atomic      Atomic             Coordinates (Angstroms)
 Number     Number       Type             X           Y           Z
 ---------------------------------------------------------------------
      1          8           0        0.000000    0.000000   -1.293424
      2         16           0        0.000000    0.000000    0.646712
 ---------------------------------------------------------------------

 SCF Done:  E(UM062X) =  -473.196968254     A.U. after   13 cycles

 Unable to determine electronic state:  an orbital has unidentified symmetry.
 Alpha  occ. eigenvalues --  -90.02582 -19.74092  -8.38121  -6.30246  -6.30116
 Alpha  occ. eigenvalues --   -6.29269  -1.07842  -0.79643  -0.47050  -0.45056
 Alpha  occ. eigenvalues --   -0.41435  -0.34624
 Alpha virt. eigenvalues --   -0.19552  -0.07526   0.02446   0.04611   0.05258
 Alpha virt. eigenvalues --    0.06172   0.18716   0.20644   0.21001   0.27490
 Alpha virt. eigenvalues --    0.33111   0.33365   0.34049   0.60006   0.73594

  Beta  occ. eigenvalues --  -90.02582 -19.74092  -8.38121  -6.30246  -6.30116
  Beta  occ. eigenvalues --   -6.29269  -1.07842  -0.79643  -0.47050  -0.45056
  Beta  occ. eigenvalues --   -0.41435  -0.34624
  Beta virt. eigenvalues --   -0.19552  -0.07526   0.02446   0.04611   0.05258
  Beta virt. eigenvalues --    0.06172   0.18716   0.20644   0.21001   0.27490
  Beta virt. eigenvalues --    0.33111   0.33365   0.34049   0.60006   0.73594

 Mulliken charges and spin densities:
               1          2
     1  O   -0.245909  -0.000000
     2  S    0.245909   0.000000
 Sum of Mulliken charges =  -0.00000  -0.00000

 Dipole moment (field-independent basis, Debye):
    X=              0.0000    Y=              0.0000    Z=              2.4342  Tot=              2.4342
 Quadrupole moment (field-independent basis, Debye-Ang):
   XX=            -16.6820   YY=            -20.3276   ZZ=            -18.6408
   XY=              0.0000   XZ=              0.0000   YZ=              0.0000

 Summary of Natural Population Analysis:

                                       Natural Population
                Natural  -----------------------------------------------
    Atom  No    Charge         Core      Valence    Rydberg      Total
 -----------------------------------------------------------------------
      O    1   -0.21773      0.99999     3.21428    0.00346     4.21773
      S    2    0.21773      4.99995     2.77353    0.00879     7.78227
 =======================================================================
   * Total *    0.00000      5.99994     5.98781    0.01225    12.00000

 Normal termination of Gaussian 16 at Mon Apr 21 20:00:39 2025.
