 Gaussian 16, Revision A.03,
 Gaussian 16:  ES64L-G16RevA.03 25-Dec-2016

 --------------------------------------------
 #p opt UM062X/6-311+G** nosymm int=superfine
 --------------------------------------------

 -------------------
 Title Card Required
 -------------------
 Symbolic Z-matrix:
 Charge =  0 Multiplicity = 1

 SCF Done:  E(UM062X) =  -797.462186801     A.U. after   13 cycles
 SCF Done:  E(UM062X) =  -797.463555238     A.U. after   12 cycles
 SCF Done:  E(UM062X) =  -797.464297613     A.U. after   12 cycles
 SCF Done:  E(UM062X) =  -797.464323150     A.U. after   11 cycles
 SCF Done:  E(UM062X) =  -797.464323269     A.U. after   10 cycles
 SCF Done:  E(UM062X) =  -797.464323328     A.U. after   10 cycles
 SCF Done:  E(UM062X) =  -797.464323368     A.U. after   10 cycles
 Optimization completed on the basis of negligible forces.
    -- Stationary point found.

                          Input orientation:
 ---------------------------------------------------------------------
 Center     Atomic      Atomic             Coordinates (Angstroms)
 Number     Number       Type             X           Y           Z
 ---------------------------------------------------------------------
      1         16           0       -1.543191    0.000000    0.000000
      2         16           0        1.543191    0.000000    0.000000
      3          1           0       -1.490076   -1.338331   -0.127858
      4          1           0        1.490534    0.159218    1.335069
 ---------------------------------------------------------------------

 Alpha  occ. eigenvalues --  -89.94709 -89.94708  -8.30849  -8.30849  -6.23010
 Alpha  occ. eigenvalues --   -6.23010  -6.22741  -6.22741  -6.22188  -6.22188
 Alpha  occ. eigenvalues --   -0.82481  -0.80234  -0.47362  -0.47304  -0.35314
 Alpha  occ. eigenvalues --   -0.33496  -0.33065
 Alpha virt. eigenvalues --   -0.16833   0.01944   0.03182   0.04646   0.05043
 Alpha virt. eigenvalues --    0.06230   0.07261   0.07401   0.07530   0.11293
 Alpha virt. eigenvalues --    0.13197   0.30406   0.31095   0.32302   0.35818

  Beta  occ. eigenvalues --  -89.94709 -89.94708  -8.30849  -8.30849  -6.23010
  Beta  occ. eigenvalues --   -6.23010  -6.22741  -6.22741  -6.22188  -6.22188
  Beta  occ. eigenvalues --   -0.82481  -0.80234  -0.47362  -0.47304  -0.35314
  Beta  occ. eigenvalues --   -0.33496  -0.33065
  Beta virt. eigenvalues --   -0.16833   0.01944   0.03182   0.04646   0.05043
  Beta virt. eigenvalues --    0.06230   0.07261   0.07401   0.07530   0.11293
  Beta virt. eigenvalues --    0.13197   0.30406   0.31095   0.32302   0.35818

 Mulliken charges and spin densities:
               1          2
     1  S   -0.088415  -0.000000
     2  S   -0.088448   0.000000
     3  H    0.088427   0.000000
     4  H    0.088436  -0.000000
 Sum of Mulliken charges =   0.00000   0.00000

 Dipole moment (field-independent basis, Debye):
    X=              0.0003    Y=             -0.9449    Z=              0.9673  Tot=              1.3522
 Quadrupole moment (field-independent basis, Debye-Ang):
   XX=            -25.3424   YY=            -27.9408   ZZ=            -27.9817
   XY=              2.0874   XZ=              2.0396   YZ=              0.8725

 Normal termination of Gaussian 16 at Mon Apr 21 21:16:39 2025.
