 Gaussian 16, Revision A.03,
 Gaussian 16:  ES64L-G16RevA.03 25-Dec-2016

 --------------------------------------------
 #p opt UM062X/6-311+G** nosymm int=superfine
 --------------------------------------------

 -------------------
 Title Card Required
 -------------------
 Symbolic Z-matrix:
 Charge =  0 Multiplicity = 1

 SCF Done:  E(UM062X) =  -76.9476294555     A.U. after   10 cycles
 SCF Done:  E(UM062X) =  -76.9924903547     A.U. after    9 cycles
 SCF Done:  E(UM062X) =  -77.0668604118     A.U. after   10 cycles
 SCF Done:  E(UM062X) =  -77.0802879889     A.U. after   10 cycles
 SCF Done:  E(UM062X) =  -77.0803731879     A.U. after    8 cycles
 Optimization completed.
    -- Stationary point found.

                          Input orientation:
 ---------------------------------------------------------------------
 Center     Atomic      Atomic             Coordinates (Angstroms)
 Number     Number       Type             X           Y           Z
 ---------------------------------------------------------------------
      1          6           0       -0.855877    0.000000    0.000000
      2          6           0        0.855877    0.000000    0.000000
      3          1           0       -1.932710   -0.000000    0.000000
      4          1           0        1.932656   -0.000000    0.000000
 ---------------------------------------------------------------------

 Alpha  occ. eigenvalues --  -10.66074 -10.66044  -0.77596  -0.69790  -0.52883
 Alpha  occ. eigenvalues --   -0.30116  -0.30116
 Alpha virt. eigenvalues --   -0.04830  -0.04830  -0.00499   0.02302   0.05464
 Alpha virt. eigenvalues --    0.08440   0.08440   0.09568   0.11034   0.11034
 Alpha virt. eigenvalues --    0.17575   0.22492   0.27279   0.46801   0.58453

  Beta  occ. eigenvalues --  -10.66074 -10.66044  -0.77596  -0.69790  -0.52883
  Beta  occ. eigenvalues --   -0.30116  -0.30116
  Beta virt. eigenvalues --   -0.04830  -0.04830  -0.00499   0.02302   0.05464
  Beta virt. eigenvalues --    0.08440   0.08440   0.09568   0.11034   0.11034
  Beta virt. eigenvalues --    0.17575   0.22492   0.27279   0.46801   0.58453

 Mulliken charges and spin densities:
               1          2
     1  C   -0.247662   0.000000
     2  C   -0.247664  -0.000000
     3  H    0.247671   0.000000
     4  H    0.247656  -0.000000
 Sum of Mulliken charges =  -0.00000  -0.00000

 Dipole moment (field-independent basis, Debye):
    X=             -0.0001    Y=             -0.0000    Z=              0.0000  Tot=              0.0001
 Quadrupole moment (field-independent basis, Debye-Ang):
   XX=             -4.9159   YY=            -15.8196   ZZ=            -15.8196
   XY=             -0.0000   XZ=             -0.0000   YZ=              0.0000

 Normal termination of Gaussian 16 at Tue Dec  3 20:15:19 2024.
