 Gaussian 16, Revision A.03,
 Gaussian 16:  ES64L-G16RevA.03 25-Dec-2016

 --------------------------------------------
 #p opt UM062X/6-311+G** nosymm int=superfine
 --------------------------------------------

 -------------------
 Title Card Required
 -------------------
 Symbolic Z-matrix:
 Charge =  0 Multiplicity = 1

 SCF Done:  E(UM062X) =  -115.461089832     A.U. after   16 cycles
 SCF Done:  E(UM062X) =  -115.477446347     A.U. after   11 cycles
 SCF Done:  E(UM062X) =  -115.487341889     A.U. after   13 cycles
 SCF Done:  E(UM062X) =  -115.487513600     A.U. after   10 cycles
 SCF Done:  E(UM062X) =  -115.487637033     A.U. after   11 cycles
 SCF Done:  E(UM062X) =  -115.487732918     A.U. after   11 cycles
 SCF Done:  E(UM062X) =  -115.487753507     A.U. after   11 cycles
 SCF Done:  E(UM062X) =  -115.487755356     A.U. after    8 cycles
 Optimization completed.
    -- Stationary point found.

                          Input orientation:
 ---------------------------------------------------------------------
 Center     Atomic      Atomic             Coordinates (Angstroms)
 Number     Number       Type             X           Y           Z
 ---------------------------------------------------------------------
      1          6           0       -1.657203    0.000000    0.000000
      2          8           0        1.657203    0.000000    0.000000
      3          1           0        1.693490   -0.965005    0.000526
      4          1           0       -1.730921   -0.532941    0.937975
      5          1           0       -1.572601    1.077981   -0.000679
      6          1           0       -1.730877   -0.534123   -0.937306
 ---------------------------------------------------------------------

 Alpha  occ. eigenvalues --  -19.58605 -10.66994  -1.00979  -0.84654  -0.56785
 Alpha  occ. eigenvalues --   -0.56546  -0.45514  -0.32468  -0.28548
 Alpha virt. eigenvalues --   -0.16088   0.00438   0.03810   0.04139   0.06664
 Alpha virt. eigenvalues --    0.13531   0.14949   0.15140   0.19850   0.22929
 Alpha virt. eigenvalues --    0.23018   0.24876   0.28778   0.39216   0.39481

  Beta  occ. eigenvalues --  -19.58605 -10.66994  -1.00979  -0.84654  -0.56785
  Beta  occ. eigenvalues --   -0.56546  -0.45514  -0.32468  -0.28548
  Beta virt. eigenvalues --   -0.16088   0.00438   0.03810   0.04139   0.06664
  Beta virt. eigenvalues --    0.13531   0.14949   0.15140   0.19850   0.22929
  Beta virt. eigenvalues --    0.23018   0.24876   0.28778   0.39216   0.39481

 Mulliken charges and spin densities:
               1          2
     1  C   -0.290361   0.000000
     2  O   -0.567893  -0.000000
     3  H    0.211653   0.000000
     4  H    0.210714  -0.000000
     5  H    0.225174  -0.000000
     6  H    0.210714  -0.000000
 Sum of Mulliken charges =  -0.00000   0.00000

 Dipole moment (field-independent basis, Debye):
    X=             -5.8363    Y=             -1.5653    Z=              0.0008  Tot=              6.0425
 Quadrupole moment (field-independent basis, Debye-Ang):
   XX=            -13.2570   YY=            -11.4749   ZZ=            -13.8943
   XY=             -2.7792   XZ=              0.0015   YZ=             -0.0013

 Normal termination of Gaussian 16 at Mon Apr 21 18:44:13 2025.
