 Gaussian 16, Revision A.03,
 Gaussian 16:  ES64L-G16RevA.03 25-Dec-2016

 --------------------------------------------
 #p opt UM062X/6-311+G** nosymm int=superfine
 --------------------------------------------

 -------------------
 Title Card Required
 -------------------
 Symbolic Z-matrix:
 Charge =  0 Multiplicity = 1

 SCF Done:  E(UM062X) =  -51.8224096276     A.U. after   10 cycles
 SCF Done:  E(UM062X) =  -51.8271700258     A.U. after    8 cycles
 SCF Done:  E(UM062X) =  -51.8297019459     A.U. after   11 cycles
 SCF Done:  E(UM062X) =  -51.8297037163     A.U. after    9 cycles
 SCF Done:  E(UM062X) =  -51.8296786741     A.U. after    9 cycles
 SCF Done:  E(UM062X) =  -51.8297038234     A.U. after    9 cycles
 Optimization completed.
    -- Stationary point found.

                          Input orientation:
 ---------------------------------------------------------------------
 Center     Atomic      Atomic             Coordinates (Angstroms)
 Number     Number       Type             X           Y           Z
 ---------------------------------------------------------------------
      1          5           0       -1.770607    0.000000    0.000000
      2          5           0        1.770607    0.000000    0.000000
      3          1           0       -2.247740   -1.079160   -0.000004
      4          1           0        2.247739    1.079144   -0.005788
      5          1           0       -2.247741    1.079159    0.000692
      6          1           0        2.247740   -1.079140    0.006454
 ---------------------------------------------------------------------

 Alpha  occ. eigenvalues --   -7.11094  -7.11092  -0.57703  -0.57152  -0.44671
 Alpha  occ. eigenvalues --   -0.44467  -0.21507
 Alpha virt. eigenvalues --   -0.05226  -0.05019  -0.03414   0.02305   0.03452
 Alpha virt. eigenvalues --    0.03854   0.05579   0.06277   0.07403   0.08013
 Alpha virt. eigenvalues --    0.10190   0.15632   0.16537   0.17181   0.24968

  Beta  occ. eigenvalues --   -7.11094  -7.11092  -0.57703  -0.57152  -0.44671
  Beta  occ. eigenvalues --   -0.44467  -0.21507
  Beta virt. eigenvalues --   -0.05226  -0.05019  -0.03414   0.02305   0.03452
  Beta virt. eigenvalues --    0.03854   0.05579   0.06277   0.07403   0.08013
  Beta virt. eigenvalues --    0.10190   0.15632   0.16537   0.17181   0.24968

 Mulliken charges and spin densities:
               1          2
     1  B   -0.053592  -0.000000
     2  B   -0.053592   0.000000
     3  H    0.026796  -0.000000
     4  H    0.026796   0.000000
     5  H    0.026796  -0.000000
     6  H    0.026796   0.000000
 Sum of Mulliken charges =  -0.00000  -0.00000

 Dipole moment (field-independent basis, Debye):
    X=              0.0000    Y=              0.0000    Z=              0.0004  Tot=              0.0004
 Quadrupole moment (field-independent basis, Debye-Ang):
   XX=            -12.5137   YY=            -16.9209   ZZ=            -14.3537
   XY=             -0.0000   XZ=              0.0000   YZ=              0.0069

 Normal termination of Gaussian 16 at Mon Apr 21 17:17:00 2025.
