 Gaussian 16, Revision A.03,
 Gaussian 16:  ES64L-G16RevA.03 25-Dec-2016

 ---------------------------------------
 #p UM062X/6-311+G** force int=superfine
 ---------------------------------------

 -------------------
 Title Card Required
 -------------------
 Symbolic Z-matrix:
 Charge =  1 Multiplicity = 2

                         Standard orientation:
 ---------------------------------------------------------------------
 Center     Atomic      Atomic             Coordinates (Angstroms)
 Number     Number       Type             X           Y           Z
 ---------------------------------------------------------------------
      1          7           0        0.000000    0.000000    1.430391
      2          7           0        0.000000    0.000000   -1.430391
 ---------------------------------------------------------------------

 SCF Done:  E(UM062X) =  -108.394574519     A.U. after   11 cycles

 Unable to determine electronic state:  partially filled degenerate orbitals.
 Alpha  occ. eigenvalues --  -15.33674 -15.33667  -1.22284  -1.20431  -0.68492
 Alpha  occ. eigenvalues --   -0.68205  -0.65873
 Alpha virt. eigenvalues --   -0.57950  -0.55290  -0.53152  -0.12860  -0.08567
 Alpha virt. eigenvalues --   -0.08454  -0.08393  -0.03308  -0.02976  -0.02760
 Alpha virt. eigenvalues --    0.04382   0.42161   0.48418   0.49690   0.53036

  Beta  occ. eigenvalues --  -15.33184 -15.33179  -1.18534  -1.16780  -0.66528
  Beta  occ. eigenvalues --   -0.64101
  Beta virt. eigenvalues --   -0.53461  -0.51166  -0.46116  -0.44948  -0.14026
  Beta virt. eigenvalues --   -0.09082  -0.08943  -0.08541  -0.03744  -0.03166
  Beta virt. eigenvalues --   -0.03007   0.02932   0.42231   0.49627   0.49872

 Mulliken charges and spin densities:
               1          2
     1  N    0.500000   0.500000
     2  N    0.500000   0.500000
 Sum of Mulliken charges =   1.00000   1.00000

 Dipole moment (field-independent basis, Debye):
    X=              0.0000    Y=             -0.0000    Z=              0.0000  Tot=              0.0000
 Quadrupole moment (field-independent basis, Debye-Ang):
   XX=            -10.0174   YY=             -8.5670   ZZ=              1.5679
   XY=              0.0000   XZ=             -0.0000   YZ=             -0.0000

 Optimization completed.
    -- Stationary point found.
 Normal termination of Gaussian 16 at Wed Feb 26 13:54:13 2025.
