 Gaussian 16, Revision A.03,
 Gaussian 16:  ES64L-G16RevA.03 25-Dec-2016

 --------------------------------------------
 #p opt UM062X/6-311+G** nosymm int=superfine
 --------------------------------------------

 -------------------
 Title Card Required
 -------------------
 Symbolic Z-matrix:
 Charge =  0 Multiplicity = 1

 SCF Done:  E(UM062X) =  -79.7661626416     A.U. after    8 cycles
 SCF Done:  E(UM062X) =  -79.7739425868     A.U. after    8 cycles
 SCF Done:  E(UM062X) =  -79.7740274627     A.U. after    7 cycles
 Optimization completed.
    -- Stationary point found.

                          Input orientation:
 ---------------------------------------------------------------------
 Center     Atomic      Atomic             Coordinates (Angstroms)
 Number     Number       Type             X           Y           Z
 ---------------------------------------------------------------------
      1          6           0       -0.671921    0.000000    0.000000
      2          6           0        0.671990    0.000000    0.000000
      3          1           0        1.109548   -0.870231    0.503581
      4          1           0       -1.109461   -0.871236   -0.501871
      5          1           0        1.109531    0.871237    0.501867
      6          1           0        1.109571   -0.000959   -1.005435
      7          1           0       -1.109479    0.870229   -0.503585
      8          1           0       -1.109504    0.000956    1.005433
 ---------------------------------------------------------------------

 Alpha  occ. eigenvalues --  -10.50979 -10.50883  -0.88958  -0.68960  -0.51931
 Alpha  occ. eigenvalues --   -0.51930  -0.46897  -0.38056  -0.38055
 Alpha virt. eigenvalues --    0.02138   0.04191   0.05233   0.05233   0.08763
 Alpha virt. eigenvalues --    0.08876   0.08876   0.14132   0.19201   0.19201
 Alpha virt. eigenvalues --    0.20281   0.20282   0.24089   0.27916   0.34755

  Beta  occ. eigenvalues --  -10.50979 -10.50883  -0.88958  -0.68960  -0.51931
  Beta  occ. eigenvalues --   -0.51930  -0.46897  -0.38056  -0.38055
  Beta virt. eigenvalues --    0.02138   0.04191   0.05233   0.05233   0.08763
  Beta virt. eigenvalues --    0.08876   0.08876   0.14132   0.19201   0.19201
  Beta virt. eigenvalues --    0.20281   0.20282   0.24089   0.27916   0.34755

 Mulliken charges and spin densities:
               1          2
     1  C   -0.451008  -0.000000
     2  C   -0.451008   0.000000
     3  H    0.150336   0.000000
     4  H    0.150335  -0.000000
     5  H    0.150336   0.000000
     6  H    0.150336   0.000000
     7  H    0.150336  -0.000000
     8  H    0.150336  -0.000000
 Sum of Mulliken charges =  -0.00000   0.00000

 Dipole moment (field-independent basis, Debye):
    X=              0.0000    Y=             -0.0000    Z=             -0.0000  Tot=              0.0000
 Quadrupole moment (field-independent basis, Debye-Ang):
   XX=            -15.6318   YY=            -14.9640   ZZ=            -14.9640
   XY=             -0.0000   XZ=             -0.0001   YZ=             -0.0001

 Normal termination of Gaussian 16 at Tue Nov 19 11:49:14 2024.
