 Gaussian 16, Revision A.03,
 Gaussian 16:  ES64L-G16RevA.03 25-Dec-2016

 --------------------------------------------
 #p opt UM062X/6-311+G** nosymm int=superfine
 --------------------------------------------

 -------------------
 Title Card Required
 -------------------
 Symbolic Z-matrix:
 Charge =  0 Multiplicity = 1

 SCF Done:  E(UM062X) =  -797.537825181     A.U. after   10 cycles
 SCF Done:  E(UM062X) =  -797.538633316     A.U. after   11 cycles
 SCF Done:  E(UM062X) =  -797.538271873     A.U. after   11 cycles
 SCF Done:  E(UM062X) =  -797.538710020     A.U. after   10 cycles
 Optimization completed.
    -- Stationary point found.

                          Input orientation:
 ---------------------------------------------------------------------
 Center     Atomic      Atomic             Coordinates (Angstroms)
 Number     Number       Type             X           Y           Z
 ---------------------------------------------------------------------
      1         16           0       -1.193191    0.000000    0.000000
      2         16           0        1.193191    0.000000    0.000000
      3          1           0       -1.270438   -1.340748   -0.022744
      4          1           0        1.270906    0.062215    1.339354
 ---------------------------------------------------------------------

 Alpha  occ. eigenvalues --  -89.93640 -89.93637  -8.29895  -8.29891  -6.22047
 Alpha  occ. eigenvalues --   -6.22042  -6.21788  -6.21786  -6.21279  -6.21276
 Alpha  occ. eigenvalues --   -0.85985  -0.77831  -0.49122  -0.47174  -0.39788
 Alpha  occ. eigenvalues --   -0.33065  -0.32701
 Alpha virt. eigenvalues --   -0.08005   0.01659   0.03417   0.04873   0.05020
 Alpha virt. eigenvalues --    0.06020   0.07579   0.07664   0.07751   0.12529
 Alpha virt. eigenvalues --    0.13619   0.30715   0.31559   0.32806   0.33611

  Beta  occ. eigenvalues --  -89.93640 -89.93637  -8.29895  -8.29891  -6.22047
  Beta  occ. eigenvalues --   -6.22042  -6.21788  -6.21786  -6.21279  -6.21276
  Beta  occ. eigenvalues --   -0.85985  -0.77831  -0.49122  -0.47174  -0.39788
  Beta  occ. eigenvalues --   -0.33065  -0.32701
  Beta virt. eigenvalues --   -0.08005   0.01659   0.03417   0.04873   0.05020
  Beta virt. eigenvalues --    0.06020   0.07579   0.07664   0.07751   0.12529
  Beta virt. eigenvalues --    0.13619   0.30715   0.31559   0.32806   0.33611

 Mulliken charges and spin densities:
               1          2
     1  S   -0.089552  -0.000000
     2  S   -0.089621   0.000000
     3  H    0.089585   0.000000
     4  H    0.089588  -0.000000
 Sum of Mulliken charges =   0.00000  -0.00000

 Dipole moment (field-independent basis, Debye):
    X=              0.0002    Y=             -1.0128    Z=              1.0432  Tot=              1.4540
 Quadrupole moment (field-independent basis, Debye-Ang):
   XX=            -26.4320   YY=            -27.5188   ZZ=            -27.5351
   XY=              1.8440   XZ=              1.7914   YZ=              0.2644

 Normal termination of Gaussian 16 at Mon Apr 21 21:14:33 2025.
