 Gaussian 16, Revision A.03,
 Gaussian 16:  ES64L-G16RevA.03 25-Dec-2016

 --------------------------------------------
 #p opt UM062X/6-311+G** nosymm int=superfine
 --------------------------------------------

 -------------------
 Title Card Required
 -------------------
 Symbolic Z-matrix:
 Charge =  0 Multiplicity = 1

 SCF Done:  E(UM062X) =  -76.8742159624     A.U. after   10 cycles
 SCF Done:  E(UM062X) =  -76.9182081464     A.U. after    9 cycles
 SCF Done:  E(UM062X) =  -76.9887251249     A.U. after   10 cycles
 SCF Done:  E(UM062X) =  -77.0325219423     A.U. after   10 cycles
 SCF Done:  E(UM062X) =  -77.0326639672     A.U. after    8 cycles
 Optimization completed.
    -- Stationary point found.

                          Input orientation:
 ---------------------------------------------------------------------
 Center     Atomic      Atomic             Coordinates (Angstroms)
 Number     Number       Type             X           Y           Z
 ---------------------------------------------------------------------
      1          6           0       -0.897773    0.000000    0.000000
      2          6           0        0.897773    0.000000    0.000000
      3          1           0       -1.977282    0.000004    0.000004
      4          1           0        1.977234    0.000015   -0.000016
 ---------------------------------------------------------------------

 Alpha  occ. eigenvalues --  -10.67125 -10.67100  -0.76987  -0.70308  -0.51845
 Alpha  occ. eigenvalues --   -0.29545  -0.29545
 Alpha virt. eigenvalues --   -0.06080  -0.06080  -0.02508   0.02277   0.04313
 Alpha virt. eigenvalues --    0.08532   0.08532   0.09656   0.10863   0.10863
 Alpha virt. eigenvalues --    0.17380   0.22167   0.26162   0.46895   0.58090

  Beta  occ. eigenvalues --  -10.67125 -10.67100  -0.76987  -0.70308  -0.51845
  Beta  occ. eigenvalues --   -0.29545  -0.29545
  Beta virt. eigenvalues --   -0.06080  -0.06080  -0.02508   0.02277   0.04313
  Beta virt. eigenvalues --    0.08532   0.08532   0.09656   0.10863   0.10863
  Beta virt. eigenvalues --    0.17380   0.22167   0.26162   0.46895   0.58090

 Mulliken charges and spin densities:
               1          2
     1  C   -0.255125  -0.000000
     2  C   -0.255125   0.000000
     3  H    0.255132  -0.000000
     4  H    0.255118   0.000000
 Sum of Mulliken charges =  -0.00000  -0.00000

 Dipole moment (field-independent basis, Debye):
    X=             -0.0001    Y=              0.0000    Z=             -0.0000  Tot=              0.0001
 Quadrupole moment (field-independent basis, Debye-Ang):
   XX=             -4.5697   YY=            -16.0565   ZZ=            -16.0565
   XY=              0.0000   XZ=             -0.0001   YZ=             -0.0000

 Normal termination of Gaussian 16 at Tue Dec  3 20:19:58 2024.
