 Gaussian 16, Revision A.03,
 Gaussian 16:  ES64L-G16RevA.03 25-Dec-2016

 --------------------------------------------
 #p opt UM062X/6-311+G** nosymm int=superfine
 --------------------------------------------

 -------------------
 Title Card Required
 -------------------
 Symbolic Z-matrix:
 Charge =  0 Multiplicity = 1

 SCF Done:  E(UM062X) =  -83.1613763580     A.U. after   10 cycles
 SCF Done:  E(UM062X) =  -83.1673315807     A.U. after    9 cycles
 SCF Done:  E(UM062X) =  -83.1676445939     A.U. after    8 cycles
 SCF Done:  E(UM062X) =  -83.1676475986     A.U. after    7 cycles
 SCF Done:  E(UM062X) =  -83.1676490272     A.U. after    7 cycles
 Optimization completed.
    -- Stationary point found.

                          Input orientation:
 ---------------------------------------------------------------------
 Center     Atomic      Atomic             Coordinates (Angstroms)
 Number     Number       Type             X           Y           Z
 ---------------------------------------------------------------------
      1          5           0       -1.102429    0.000000    0.000000
      2          7           0        1.102429    0.000000    0.000000
      3          1           0        1.445212   -0.953201   -0.000002
      4          1           0       -1.245496   -0.592806    1.026759
      5          1           0        1.444991    0.476698   -0.825534
      6          1           0        1.444984    0.476692    0.825541
      7          1           0       -1.245468    1.185607    0.000011
      8          1           0       -1.245498   -0.592787   -1.026769
 ---------------------------------------------------------------------

 Alpha  occ. eigenvalues --  -14.77863  -7.00517  -1.00413  -0.58330  -0.58330
 Alpha  occ. eigenvalues --   -0.55495  -0.38736  -0.36476  -0.36476
 Alpha virt. eigenvalues --   -0.00311   0.03672   0.04695   0.04695   0.08321
 Alpha virt. eigenvalues --    0.11023   0.11023   0.11052   0.16154   0.16155
 Alpha virt. eigenvalues --    0.16869   0.20862   0.20862   0.23766   0.30632

  Beta  occ. eigenvalues --  -14.77863  -7.00517  -1.00413  -0.58330  -0.58330
  Beta  occ. eigenvalues --   -0.55495  -0.38736  -0.36476  -0.36476
  Beta virt. eigenvalues --   -0.00311   0.03672   0.04695   0.04695   0.08321
  Beta virt. eigenvalues --    0.11023   0.11023   0.11052   0.16154   0.16155
  Beta virt. eigenvalues --    0.16869   0.20862   0.20862   0.23766   0.30632

 Mulliken charges and spin densities:
               1          2
     1  B   -0.043196   0.000000
     2  N   -0.696540  -0.000000
     3  H    0.280348   0.000000
     4  H   -0.033770  -0.000000
     5  H    0.280353   0.000000
     6  H    0.280353   0.000000
     7  H   -0.033777  -0.000000
     8  H   -0.033770  -0.000000
 Sum of Mulliken charges =  -0.00000   0.00000

 Dipole moment (field-independent basis, Debye):
    X=              3.8429    Y=              0.0002    Z=              0.0000  Tot=              3.8429
 Quadrupole moment (field-independent basis, Debye-Ang):
   XX=            -14.2450   YY=            -15.9302   ZZ=            -15.9303
   XY=             -0.0001   XZ=             -0.0000   YZ=              0.0000

 Normal termination of Gaussian 16 at Mon Apr 21 17:36:24 2025.
