 Gaussian 16, Revision A.03,
 Gaussian 16:  ES64L-G16RevA.03 25-Dec-2016

 --------------------------------------------
 #p opt UM062X/6-311+G** nosymm int=superfine
 --------------------------------------------

 -------------------
 Title Card Required
 -------------------
 Symbolic Z-matrix:
 Charge =  0 Multiplicity = 1

 SCF Done:  E(UM062X) =  -683.694008635     A.U. after   10 cycles
 SCF Done:  E(UM062X) =  -683.695187677     A.U. after   10 cycles
 SCF Done:  E(UM062X) =  -683.695385424     A.U. after   10 cycles
 Optimization completed.
    -- Stationary point found.

                          Input orientation:
 ---------------------------------------------------------------------
 Center     Atomic      Atomic             Coordinates (Angstroms)
 Number     Number       Type             X           Y           Z
 ---------------------------------------------------------------------
      1         15           0       -1.559490    0.000000    0.000000
      2         15           0        1.559490    0.000000    0.000000
      3          1           0       -1.497220   -1.420957    0.000000
      4          1           0        1.497220    1.420957    0.000000
 ---------------------------------------------------------------------

 Alpha  occ. eigenvalues --  -78.08173 -78.08173  -6.90126  -6.90125  -5.01555
 Alpha  occ. eigenvalues --   -5.01555  -5.01528  -5.01528  -5.01348  -5.01348
 Alpha  occ. eigenvalues --   -0.69677  -0.66768  -0.40761  -0.39920  -0.29372
 Alpha  occ. eigenvalues --   -0.25965
 Alpha virt. eigenvalues --   -0.14701  -0.09931   0.01955   0.03215   0.03800
 Alpha virt. eigenvalues --    0.04678   0.05096   0.05993   0.06660   0.08652
 Alpha virt. eigenvalues --    0.08727   0.12370   0.27771   0.29512   0.30430

  Beta  occ. eigenvalues --  -78.08173 -78.08173  -6.90126  -6.90125  -5.01555
  Beta  occ. eigenvalues --   -5.01555  -5.01528  -5.01528  -5.01348  -5.01348
  Beta  occ. eigenvalues --   -0.69677  -0.66768  -0.40761  -0.39920  -0.29372
  Beta  occ. eigenvalues --   -0.25965
  Beta virt. eigenvalues --   -0.14701  -0.09931   0.01955   0.03215   0.03800
  Beta virt. eigenvalues --    0.04678   0.05096   0.05993   0.06660   0.08652
  Beta virt. eigenvalues --    0.08727   0.12370   0.27771   0.29512   0.30430

 Mulliken charges and spin densities:
               1          2
     1  P    0.005683   0.000000
     2  P    0.005683  -0.000000
     3  H   -0.005683  -0.000000
     4  H   -0.005683   0.000000
 Sum of Mulliken charges =  -0.00000  -0.00000

 Dipole moment (field-independent basis, Debye):
    X=             -0.0000    Y=             -0.0000    Z=              0.0000  Tot=              0.0000
 Quadrupole moment (field-independent basis, Debye-Ang):
   XX=            -27.4918   YY=            -28.2257   ZZ=            -30.6350
   XY=              2.7639   XZ=             -0.0000   YZ=              0.0000

 Normal termination of Gaussian 16 at Mon Apr 21 21:11:38 2025.
