 Gaussian 16, Revision A.03,
 Gaussian 16:  ES64L-G16RevA.03 25-Dec-2016

 --------------------------------------------
 #p opt UM062X/6-311+G** nosymm int=superfine
 --------------------------------------------

 -------------------
 Title Card Required
 -------------------
 Symbolic Z-matrix:
 Charge =  0 Multiplicity = 1

 SCF Done:  E(UM062X) =  -80.6063812608     A.U. after   11 cycles
 SCF Done:  E(UM062X) =  -80.6065049555     A.U. after    9 cycles
 SCF Done:  E(UM062X) =  -80.6065054941     A.U. after    8 cycles
 SCF Done:  E(UM062X) =  -80.6065056446     A.U. after    8 cycles
 SCF Done:  E(UM062X) =  -80.6065059022     A.U. after   11 cycles
 SCF Done:  E(UM062X) =  -80.6065058301     A.U. after    9 cycles
 SCF Done:  E(UM062X) =  -80.6065060130     A.U. after    9 cycles
 SCF Done:  E(UM062X) =  -80.6066020744     A.U. after   12 cycles
 SCF Done:  E(UM062X) =  -80.6227066023     A.U. after   13 cycles
 SCF Done:  E(UM062X) =  -80.6299222224     A.U. after   13 cycles
 SCF Done:  E(UM062X) =  -80.6386471290     A.U. after   14 cycles
 SCF Done:  E(UM062X) =  -80.6389915084     A.U. after   13 cycles
 SCF Done:  E(UM062X) =  -80.6410211469     A.U. after   12 cycles
 SCF Done:  E(UM062X) =  -80.6410490365     A.U. after   12 cycles
 SCF Done:  E(UM062X) =  -80.6413518416     A.U. after   12 cycles
 SCF Done:  E(UM062X) =  -80.6414011895     A.U. after   12 cycles
 SCF Done:  E(UM062X) =  -80.6414016516     A.U. after    9 cycles
 Optimization completed.
    -- Stationary point found.

                          Input orientation:
 ---------------------------------------------------------------------
 Center     Atomic      Atomic             Coordinates (Angstroms)
 Number     Number       Type             X           Y           Z
 ---------------------------------------------------------------------
      1          5           0       -0.867066    0.000000    0.000000
      2          7           0        0.867066    0.000000    0.000000
      3          1           0       -2.025915   -0.083488   -0.184002
      4          1           0        1.062181    0.420271    0.920788
 ---------------------------------------------------------------------

 Alpha  occ. eigenvalues --  -14.76408  -7.17512  -0.87004  -0.59492  -0.46188
 Alpha  occ. eigenvalues --   -0.36316  -0.29906
 Alpha virt. eigenvalues --   -0.05678  -0.03559   0.00772   0.01335   0.04509
 Alpha virt. eigenvalues --    0.05052   0.09209   0.13980   0.16193   0.18716
 Alpha virt. eigenvalues --    0.20615   0.24022   0.27366   0.38137   0.39214

  Beta  occ. eigenvalues --  -14.76408  -7.17512  -0.87004  -0.59492  -0.46188
  Beta  occ. eigenvalues --   -0.36316  -0.29906
  Beta virt. eigenvalues --   -0.05678  -0.03559   0.00772   0.01335   0.04509
  Beta virt. eigenvalues --    0.05052   0.09209   0.13980   0.16193   0.18716
  Beta virt. eigenvalues --    0.20615   0.24022   0.27366   0.38137   0.39214

 Mulliken charges and spin densities:
               1          2
     1  B    0.211449  -0.000000
     2  N   -0.486102   0.000000
     3  H    0.068230  -0.000000
     4  H    0.206423  -0.000000
 Sum of Mulliken charges =  -0.00000  -0.00000

 Dipole moment (field-independent basis, Debye):
    X=             -3.3929    Y=              0.5301    Z=              1.1606  Tot=              3.6249
 Quadrupole moment (field-independent basis, Debye-Ang):
   XX=            -11.6523   YY=            -14.4408   ZZ=            -12.2666
   XY=              0.8291   XZ=              1.8168   YZ=              1.2535

 Normal termination of Gaussian 16 at Mon Apr 21 18:03:59 2025.
