 Gaussian 16, Revision A.03,
 Gaussian 16:  ES64L-G16RevA.03 25-Dec-2016

 ---------------------------------------
 #p UM062X/6-311+G** force int=superfine
 ---------------------------------------

 -------------------
 Title Card Required
 -------------------
 Symbolic Z-matrix:
 Charge =  0 Multiplicity = 1

                         Standard orientation:
 ---------------------------------------------------------------------
 Center     Atomic      Atomic             Coordinates (Angstroms)
 Number     Number       Type             X           Y           Z
 ---------------------------------------------------------------------
      1          7           0        0.000000    0.000000    1.820048
      2          7           0        0.000000    0.000000   -1.820048
 ---------------------------------------------------------------------

 SCF Done:  E(UM062X) =  -108.715063400     A.U. after    9 cycles

 The electronic state is 1-SGG.
 Alpha  occ. eigenvalues --  -14.96079 -14.96076  -0.87102  -0.86509  -0.32969
 Alpha  occ. eigenvalues --   -0.32180  -0.32180
 Alpha virt. eigenvalues --   -0.24193  -0.24193  -0.23113   0.06854   0.09249
 Alpha virt. eigenvalues --    0.10986   0.10986   0.14585   0.14709   0.14709
 Alpha virt. eigenvalues --    0.21650   0.77440   0.77440   0.78146   0.78481

  Beta  occ. eigenvalues --  -14.96079 -14.96076  -0.87102  -0.86509  -0.32969
  Beta  occ. eigenvalues --   -0.32180  -0.32180
  Beta virt. eigenvalues --   -0.24193  -0.24193  -0.23113   0.06854   0.09249
  Beta virt. eigenvalues --    0.10986   0.10986   0.14585   0.14709   0.14709
  Beta virt. eigenvalues --    0.21650   0.77440   0.77440   0.78146   0.78481

 Mulliken charges and spin densities:
               1          2
     1  N   -0.000000   0.000000
     2  N   -0.000000   0.000000
 Sum of Mulliken charges =  -0.00000   0.00000

 Dipole moment (field-independent basis, Debye):
    X=              0.0000    Y=             -0.0000    Z=              0.0000  Tot=              0.0000
 Quadrupole moment (field-independent basis, Debye-Ang):
   XX=            -12.4401   YY=            -12.4401   ZZ=            -10.8738
   XY=              0.0000   XZ=             -0.0000   YZ=              0.0000

 Optimization completed.
    -- Stationary point found.
 Normal termination of Gaussian 16 at Wed Feb 26 14:03:37 2025.
