 Gaussian 16, Revision A.03,
 Gaussian 16:  ES64L-G16RevA.03 25-Dec-2016

 --------------------------------------------
 #p opt UM062X/6-311+G** nosymm int=superfine
 --------------------------------------------

 -------------------
 Title Card Required
 -------------------
 Symbolic Z-matrix:
 Charge =  0 Multiplicity = 1

 SCF Done:  E(UM062X) =  -95.7024672438     A.U. after   12 cycles
 SCF Done:  E(UM062X) =  -95.7181589176     A.U. after   11 cycles
 SCF Done:  E(UM062X) =  -95.7234107895     A.U. after   11 cycles
 SCF Done:  E(UM062X) =  -95.7234772635     A.U. after   10 cycles
 SCF Done:  E(UM062X) =  -95.7234842970     A.U. after    9 cycles
 SCF Done:  E(UM062X) =  -95.7234866887     A.U. after    9 cycles
 Optimization completed.
    -- Stationary point found.

                          Input orientation:
 ---------------------------------------------------------------------
 Center     Atomic      Atomic             Coordinates (Angstroms)
 Number     Number       Type             X           Y           Z
 ---------------------------------------------------------------------
      1          6           0       -1.155542    0.000000    0.000000
      2          7           0        1.155542    0.000000    0.000000
      3          1           0        1.229364   -1.012392    0.130443
      4          1           0       -1.306056    1.070268   -0.000316
      5          1           0        1.229344    0.374312    0.949663
      6          1           0       -1.305897   -0.511553   -0.940116
      7          1           0       -1.399862   -0.538344    0.906107
 ---------------------------------------------------------------------

 Alpha  occ. eigenvalues --  -14.74926 -10.59606  -0.90835  -0.78456  -0.51937
 Alpha  occ. eigenvalues --   -0.50568  -0.49257  -0.36523  -0.31144
 Alpha virt. eigenvalues --   -0.04116   0.01518   0.05075   0.05721   0.07069
 Alpha virt. eigenvalues --    0.10846   0.13591   0.16016   0.16604   0.18155
 Alpha virt. eigenvalues --    0.20785   0.22236   0.22313   0.31829   0.41683

  Beta  occ. eigenvalues --  -14.74926 -10.59606  -0.90835  -0.78456  -0.51937
  Beta  occ. eigenvalues --   -0.50568  -0.49257  -0.36523  -0.31144
  Beta virt. eigenvalues --   -0.04116   0.01518   0.05075   0.05721   0.07069
  Beta virt. eigenvalues --    0.10846   0.13591   0.16016   0.16604   0.18155
  Beta virt. eigenvalues --    0.20785   0.22236   0.22313   0.31829   0.41683

 Mulliken charges and spin densities:
               1          2
     1  C   -0.429141   0.000000
     2  N   -0.584896   0.000000
     3  H    0.231994  -0.000000
     4  H    0.188536  -0.000000
     5  H    0.231984  -0.000000
     6  H    0.188621  -0.000000
     7  H    0.172902  -0.000000
 Sum of Mulliken charges =  -0.00000  -0.00000

 Dipole moment (field-independent basis, Debye):
    X=             -1.9745    Y=             -0.9077    Z=              1.5365  Tot=              2.6614
 Quadrupole moment (field-independent basis, Debye-Ang):
   XX=            -15.2144   YY=            -13.2906   ZZ=            -14.1438
   XY=             -1.3520   XZ=              2.2887   YZ=              0.7744

 Normal termination of Gaussian 16 at Mon Apr 21 18:09:52 2025.
