 Gaussian 16, Revision A.03,
 Gaussian 16:  ES64L-G16RevA.03 25-Dec-2016

 ---------------------------------------------------
 #p UM062X/6-311+G** force int=superfine pop=saveNBO
 ---------------------------------------------------

 -------------------
 Title Card Required
 -------------------
 Symbolic Z-matrix:
 Charge =  0 Multiplicity = 1

                         Standard orientation:
 ---------------------------------------------------------------------
 Center     Atomic      Atomic             Coordinates (Angstroms)
 Number     Number       Type             X           Y           Z
 ---------------------------------------------------------------------
      1          6           0        0.000000    0.000000   -1.555522
      2          8           0        0.000000    0.000000    1.166642
 ---------------------------------------------------------------------

 SCF Done:  E(UM062X) =  -112.780305094     A.U. after   24 cycles

 The electronic state is 1-SG.
 Alpha  occ. eigenvalues --  -19.68668 -10.78895  -0.99545  -0.69795  -0.38034
 Alpha  occ. eigenvalues --   -0.38034  -0.33779
 Alpha virt. eigenvalues --   -0.15643  -0.15643  -0.13222   0.03279   0.06437
 Alpha virt. eigenvalues --    0.06437   0.07260   0.18868   0.21564   0.21564
 Alpha virt. eigenvalues --    0.29863   0.53024   0.53024   0.55866   0.63354

  Beta  occ. eigenvalues --  -19.68668 -10.78895  -0.99545  -0.69795  -0.38034
  Beta  occ. eigenvalues --   -0.38034  -0.33779
  Beta virt. eigenvalues --   -0.15643  -0.15643  -0.13222   0.03279   0.06437
  Beta virt. eigenvalues --    0.06437   0.07260   0.18868   0.21564   0.21564
  Beta virt. eigenvalues --    0.29863   0.53024   0.53024   0.55866   0.63354

 Mulliken charges and spin densities:
               1          2
     1  C    0.236246  -0.000000
     2  O   -0.236246  -0.000000
 Sum of Mulliken charges =  -0.00000  -0.00000

 Dipole moment (field-independent basis, Debye):
    X=              0.0000    Y=              0.0000    Z=             -3.1523  Tot=              3.1523
 Quadrupole moment (field-independent basis, Debye-Ang):
   XX=            -11.1996   YY=            -11.1996   ZZ=            -11.1947
   XY=              0.0000   XZ=              0.0000   YZ=              0.0000

 Summary of Natural Population Analysis:

                                       Natural Population
                Natural  -----------------------------------------------
    Atom  No    Charge         Core      Valence    Rydberg      Total
 -----------------------------------------------------------------------
      C    1    0.15621      1.00000     1.84330    0.00049     2.84379
      O    2   -0.15621      1.00000     3.15566    0.00055     4.15621
 =======================================================================
   * Total *   -0.00000      2.00000     4.99896    0.00105     7.00000

 Normal termination of Gaussian 16 at Mon Apr 21 19:31:48 2025.
