 Gaussian 16, Revision A.03,
 Gaussian 16:  ES64L-G16RevA.03 25-Dec-2016

 --------------------------------------------
 #p opt UM062X/6-311+G** nosymm int=superfine
 --------------------------------------------

 -------------------
 Title Card Required
 -------------------
 Symbolic Z-matrix:
 Charge =  0 Multiplicity = 1

 SCF Done:  E(UM062X) =  -110.614907669     A.U. after   10 cycles
 SCF Done:  E(UM062X) =  -110.615236500     A.U. after   10 cycles
 SCF Done:  E(UM062X) =  -110.615639488     A.U. after    9 cycles
 Optimization completed.
    -- Stationary point found.

                          Input orientation:
 ---------------------------------------------------------------------
 Center     Atomic      Atomic             Coordinates (Angstroms)
 Number     Number       Type             X           Y           Z
 ---------------------------------------------------------------------
      1          7           0       -0.665428    0.000000    0.000000
      2          7           0        0.665428    0.000000    0.000000
      3          1           0       -0.915570   -0.998759    0.000000
      4          1           0        0.915570    0.998759    0.000000
 ---------------------------------------------------------------------

 Alpha  occ. eigenvalues --  -14.82658 -14.82601  -1.11458  -0.80748  -0.55054
 Alpha  occ. eigenvalues --   -0.52657  -0.44489  -0.33985
 Alpha virt. eigenvalues --   -0.04171   0.06367   0.06517   0.09526   0.11177
 Alpha virt. eigenvalues --    0.13374   0.15873   0.17337   0.18913   0.22202
 Alpha virt. eigenvalues --    0.26568   0.35011   0.56457   0.58724   0.72996

  Beta  occ. eigenvalues --  -14.82658 -14.82601  -1.11458  -0.80748  -0.55054
  Beta  occ. eigenvalues --   -0.52657  -0.44489  -0.33985
  Beta virt. eigenvalues --   -0.04171   0.06367   0.06517   0.09526   0.11177
  Beta virt. eigenvalues --    0.13374   0.15873   0.17337   0.18913   0.22202
  Beta virt. eigenvalues --    0.26568   0.35011   0.56457   0.58724   0.72996

 Mulliken charges and spin densities:
               1          2
     1  N   -0.243347  -0.000000
     2  N   -0.243347   0.000000
     3  H    0.243347   0.000000
     4  H    0.243347   0.000000
 Sum of Mulliken charges =  -0.00000   0.00000

 Dipole moment (field-independent basis, Debye):
    X=              0.0000    Y=             -0.0000    Z=             -0.0000  Tot=              0.0000
 Quadrupole moment (field-independent basis, Debye-Ang):
   XX=            -13.5030   YY=            -10.5369   ZZ=            -12.6272
   XY=              3.7903   XZ=              0.0000   YZ=              0.0000

 Normal termination of Gaussian 16 at Thu May 15 15:32:13 2025.
