 Gaussian 16, Revision A.03,
 Gaussian 16:  ES64L-G16RevA.03 25-Dec-2016

 ---------------------------------------
 #p UM062X/6-311+G** force int=superfine
 ---------------------------------------

 -------------------
 Title Card Required
 -------------------
 Symbolic Z-matrix:
 Charge =  1 Multiplicity = 2

                         Standard orientation:
 ---------------------------------------------------------------------
 Center     Atomic      Atomic             Coordinates (Angstroms)
 Number     Number       Type             X           Y           Z
 ---------------------------------------------------------------------
      1          6           0        0.000000    0.000000   -0.882305
      2          6           0        0.000000    0.000000    0.882307
      3          1           0        0.000000    0.000000   -2.080654
      4          1           0        0.000000    0.000000    2.080646
 ---------------------------------------------------------------------

 SCF Done:  E(UM062X) =  -76.6875651616     A.U. after   10 cycles

 Unable to determine electronic state:  an orbital has unidentified symmetry.
 Alpha  occ. eigenvalues --  -11.00029 -10.99998  -1.07090  -0.95963  -0.80392
 Alpha  occ. eigenvalues --   -0.61681  -0.59610
 Alpha virt. eigenvalues --   -0.36337  -0.34362  -0.31524  -0.14703  -0.11619
 Alpha virt. eigenvalues --   -0.11314  -0.08755  -0.08534  -0.05356  -0.05072
 Alpha virt. eigenvalues --    0.00904   0.01539   0.05631   0.22790   0.31117

  Beta  occ. eigenvalues --  -10.99761 -10.99740  -1.03282  -0.94074  -0.79545
  Beta  occ. eigenvalues --   -0.57712
  Beta virt. eigenvalues --   -0.39415  -0.32639  -0.29694  -0.28095  -0.15068
  Beta virt. eigenvalues --   -0.12418  -0.11574  -0.09192  -0.08977  -0.05346
  Beta virt. eigenvalues --   -0.05145  -0.00035   0.01417   0.05997   0.23307

 Mulliken charges and spin densities:
               1          2
     1  C    0.097905   0.525801
     2  C    0.097904   0.525808
     3  H    0.402097  -0.025805
     4  H    0.402093  -0.025804
 Sum of Mulliken charges =   1.00000   1.00000

 Dipole moment (field-independent basis, Debye):
    X=              0.0000    Y=              0.0000    Z=             -0.0000  Tot=              0.0000
 Quadrupole moment (field-independent basis, Debye-Ang):
   XX=            -13.1986   YY=            -11.0670   ZZ=              5.6759
   XY=              0.0000   XZ=              0.0000   YZ=              0.0000

 Normal termination of Gaussian 16 at Tue Nov 19 13:38:36 2024.
