 Gaussian 16, Revision A.03,
 Gaussian 16:  ES64L-G16RevA.03 25-Dec-2016

 --------------------------------------------
 #p opt UM062X/6-311+G** nosymm int=superfine
 --------------------------------------------

 -------------------
 Title Card Required
 -------------------
 Symbolic Z-matrix:
 Charge =  0 Multiplicity = 1

 SCF Done:  E(UM062X) =  -380.980663427     A.U. after   17 cycles
 SCF Done:  E(UM062X) =  -380.982246754     A.U. after   13 cycles
 SCF Done:  E(UM062X) =  -380.982677454     A.U. after   13 cycles
 SCF Done:  E(UM062X) =  -380.982620410     A.U. after   17 cycles
 SCF Done:  E(UM062X) =  -380.982697748     A.U. after   17 cycles
 SCF Done:  E(UM062X) =  -380.982714735     A.U. after   19 cycles
 SCF Done:  E(UM062X) =  -380.982724327     A.U. after   12 cycles
 SCF Done:  E(UM062X) =  -380.982725047     A.U. after   10 cycles
 SCF Done:  E(UM062X) =  -380.982725390     A.U. after    9 cycles
 Optimization completed.
    -- Stationary point found.

                          Input orientation:
 ---------------------------------------------------------------------
 Center     Atomic      Atomic             Coordinates (Angstroms)
 Number     Number       Type             X           Y           Z
 ---------------------------------------------------------------------
      1          6           0       -1.405452    0.000000    0.000000
      2         15           0        1.405452    0.000000    0.000000
      3          1           0       -2.002614   -0.914643    0.000478
      4          1           0        1.276641   -1.415457    0.000618
      5          1           0       -1.983633    0.926120   -0.000462
 ---------------------------------------------------------------------

 Alpha  occ. eigenvalues --  -78.05665 -10.64433  -6.87635  -4.99369  -4.98877
 Alpha  occ. eigenvalues --   -4.98701  -0.77494  -0.65876  -0.52049  -0.38512
 Alpha  occ. eigenvalues --   -0.33800  -0.24462
 Alpha virt. eigenvalues --   -0.11311  -0.08021   0.01887   0.04192   0.04673
 Alpha virt. eigenvalues --    0.06066   0.06753   0.07093   0.09570   0.11219
 Alpha virt. eigenvalues --    0.13876   0.18496   0.18768   0.30615   0.32904

  Beta  occ. eigenvalues --  -78.05665 -10.64433  -6.87635  -4.99369  -4.98877
  Beta  occ. eigenvalues --   -4.98701  -0.77494  -0.65876  -0.52049  -0.38512
  Beta  occ. eigenvalues --   -0.33800  -0.24462
  Beta virt. eigenvalues --   -0.11311  -0.08021   0.01887   0.04192   0.04673
  Beta virt. eigenvalues --    0.06066   0.06753   0.07093   0.09570   0.11219
  Beta virt. eigenvalues --    0.13876   0.18496   0.18768   0.30615   0.32904

 Mulliken charges and spin densities:
               1          2
     1  C   -0.401799   0.000000
     2  P    0.066944  -0.000000
     3  H    0.178013  -0.000000
     4  H   -0.021583   0.000000
     5  H    0.178426  -0.000000
 Sum of Mulliken charges =  -0.00000   0.00000

 Dipole moment (field-independent basis, Debye):
    X=             -1.8427    Y=             -0.5976    Z=              0.0003  Tot=              1.9372
 Quadrupole moment (field-independent basis, Debye-Ang):
   XX=            -15.8854   YY=            -20.8276   ZZ=            -25.3424
   XY=             -1.3290   XZ=              0.0006   YZ=             -0.0021

 Normal termination of Gaussian 16 at Mon Apr 21 19:15:18 2025.
