 Gaussian 16, Revision A.03,
 Gaussian 16:  ES64L-G16RevA.03 25-Dec-2016

 --------------------------------------------
 #p opt UM062X/6-311+G** nosymm int=superfine
 --------------------------------------------

 -------------------
 Title Card Required
 -------------------
 Symbolic Z-matrix:
 Charge =  1 Multiplicity = 2

 SCF Done:  E(UM062X) =  -75.8744330040     A.U. after   11 cycles
 SCF Done:  E(UM062X) =  -76.0974366326     A.U. after   10 cycles
 SCF Done:  E(UM062X) =  -76.2163228944     A.U. after   23 cycles
 SCF Done:  E(UM062X) =  -76.2163762385     A.U. after    8 cycles
 SCF Done:  E(UM062X) =  -76.2163765196     A.U. after    7 cycles
 Optimization completed.
    -- Stationary point found.

                          Input orientation:
 ---------------------------------------------------------------------
 Center     Atomic      Atomic             Coordinates (Angstroms)
 Number     Number       Type             X           Y           Z
 ---------------------------------------------------------------------
      1          6           0       -0.416299    0.000000    0.000000
      2          6           0        0.416299    0.000000    0.000000
      3          1           0       -1.483542    0.000000    0.000000
      4          1           0        1.483541   -0.000000    0.000000
 ---------------------------------------------------------------------

 Alpha  occ. eigenvalues --  -10.93486 -10.87614  -1.34019  -0.93801  -0.92021
 Alpha  occ. eigenvalues --   -0.90381  -0.86273
 Alpha virt. eigenvalues --   -0.15015  -0.14971  -0.13695  -0.13343  -0.12188
 Alpha virt. eigenvalues --   -0.11871  -0.11814  -0.01704  -0.00682  -0.00661
 Alpha virt. eigenvalues --    0.02666   0.03710   0.16998   0.23083   0.23202

  Beta  occ. eigenvalues --  -10.92943 -10.87246  -1.27081  -0.92293  -0.90948
  Beta  occ. eigenvalues --   -0.83504
  Beta virt. eigenvalues --   -0.57111  -0.15450  -0.13039  -0.13038  -0.12586
  Beta virt. eigenvalues --   -0.12235  -0.11843  -0.11755  -0.00370  -0.00055
  Beta virt. eigenvalues --    0.01060   0.03160   0.04254   0.17356   0.21880

 Mulliken charges and spin densities:
               1          2
     1  C    0.262552   0.524052
     2  C    0.262552   0.524052
     3  H    0.237448  -0.024052
     4  H    0.237448  -0.024052
 Sum of Mulliken charges =   1.00000   1.00000

 Dipole moment (field-independent basis, Debye):
    X=             -0.0000    Y=             -0.0000    Z=              0.0000  Tot=              0.0000
 Quadrupole moment (field-independent basis, Debye-Ang):
   XX=             -2.8641   YY=             -9.3767   ZZ=             -8.6387
   XY=             -0.0000   XZ=             -0.0000   YZ=              0.5710

 Normal termination of Gaussian 16 at Tue Nov 19 12:40:24 2024.
