 Gaussian 16, Revision A.03,
 Gaussian 16:  ES64L-G16RevA.03 25-Dec-2016

 --------------------------------------------
 #p opt UM062X/6-311+G** nosymm int=superfine
 --------------------------------------------

 -------------------
 Title Card Required
 -------------------
 Symbolic Z-matrix:
 Charge =  1 Multiplicity = 2

 SCF Done:  E(UM062X) =  -1615.54669056     A.U. after   28 cycles
 SCF Done:  E(UM062X) =  -1615.56873061     A.U. after   24 cycles
 SCF Done:  E(UM062X) =  -1615.56857573     A.U. after   27 cycles
 SCF Done:  E(UM062X) =  -1615.56848944     A.U. after   27 cycles
 SCF Done:  E(UM062X) =  -1615.56903688     A.U. after   28 cycles
 SCF Done:  E(UM062X) =  -1615.56243917     A.U. after   33 cycles
 SCF Done:  E(UM062X) =  -1615.56848707     A.U. after   26 cycles
 SCF Done:  E(UM062X) =  -1615.56900793     A.U. after   16 cycles
 SCF Done:  E(UM062X) =  -1615.56901951     A.U. after   21 cycles
 SCF Done:  E(UM062X) =  -1615.56901604     A.U. after   24 cycles
 SCF Done:  E(UM062X) =  -1615.56903537     A.U. after   23 cycles
 SCF Done:  E(UM062X) =  -1615.56903950     A.U. after   23 cycles
 SCF Done:  E(UM062X) =  -1615.56904105     A.U. after   18 cycles
 SCF Done:  E(UM062X) =  -1615.56904152     A.U. after   18 cycles
 SCF Done:  E(UM062X) =  -1615.56904169     A.U. after   17 cycles
 SCF Done:  E(UM062X) =  -1615.56904174     A.U. after   16 cycles
 SCF Done:  E(UM062X) =  -1615.56904174     A.U. after   15 cycles
 Optimization completed.
    -- Stationary point found.

                          Input orientation:
 ---------------------------------------------------------------------
 Center     Atomic      Atomic             Coordinates (Angstroms)
 Number     Number       Type             X           Y           Z
 ---------------------------------------------------------------------
      1          6           0       -1.711949   -0.000000    0.000000
      2          6           0        1.711949    0.000000    0.000000
      3          6           0       -0.000001   -2.036481   -0.001595
      4          6           0       -0.000005   -3.441789   -0.002747
      5          6           0       -1.132499   -4.281401    0.182821
      6          6           0       -1.340205   -1.460168    0.150300
      7          6           0        0.665205   -5.674153   -0.116929
      8          1           0        1.300895   -6.540940   -0.227910
      9          6           0       -1.701234    0.755558    1.226602
     10          6           0       -0.665233   -5.674331    0.107794
     11          1           0       -1.300931   -6.541292    0.217359
     12          6           0        1.132481   -4.281106   -0.189693
     13          6           0        1.340206   -1.459934   -0.152574
     14          6           0        1.818563    2.181976   -1.359037
     15          6           0       -1.823912    0.420605   -1.370565
     16          6           0       -1.829864    2.751713    2.647882
     17          1           0       -1.935078    3.827720    2.724240
     18          6           0       -2.353265   -3.706627    0.390278
     19          1           0       -3.252485   -4.289677    0.551087
     20          6           0       -1.824832    1.772439   -1.853491
     21          6           0        2.422538   -2.292358   -0.362233
     22          1           0        3.396445   -1.825669   -0.472497
     23          6           0        1.823910    0.418467    1.371214
     24          6           0        1.824896    1.769550    1.856244
     25          6           0        2.353257   -3.706004   -0.396183
     26          1           0        3.252473   -4.288798   -0.557935
     27          6           0       -1.818623    2.179856    1.362428
     28          6           0       -1.524717    0.024403    2.439651
     29          1           0       -1.393712   -1.045749    2.394700
     30          6           0        1.876543   -0.607797    2.367846
     31          1           0        1.903740   -1.641798    2.059864
     32          6           0       -1.703617    1.999060    3.796817
     33          1           0       -1.724502    2.476034    4.769148
     34          6           0       -2.422538   -2.292927    0.358629
     35          1           0       -3.396440   -1.826411    0.469660
     36          6           0       -1.838001    2.007383   -3.242806
     37          1           0       -1.821333    3.036209   -3.583196
     38          6           0        1.701225    0.757464   -1.225429
     39          6           0       -1.854441    3.134461    0.286739
     40          1           0       -1.886723    4.167192    0.619817
     41          6           0       -1.885880    0.989267   -4.167545
     42          1           0       -1.910514    1.212810   -5.227220
     43          6           0       -1.826016    2.964492   -1.050382
     44          1           0       -1.829138    3.881646   -1.631484
     45          6           0        1.838125    2.002326    3.245926
     46          1           0        1.821521    3.030621    3.587921
     47          6           0       -1.531726    0.618033    3.681441
     48          1           0       -1.402775    0.005380    4.565457
     49          6           0       -1.876581   -0.604100   -2.368797
     50          1           0       -1.903848   -1.638577   -2.062425
     51          6           0        1.885989    0.982767    4.169073
     52          1           0        1.910679    1.204657    5.229094
     53          6           0        1.829751    2.755837   -2.643602
     54          1           0        1.934920    3.831966   -2.718283
     55          6           0        1.922616   -0.340628    3.714060
     56          1           0        1.982821   -1.160953    4.418881
     57          6           0        1.703516    2.004971   -3.793704
     58          1           0        1.724355    2.483461   -4.765290
     59          6           0        1.854417    3.134899   -0.281866
     60          1           0        1.886681    4.168150   -0.613330
     61          6           0       -1.922602   -0.334831   -3.714597
     62          1           0       -1.982846   -1.154053   -4.420694
     63          6           0        1.826060    2.962846    1.054993
     64          1           0        1.829217    3.879096    1.637519
     65          6           0        1.524732    0.028191   -2.439616
     66          1           0        1.393789   -1.042037   -2.396327
     67          6           0        1.531700    0.623753   -3.680478
     68          1           0        1.402777    0.012471   -4.565447
 ---------------------------------------------------------------------

 Alpha  occ. eigenvalues --  -10.70659 -10.70658 -10.68687 -10.68687 -10.68619
 Alpha  occ. eigenvalues --  -10.68618 -10.68264 -10.68264 -10.68250 -10.68249
 Alpha  occ. eigenvalues --  -10.67857 -10.67602 -10.67596 -10.66707 -10.66706
 Alpha  occ. eigenvalues --  -10.66603 -10.66603 -10.65905 -10.65904 -10.65884
 Alpha  occ. eigenvalues --  -10.65884 -10.65727 -10.65727 -10.65664 -10.65663
 Alpha  occ. eigenvalues --  -10.65608 -10.65608 -10.65568 -10.65568 -10.65384
 Alpha  occ. eigenvalues --  -10.65383 -10.65353 -10.65353 -10.65308 -10.65308
 Alpha  occ. eigenvalues --  -10.65148 -10.65148 -10.64809 -10.64808 -10.63911
 Alpha  occ. eigenvalues --  -10.63693 -10.63592  -1.11626  -1.10375  -1.09912
 Alpha  occ. eigenvalues --   -1.08220  -1.07826  -1.05067  -1.04986  -1.02451
 Alpha  occ. eigenvalues --   -1.02157  -1.01028  -1.00109  -0.97904  -0.97658
 Alpha  occ. eigenvalues --   -0.96652  -0.96306  -0.94800  -0.93542  -0.93444
 Alpha  occ. eigenvalues --   -0.92861  -0.91657  -0.87311  -0.87082  -0.84956
 Alpha  occ. eigenvalues --   -0.84812  -0.82973  -0.81531  -0.80606  -0.79722
 Alpha  occ. eigenvalues --   -0.79648  -0.79529  -0.77241  -0.76256  -0.76138
 Alpha  occ. eigenvalues --   -0.75891  -0.75258  -0.73219  -0.70084  -0.69578
 Alpha  occ. eigenvalues --   -0.68627  -0.68506  -0.67741  -0.67637  -0.66884
 Alpha  occ. eigenvalues --   -0.66871  -0.65723  -0.65332  -0.65220  -0.64625
 Alpha  occ. eigenvalues --   -0.63213  -0.62676  -0.62397  -0.62087  -0.60904
 Alpha  occ. eigenvalues --   -0.60892  -0.60506  -0.60129  -0.59993  -0.59941
 Alpha  occ. eigenvalues --   -0.59511  -0.58780  -0.58643  -0.58075  -0.57579
 Alpha  occ. eigenvalues --   -0.57376  -0.57153  -0.55890  -0.55643  -0.55637
 Alpha  occ. eigenvalues --   -0.54906  -0.54126  -0.52984  -0.52838  -0.52579
 Alpha  occ. eigenvalues --   -0.52418  -0.52343  -0.51970  -0.51025  -0.50964
 Alpha  occ. eigenvalues --   -0.50850  -0.50650  -0.49606  -0.49556  -0.49421
 Alpha  occ. eigenvalues --   -0.48322  -0.48174  -0.48017  -0.45695  -0.44682
 Alpha  occ. eigenvalues --   -0.43748  -0.42812  -0.40658  -0.40404  -0.39218
 Alpha  occ. eigenvalues --   -0.38116  -0.37555  -0.36973  -0.30017
 Alpha virt. eigenvalues --   -0.21622  -0.15982  -0.15508  -0.14366  -0.10725
 Alpha virt. eigenvalues --   -0.09947  -0.08919  -0.08569  -0.08325  -0.07597
 Alpha virt. eigenvalues --   -0.07534  -0.07464  -0.06628  -0.06280  -0.06199

  Beta  occ. eigenvalues --  -10.70493 -10.70493 -10.68735 -10.68735 -10.68663
  Beta  occ. eigenvalues --  -10.68663 -10.68219 -10.68218 -10.68210 -10.68209
  Beta  occ. eigenvalues --  -10.67829 -10.67622 -10.67614 -10.66703 -10.66703
  Beta  occ. eigenvalues --  -10.66596 -10.66596 -10.65864 -10.65864 -10.65849
  Beta  occ. eigenvalues --  -10.65849 -10.65694 -10.65694 -10.65627 -10.65627
  Beta  occ. eigenvalues --  -10.65624 -10.65624 -10.65587 -10.65587 -10.65400
  Beta  occ. eigenvalues --  -10.65400 -10.65372 -10.65372 -10.65305 -10.65304
  Beta  occ. eigenvalues --  -10.65136 -10.65136 -10.64809 -10.64807 -10.63907
  Beta  occ. eigenvalues --  -10.63693 -10.63592  -1.11481  -1.10205  -1.09841
  Beta  occ. eigenvalues --   -1.08117  -1.07738  -1.04896  -1.04838  -1.02342
  Beta  occ. eigenvalues --   -1.02064  -1.00847  -0.99947  -0.97803  -0.97564
  Beta  occ. eigenvalues --   -0.96545  -0.96217  -0.94757  -0.93472  -0.93349
  Beta  occ. eigenvalues --   -0.92798  -0.91574  -0.87008  -0.86724  -0.84892
  Beta  occ. eigenvalues --   -0.84752  -0.82899  -0.81435  -0.80513  -0.79641
  Beta  occ. eigenvalues --   -0.79580  -0.79459  -0.77138  -0.76119  -0.75972
  Beta  occ. eigenvalues --   -0.75730  -0.75217  -0.73103  -0.69968  -0.69434
  Beta  occ. eigenvalues --   -0.68518  -0.68390  -0.67698  -0.67594  -0.66766
  Beta  occ. eigenvalues --   -0.66755  -0.65631  -0.65180  -0.65076  -0.64532
  Beta  occ. eigenvalues --   -0.63046  -0.62623  -0.62318  -0.62021  -0.60764
  Beta  occ. eigenvalues --   -0.60679  -0.60386  -0.60037  -0.59939  -0.59704
  Beta  occ. eigenvalues --   -0.59364  -0.58683  -0.58514  -0.57998  -0.57487
  Beta  occ. eigenvalues --   -0.57157  -0.56734  -0.55669  -0.55595  -0.55591
  Beta  occ. eigenvalues --   -0.54871  -0.53835  -0.52886  -0.52754  -0.52525
  Beta  occ. eigenvalues --   -0.52316  -0.52226  -0.51948  -0.50962  -0.50837
  Beta  occ. eigenvalues --   -0.50778  -0.50230  -0.49443  -0.49414  -0.48863
  Beta  occ. eigenvalues --   -0.48245  -0.47758  -0.47477  -0.44924  -0.44198
  Beta  occ. eigenvalues --   -0.43042  -0.42458  -0.40378  -0.40344  -0.38612
  Beta  occ. eigenvalues --   -0.38046  -0.37181  -0.36954
  Beta virt. eigenvalues --   -0.20450  -0.18391  -0.15908  -0.15508  -0.14434
  Beta virt. eigenvalues --   -0.10372  -0.09541  -0.08559  -0.08543  -0.07993
  Beta virt. eigenvalues --   -0.07626  -0.07555  -0.07292  -0.06619  -0.06294

 Mulliken charges and spin densities:
               1          2
     1  C    0.035732   0.357511
     2  C    0.035796   0.357477
     3  C    0.373624   0.029922
     4  C    0.222399  -0.019301
     5  C    0.099367   0.008059
     6  C    0.049357  -0.043216
     7  C   -0.323666   0.000583
     8  H    0.176043   0.000007
     9  C   -0.033877  -0.049656
    10  C   -0.323652   0.000583
    11  H    0.176043   0.000007
    12  C    0.099325   0.008059
    13  C    0.049261  -0.043214
    14  C    0.612762   0.035955
    15  C    0.326746  -0.069356
    16  C   -0.448048  -0.038876
    17  H    0.164252   0.001151
    18  C   -0.444955   0.000595
    19  H    0.175053   0.000076
    20  C    0.278672   0.109474
    21  C   -0.114477   0.022895
    22  H    0.178018  -0.000504
    23  C    0.326744  -0.069345
    24  C    0.278750   0.109476
    25  C   -0.444913   0.000596
    26  H    0.175053   0.000076
    27  C    0.612777   0.035959
    28  C   -0.081851   0.087792
    29  H    0.213101  -0.005228
    30  C   -0.236831   0.033473
    31  H    0.223221  -0.003854
    32  C   -0.384836   0.065304
    33  H    0.182094  -0.003732
    34  C   -0.114481   0.022896
    35  H    0.178017  -0.000504
    36  C   -0.033888  -0.065864
    37  H    0.158781   0.001440
    38  C   -0.033813  -0.049652
    39  C   -0.371741   0.043480
    40  H    0.163134  -0.001974
    41  C   -0.194438   0.076974
    42  H    0.181199  -0.004079
    43  C   -0.371231   0.010837
    44  H    0.160983  -0.000443
    45  C   -0.033916  -0.065869
    46  H    0.158784   0.001440
    47  C    0.075356  -0.037519
    48  H    0.166834   0.000330
    49  C   -0.236794   0.033479
    50  H    0.223214  -0.003854
    51  C   -0.194489   0.076965
    52  H    0.181200  -0.004078
    53  C   -0.448093  -0.038871
    54  H    0.164254   0.001151
    55  C   -0.555508  -0.038454
    56  H    0.176628   0.001526
    57  C   -0.384822   0.065299
    58  H    0.182096  -0.003732
    59  C   -0.371692   0.043479
    60  H    0.163134  -0.001974
    61  C   -0.555515  -0.038458
    62  H    0.176628   0.001527
    63  C   -0.371228   0.010830
    64  H    0.160985  -0.000443
    65  C   -0.081961   0.087781
    66  H    0.213110  -0.005228
    67  C    0.075349  -0.037517
    68  H    0.166836   0.000330
 Sum of Mulliken charges =   1.00000   1.00000

 Dipole moment (field-independent basis, Debye):
    X=              0.0002    Y=              2.5742    Z=              0.0020  Tot=              2.5742
 Quadrupole moment (field-independent basis, Debye-Ang):
   XX=           -221.8464   YY=           -174.6609   ZZ=           -176.4483
   XY=             -0.0008   XZ=              1.7604   YZ=              0.0023

 Normal termination of Gaussian 16 at Sat Nov 16 01:07:04 2024.
