 Gaussian 16, Revision A.03,
 Gaussian 16:  ES64L-G16RevA.03 25-Dec-2016

 ---------------------------------------------------
 #p UM062X/6-311+G** force int=superfine pop=saveNBO
 ---------------------------------------------------

 -------------------
 Title Card Required
 -------------------
 Symbolic Z-matrix:
 Charge =  0 Multiplicity = 1

                         Standard orientation:
 ---------------------------------------------------------------------
 Center     Atomic      Atomic             Coordinates (Angstroms)
 Number     Number       Type             X           Y           Z
 ---------------------------------------------------------------------
      1          8           0        0.000000    0.000000    1.743562
      2          8           0        0.000000    0.000000   -1.743562
 ---------------------------------------------------------------------

 SCF Done:  E(UM062X) =  -149.782315552     A.U. after   10 cycles

 Unable to determine electronic state:  partially filled degenerate orbitals.
 Alpha  occ. eigenvalues --  -19.82488 -19.82486  -1.10253  -1.09878  -0.48557
 Alpha  occ. eigenvalues --   -0.48385  -0.40215  -0.39500
 Alpha virt. eigenvalues --   -0.31244  -0.30394   0.09207   0.12506   0.14401
 Alpha virt. eigenvalues --    0.14458   0.17986   0.19152   0.19385   0.28414
 Alpha virt. eigenvalues --    0.99890   1.01138   1.01161   1.01319   1.02632

  Beta  occ. eigenvalues --  -19.82488 -19.82486  -1.10253  -1.09878  -0.48557
  Beta  occ. eigenvalues --   -0.48385  -0.40215  -0.39500
  Beta virt. eigenvalues --   -0.31244  -0.30394   0.09207   0.12506   0.14401
  Beta virt. eigenvalues --    0.14458   0.17986   0.19152   0.19385   0.28414
  Beta virt. eigenvalues --    0.99890   1.01138   1.01161   1.01319   1.02632

 Mulliken charges and spin densities:
               1          2
     1  O   -0.000000  -0.000000
     2  O   -0.000000  -0.000000
 Sum of Mulliken charges =  -0.00000  -0.00000

 Dipole moment (field-independent basis, Debye):
    X=             -0.0000    Y=             -0.0000    Z=              0.0000  Tot=              0.0000
 Quadrupole moment (field-independent basis, Debye-Ang):
   XX=            -12.0449   YY=            -10.1741   ZZ=             -9.2989
   XY=             -0.0000   XZ=             -0.0000   YZ=              0.0000

 Summary of Natural Population Analysis:

                                       Natural Population
                Natural  -----------------------------------------------
    Atom  No    Charge         Core      Valence    Rydberg      Total
 -----------------------------------------------------------------------
      O    1   -0.00000      1.00000     2.99896    0.00104     4.00000
      O    2   -0.00000      1.00000     2.99896    0.00104     4.00000
 =======================================================================
   * Total *   -0.00000      2.00000     5.99792    0.00208     8.00000

 Normal termination of Gaussian 16 at Mon Apr 21 19:54:34 2025.
