 Gaussian 16, Revision A.03,
 Gaussian 16:  ES64L-G16RevA.03 25-Dec-2016

 -----------------------------
 #p UM062X/6-31+G** freq=raman
 -----------------------------

 -------------------
 Title Card Required
 -------------------
 Symbolic Z-matrix:
 Charge =  1 Multiplicity = 2

                         Standard orientation:
 ---------------------------------------------------------------------
 Center     Atomic      Atomic             Coordinates (Angstroms)
 Number     Number       Type             X           Y           Z
 ---------------------------------------------------------------------
      1          6           0        1.426689    0.000057   -0.000062
      2          6           0       -1.426655   -0.000043    0.000069
      3          1           0       -1.485788    0.638032   -0.874300
      4          1           0        1.484236   -0.438363   -0.989795
      5          1           0       -1.485083    0.438121    0.989881
      6          1           0       -1.484342   -1.076373   -0.115322
      7          1           0        1.485761   -0.637874    0.874402
      8          1           0        1.485011    1.076373    0.115093
 ---------------------------------------------------------------------

 SCF Done:  E(UM062X) =  -79.3289486203     A.U. after   10 cycles

 The electronic state is 2-A.
 Alpha  occ. eigenvalues --  -10.86271 -10.86269  -1.04757  -1.02621  -0.75105
 Alpha  occ. eigenvalues --   -0.75103  -0.74034  -0.74034  -0.53893
 Alpha virt. eigenvalues --   -0.34297  -0.13718  -0.10288  -0.10288  -0.09634
 Alpha virt. eigenvalues --   -0.06119  -0.06119  -0.05432  -0.03108   0.01010
 Alpha virt. eigenvalues --    0.01014   0.04095   0.04100   0.08165   0.11848

  Beta  occ. eigenvalues --  -10.86063 -10.86061  -1.01740  -1.00258  -0.74504
  Beta  occ. eigenvalues --   -0.74502  -0.73528  -0.73527
  Beta virt. eigenvalues --   -0.32583  -0.24410  -0.14547  -0.10527  -0.10527
  Beta virt. eigenvalues --   -0.08985  -0.05858  -0.05858  -0.04641  -0.01068
  Beta virt. eigenvalues --    0.01297   0.01301   0.04748   0.04752   0.09625

 Mulliken charges and spin densities:
               1          2
     1  C   -0.288319   0.580881
     2  C   -0.288348   0.580902
     3  H    0.262800  -0.026964
     4  H    0.262753  -0.026961
     5  H    0.262781  -0.026963
     6  H    0.262752  -0.026962
     7  H    0.262801  -0.026966
     8  H    0.262780  -0.026967
 Sum of Mulliken charges =   1.00000   1.00000

 Dipole moment (field-independent basis, Debye):
    X=              0.0000    Y=             -0.0000    Z=             -0.0000  Tot=              0.0001
 Quadrupole moment (field-independent basis, Debye-Ang):
   XX=             -1.6251   YY=            -10.9711   ZZ=            -10.9714
   XY=             -0.0008   XZ=              0.0012   YZ=             -0.0001

  Exact polarizability:  83.545  -0.054  20.996  -0.020   0.019  21.089
 Approx polarizability:  80.380  -0.003  21.392   0.004  -0.000  21.392

 ******    2 imaginary frequencies (negative Signs) ******

                      1                      2                      3
                      A                      A                      A
 Frequencies --   -107.1508               -67.3833               348.6992
 Red. masses --      4.2505                 1.0078                 1.0086
 Frc consts  --      0.0288                 0.0027                 0.0723
 IR Inten    --      0.0000                 0.0086                 0.2509
 Raman Activ --    268.6171                 0.0000                 0.0000

                      4                      5                      6
                      A                      A                      A
 Frequencies --    364.8836               436.9891               449.5691
 Red. masses --      1.0087                 1.0624                 1.0625
 Frc consts  --      0.0791                 0.1195                 0.1265
 IR Inten    --      0.2782                 0.0000                 0.0000
 Raman Activ --      0.0000                19.3077                19.3310

                      7                      8                      9
                      A                      A                      A
 Frequencies --   1129.8641              1130.9165              1428.6622
 Red. masses --      1.1892                 1.2346                 1.0981
 Frc consts  --      0.8945                 0.9303                 1.3206
 IR Inten    --      0.0004                 2.5767                22.0793
 Raman Activ --    214.0206                 0.0529                 0.0000

                     10                     11                     12
                      A                      A                      A
 Frequencies --   1429.4167              1435.3590              1436.1371
 Red. masses --      1.0981                 1.0981                 1.0981
 Frc consts  --      1.3219                 1.3329                 1.3344
 IR Inten    --     21.7992                 0.0001                 0.0001
 Raman Activ --      0.0000                 7.2323                 7.1980

                     13                     14                     15
                      A                      A                      A
 Frequencies --   3137.1222              3145.5572              3339.2411
 Red. masses --      1.0085                 1.0084                 1.1218
 Frc consts  --      5.8477                 5.8787                 7.3701
 IR Inten    --    107.9501                 0.0030                 0.1414
 Raman Activ --      0.0087               294.1291               110.1724

                     16                     17                     18
                      A                      A                      A
 Frequencies --   3340.1069              3340.4546              3341.0704
 Red. masses --      1.1218                 1.1215                 1.1214
 Frc consts  --      7.3737                 7.3730                 7.3753
 IR Inten    --      0.1206                51.0469                50.5923
 Raman Activ --    109.5812                 0.3722                 0.1911

 - Thermochemistry -
 -------------------
 Temperature   298.150 Kelvin.  Pressure   1.00000 Atm.
 Atom     1 has atomic number  6 and mass  12.00000

 Molecular mass:    30.04695 amu.
 Principal axes and moments of inertia in atomic units:
                           1         2         3
     Eigenvalues --    25.30219 234.71741 234.71797
           X            1.00000  -0.00001   0.00002
           Y            0.00001   1.00000   0.00015
           Z           -0.00002  -0.00015   1.00000
 This molecule is an asymmetric top.
 Rotational symmetry number  1.
 Rotational temperatures (Kelvin)      3.42318     0.36901     0.36901
 Rotational constants (GHZ):          71.32748     7.68900     7.68898
    2 imaginary frequencies ignored.
 Zero-point vibrational energy     174858.4 (Joules/Mol)
                                   41.79217 (Kcal/Mol)
 Warning -- explicit consideration of   4 degrees of freedom as
           vibrations may cause significant error
 Vibrational temperatures:    501.70   524.99   628.73   646.83  1625.62
          (Kelvin)           1627.14  2055.53  2056.61  2065.16  2066.28
                             4513.62  4525.76  4804.42  4805.67  4806.17
                             4807.06

 Zero-point correction=                           0.066600 (Hartree/Particle)
 Thermal correction to Energy=                    0.070750
 Thermal correction to Enthalpy=                  0.071694
 Thermal correction to Gibbs Free Energy=         0.041547
 Sum of electronic and zero-point Energies=            -79.262349
 Sum of electronic and thermal Energies=               -79.258199
 Sum of electronic and thermal Enthalpies=             -79.257254
 Sum of electronic and thermal Free Energies=          -79.287402

                     E (Thermal)             CV                S
                      KCal/Mol        Cal/Mol-Kelvin    Cal/Mol-Kelvin
 Total                   44.396             12.725             63.451
 Electronic               0.000              0.000              1.377
 Translational            0.889              2.981             36.134
 Rotational               0.889              2.981             21.860
 Vibrational             42.619              6.763              4.079
 Vibration     1          0.726              1.578              1.172
 Vibration     2          0.738              1.545              1.101
 Vibration     3          0.797              1.390              0.836
 Vibration     4          0.808              1.362              0.797

 Normal termination of Gaussian 16 at Tue Nov 19 13:41:20 2024.
