 Gaussian 16, Revision A.03,
 Gaussian 16:  ES64L-G16RevA.03 25-Dec-2016

 ---------------------------------------
 #p UM062X/6-311+G** force int=superfine
 ---------------------------------------

 -------------------
 Title Card Required
 -------------------
 Symbolic Z-matrix:
 Charge =  1 Multiplicity = 2

                         Standard orientation:
 ---------------------------------------------------------------------
 Center     Atomic      Atomic             Coordinates (Angstroms)
 Number     Number       Type             X           Y           Z
 ---------------------------------------------------------------------
      1          6           0        0.000000    0.000000    0.820173
      2          6           0        0.000000    0.000000   -0.820171
      3          1           0        0.000000    0.000000    1.914420
      4          1           0        0.000000    0.000000   -1.914426
 ---------------------------------------------------------------------

 SCF Done:  E(UM062X) =  -76.7594158851     A.U. after   10 cycles

 Unable to determine electronic state:  an orbital has unidentified symmetry.
 Alpha  occ. eigenvalues --  -10.99532 -10.99491  -1.11203  -0.99048  -0.85035
 Alpha  occ. eigenvalues --   -0.64356  -0.62201
 Alpha virt. eigenvalues --   -0.35553  -0.33555  -0.25975  -0.14224  -0.11026
 Alpha virt. eigenvalues --   -0.10692  -0.09189  -0.08951  -0.05290  -0.04966
 Alpha virt. eigenvalues --    0.01560   0.03898   0.08159   0.22224   0.31442

  Beta  occ. eigenvalues --  -10.99285 -10.99256  -1.07247  -0.97302  -0.84222
  Beta  occ. eigenvalues --   -0.60176
  Beta virt. eigenvalues --   -0.41264  -0.31841  -0.27541  -0.23844  -0.15290
  Beta virt. eigenvalues --   -0.11322  -0.11105  -0.09559  -0.09377  -0.05195
  Beta virt. eigenvalues --   -0.04876   0.00725   0.04006   0.08526   0.23006

 Mulliken charges and spin densities:
               1          2
     1  C    0.142287   0.521481
     2  C    0.142288   0.521480
     3  H    0.357711  -0.021480
     4  H    0.357714  -0.021481
 Sum of Mulliken charges =   1.00000   1.00000

 Dipole moment (field-independent basis, Debye):
    X=              0.0000    Y=              0.0000    Z=             -0.0000  Tot=              0.0000
 Quadrupole moment (field-independent basis, Debye-Ang):
   XX=            -10.5778   YY=            -12.6377   ZZ=              2.6795
   XY=              0.0000   XZ=              0.0000   YZ=              0.0000

 Normal termination of Gaussian 16 at Tue Nov 19 13:36:32 2024.
