 Gaussian 16, Revision A.03,
 Gaussian 16:  ES64L-G16RevA.03 25-Dec-2016

 --------------------------------------------
 #p opt UM062X/6-311+G** nosymm int=superfine
 --------------------------------------------

 -------------------
 Title Card Required
 -------------------
 Symbolic Z-matrix:
 Charge =  0 Multiplicity = 1

 SCF Done:  E(UM062X) =  -78.2018033158     A.U. after    9 cycles
 SCF Done:  E(UM062X) =  -78.2186241510     A.U. after    9 cycles
 SCF Done:  E(UM062X) =  -78.2337624046     A.U. after    8 cycles
 SCF Done:  E(UM062X) =  -78.2340925444     A.U. after    8 cycles
 SCF Done:  E(UM062X) =  -78.2340938798     A.U. after    7 cycles
 Optimization completed.
    -- Stationary point found.

                          Input orientation:
 ---------------------------------------------------------------------
 Center     Atomic      Atomic             Coordinates (Angstroms)
 Number     Number       Type             X           Y           Z
 ---------------------------------------------------------------------
      1          6           0       -2.135595    0.000000    0.000000
      2          6           0        2.135595    0.000000    0.000000
      3          1           0       -2.840341   -0.858915    0.000000
      4          1           0       -2.840310    0.858941   -0.000000
      5          1           0        2.840341    0.858915    0.000000
      6          1           0        2.840310   -0.858941   -0.000000
 ---------------------------------------------------------------------

 Alpha  occ. eigenvalues --  -10.59632 -10.59632  -0.74610  -0.74588  -0.46350
 Alpha  occ. eigenvalues --   -0.46327  -0.30666  -0.29533
 Alpha virt. eigenvalues --   -0.07302  -0.06982   0.02511   0.03053   0.06521
 Alpha virt. eigenvalues --    0.08579   0.08596   0.10351   0.11976   0.15498
 Alpha virt. eigenvalues --    0.17501   0.19947   0.20630   0.21225   0.45341

  Beta  occ. eigenvalues --  -10.59632 -10.59632  -0.74610  -0.74588  -0.46350
  Beta  occ. eigenvalues --   -0.46327  -0.30666  -0.29533
  Beta virt. eigenvalues --   -0.07302  -0.06982   0.02511   0.03053   0.06521
  Beta virt. eigenvalues --    0.08579   0.08596   0.10351   0.11976   0.15498
  Beta virt. eigenvalues --    0.17501   0.19947   0.20630   0.21225   0.45341

 Mulliken charges and spin densities:
               1          2
     1  C   -0.239971  -0.000000
     2  C   -0.239971  -0.000000
     3  H    0.119985   0.000000
     4  H    0.119985  -0.000000
     5  H    0.119985   0.000000
     6  H    0.119985   0.000000
 Sum of Mulliken charges =  -0.00000  -0.00000

 Dipole moment (field-independent basis, Debye):
    X=              0.0000    Y=             -0.0000    Z=              0.0000  Tot=              0.0000
 Quadrupole moment (field-independent basis, Debye-Ang):
   XX=             -1.8104   YY=            -14.6125   ZZ=            -12.9102
   XY=             -0.0001   XZ=              0.0000   YZ=              0.0000

 Normal termination of Gaussian 16 at Tue Dec  3 11:20:54 2024.
