 Gaussian 16, Revision A.03,
 Gaussian 16:  ES64L-G16RevA.03 25-Dec-2016

 ---------------------------------------------------
 #p UM062X/6-311+G** force int=superfine pop=saveNBO
 ---------------------------------------------------

 -------------------
 Title Card Required
 -------------------
 Symbolic Z-matrix:
 Charge =  0 Multiplicity = 1

                         Standard orientation:
 ---------------------------------------------------------------------
 Center     Atomic      Atomic             Coordinates (Angstroms)
 Number     Number       Type             X           Y           Z
 ---------------------------------------------------------------------
      1         15           0        0.000000    0.000000    2.163495
      2         15           0        0.000000    0.000000   -2.163495
 ---------------------------------------------------------------------

 SCF Done:  E(UM062X) =  -682.264127401     A.U. after    9 cycles

 The electronic state is 1-SGG.
 Alpha  occ. eigenvalues --  -78.11779 -78.11779  -6.93461  -6.93461  -5.04757
 Alpha  occ. eigenvalues --   -5.04757  -5.04744  -5.04744  -5.04744  -5.04744
 Alpha  occ. eigenvalues --   -0.64113  -0.63296  -0.26069  -0.24745  -0.24745
 Alpha virt. eigenvalues --   -0.17903  -0.17903  -0.16409   0.02277   0.03365
 Alpha virt. eigenvalues --    0.04392   0.04392   0.06325   0.06325   0.06370
 Alpha virt. eigenvalues --    0.10183   0.28896   0.29957   0.29957   0.32659

  Beta  occ. eigenvalues --  -78.11779 -78.11779  -6.93461  -6.93461  -5.04757
  Beta  occ. eigenvalues --   -5.04757  -5.04744  -5.04744  -5.04744  -5.04744
  Beta  occ. eigenvalues --   -0.64113  -0.63296  -0.26069  -0.24745  -0.24745
  Beta virt. eigenvalues --   -0.17903  -0.17903  -0.16409   0.02277   0.03365
  Beta virt. eigenvalues --    0.04392   0.04392   0.06325   0.06325   0.06370
  Beta virt. eigenvalues --    0.10183   0.28896   0.29957   0.29957   0.32659

 Mulliken charges and spin densities:
               1          2
     1  P   -0.000000   0.000000
     2  P   -0.000000   0.000000
 Sum of Mulliken charges =  -0.00000   0.00000

 Dipole moment (field-independent basis, Debye):
    X=             -0.0000    Y=             -0.0000    Z=              0.0000  Tot=              0.0000
 Quadrupole moment (field-independent basis, Debye-Ang):
   XX=            -29.4016   YY=            -29.4016   ZZ=            -24.6027
   XY=              0.0000   XZ=             -0.0000   YZ=              0.0000

 Summary of Natural Population Analysis:

                                       Natural Population
                Natural  -----------------------------------------------
    Atom  No    Charge         Core      Valence    Rydberg      Total
 -----------------------------------------------------------------------
      P    1   -0.00000      5.00000     2.49950    0.00050     7.50000
      P    2   -0.00000      5.00000     2.49950    0.00050     7.50000
 =======================================================================
   * Total *   -0.00000     10.00000     4.99900    0.00100    15.00000

 Normal termination of Gaussian 16 at Mon Apr 21 21:17:02 2025.
