 Gaussian 16, Revision A.03,
 Gaussian 16:  ES64L-G16RevA.03 25-Dec-2016

 --------------------------------------------
 #p opt UM062X/6-311+G** nosymm int=superfine
 --------------------------------------------

 -------------------
 Title Card Required
 -------------------
 Symbolic Z-matrix:
 Charge =  0 Multiplicity = 1

 SCF Done:  E(UM062X) =  -115.470039954     A.U. after   16 cycles
 SCF Done:  E(UM062X) =  -115.486334780     A.U. after   11 cycles
 SCF Done:  E(UM062X) =  -115.495956121     A.U. after   13 cycles
 SCF Done:  E(UM062X) =  -115.496128803     A.U. after   10 cycles
 SCF Done:  E(UM062X) =  -115.496252184     A.U. after   11 cycles
 SCF Done:  E(UM062X) =  -115.496319063     A.U. after   12 cycles
 SCF Done:  E(UM062X) =  -115.496330001     A.U. after    9 cycles
 SCF Done:  E(UM062X) =  -115.496330814     A.U. after    9 cycles
 Optimization completed.
    -- Stationary point found.

                          Input orientation:
 ---------------------------------------------------------------------
 Center     Atomic      Atomic             Coordinates (Angstroms)
 Number     Number       Type             X           Y           Z
 ---------------------------------------------------------------------
      1          6           0       -1.582203    0.000000    0.000000
      2          8           0        1.582203    0.000000    0.000000
      3          1           0        1.618791   -0.964958    0.000471
      4          1           0       -1.660793   -0.532182    0.937904
      5          1           0       -1.509163    1.078681   -0.000704
      6          1           0       -1.660768   -0.533405   -0.937211
 ---------------------------------------------------------------------

 Alpha  occ. eigenvalues --  -19.58776 -10.66818  -1.01115  -0.84410  -0.56547
 Alpha  occ. eigenvalues --   -0.56291  -0.45642  -0.32593  -0.29088
 Alpha virt. eigenvalues --   -0.15411   0.00502   0.03892   0.04251   0.06600
 Alpha virt. eigenvalues --    0.13679   0.15134   0.15340   0.19982   0.22976
 Alpha virt. eigenvalues --    0.22995   0.24829   0.29440   0.39371   0.39668

  Beta  occ. eigenvalues --  -19.58776 -10.66818  -1.01115  -0.84410  -0.56547
  Beta  occ. eigenvalues --   -0.56291  -0.45642  -0.32593  -0.29088
  Beta virt. eigenvalues --   -0.15411   0.00502   0.03892   0.04251   0.06600
  Beta virt. eigenvalues --    0.13679   0.15134   0.15340   0.19982   0.22976
  Beta virt. eigenvalues --    0.22995   0.24829   0.29440   0.39371   0.39668

 Mulliken charges and spin densities:
               1          2
     1  C   -0.288731  -0.000000
     2  O   -0.569187   0.000000
     3  H    0.212328  -0.000000
     4  H    0.210039   0.000000
     5  H    0.225514   0.000000
     6  H    0.210037   0.000000
 Sum of Mulliken charges =  -0.00000   0.00000

 Dipole moment (field-independent basis, Debye):
    X=             -5.6001    Y=             -1.5588    Z=              0.0007  Tot=              5.8130
 Quadrupole moment (field-independent basis, Debye-Ang):
   XX=            -13.2468   YY=            -11.4608   ZZ=            -13.8815
   XY=             -2.6697   XZ=              0.0013   YZ=             -0.0012

 Normal termination of Gaussian 16 at Mon Apr 21 18:44:28 2025.
