 Gaussian 16, Revision A.03,
 Gaussian 16:  ES64L-G16RevA.03 25-Dec-2016

 --------------------------------------------
 #p opt UM062X/6-311+G** nosymm int=superfine
 --------------------------------------------

 -------------------
 Title Card Required
 -------------------
 Symbolic Z-matrix:
 Charge =  1 Multiplicity = 2

 SCF Done:  E(UM062X) =  -76.5846107793     A.U. after   10 cycles
 SCF Done:  E(UM062X) =  -76.5849470730     A.U. after    9 cycles
 Optimization completed.
    -- Stationary point found.

                          Input orientation:
 ---------------------------------------------------------------------
 Center     Atomic      Atomic             Coordinates (Angstroms)
 Number     Number       Type             X           Y           Z
 ---------------------------------------------------------------------
      1          6           0       -1.932160    0.000000    0.000000
      2          6           0        1.932160    0.000000    0.000000
      3          1           0       -3.049769   -0.000000   -0.000000
      4          1           0        3.049768    0.000000   -0.000000
 ---------------------------------------------------------------------

 Alpha  occ. eigenvalues --  -10.94396 -10.94396  -0.98083  -0.97957  -0.63903
 Alpha  occ. eigenvalues --   -0.62713  -0.47944
 Alpha virt. eigenvalues --   -0.40583  -0.33248  -0.32925  -0.12245  -0.11319
 Alpha virt. eigenvalues --   -0.07667  -0.07232  -0.05437  -0.04735  -0.04394
 Alpha virt. eigenvalues --   -0.01594  -0.00491   0.05819   0.25848   0.29585

  Beta  occ. eigenvalues --  -10.93984 -10.93984  -0.95688  -0.95635  -0.62566
  Beta  occ. eigenvalues --   -0.61300
  Beta virt. eigenvalues --   -0.31415  -0.31003  -0.29822  -0.29349  -0.12717
  Beta virt. eigenvalues --   -0.11245  -0.07045  -0.06258  -0.06089  -0.03990
  Beta virt. eigenvalues --   -0.03056  -0.02052   0.01068   0.07459   0.25007

 Mulliken charges and spin densities:
               1          2
     1  C    0.269886   0.516443
     2  C    0.269886   0.516443
     3  H    0.230114  -0.016443
     4  H    0.230114  -0.016443
 Sum of Mulliken charges =   1.00000   1.00000

 Dipole moment (field-independent basis, Debye):
    X=             -0.0000    Y=              0.0000    Z=              0.0000  Tot=              0.0000
 Quadrupole moment (field-independent basis, Debye-Ang):
   XX=             23.0644   YY=            -10.4280   ZZ=            -10.5478
   XY=             -0.0000   XZ=              0.0000   YZ=              1.0009

 Normal termination of Gaussian 16 at Tue Dec  3 11:33:31 2024.
