 Gaussian 16, Revision A.03,
 Gaussian 16:  ES64L-G16RevA.03 25-Dec-2016

 ---------------------------------------
 #p UM062X/6-311+G** force int=superfine
 ---------------------------------------

 -------------------
 Title Card Required
 -------------------
 Symbolic Z-matrix:
 Charge =  0 Multiplicity = 1

                         Standard orientation:
 ---------------------------------------------------------------------
 Center     Atomic      Atomic             Coordinates (Angstroms)
 Number     Number       Type             X           Y           Z
 ---------------------------------------------------------------------
      1          6           0       -0.095005   -0.269471    0.854527
      2          6           0        0.095006    0.269471   -0.854528
      3          1           0        0.336539   -0.602935   -1.456366
      4          1           0       -0.899665   -0.999545    0.888437
      5          1           0        0.899664    0.999546   -0.888438
      6          1           0       -0.845153    0.712663   -1.172833
      7          1           0       -0.336538    0.602935    1.456367
      8          1           0        0.845152   -0.712665    1.172836
 ---------------------------------------------------------------------

 SCF Done:  E(UM062X) =  -79.7733599863     A.U. after    8 cycles

 The electronic state is 1-A.
 Alpha  occ. eigenvalues --  -10.53649 -10.53634  -0.80899  -0.71526  -0.48887
 Alpha  occ. eigenvalues --   -0.48887  -0.42820  -0.42820  -0.37020
 Alpha virt. eigenvalues --    0.02253   0.03629   0.05628   0.05628   0.08618
 Alpha virt. eigenvalues --    0.08618   0.09222   0.13439   0.18038   0.18369
 Alpha virt. eigenvalues --    0.18369   0.21766   0.21766   0.24236   0.27505

  Beta  occ. eigenvalues --  -10.53649 -10.53634  -0.80899  -0.71526  -0.48887
  Beta  occ. eigenvalues --   -0.48887  -0.42820  -0.42820  -0.37020
  Beta virt. eigenvalues --    0.02253   0.03629   0.05628   0.05628   0.08618
  Beta virt. eigenvalues --    0.08618   0.09222   0.13439   0.18038   0.18369
  Beta virt. eigenvalues --    0.18369   0.21766   0.21766   0.24236   0.27505

 Mulliken charges and spin densities:
               1          2
     1  C   -0.488410  -0.000000
     2  C   -0.488410   0.000000
     3  H    0.162803  -0.000000
     4  H    0.162804   0.000000
     5  H    0.162804  -0.000000
     6  H    0.162803  -0.000000
     7  H    0.162803   0.000000
     8  H    0.162803   0.000000
 Sum of Mulliken charges =  -0.00000  -0.00000

 Dipole moment (field-independent basis, Debye):
    X=             -0.0000    Y=              0.0000    Z=             -0.0000  Tot=              0.0000
 Quadrupole moment (field-independent basis, Debye-Ang):
   XX=            -14.9373   YY=            -14.9902   ZZ=            -15.5376
   XY=             -0.0213   XZ=              0.0675   YZ=              0.1917

 Normal termination of Gaussian 16 at Tue Nov 19 12:47:32 2024.
