 Gaussian 16, Revision A.03,
 Gaussian 16:  ES64L-G16RevA.03 25-Dec-2016

 --------------------------------------------
 #p opt UM062X/6-311+G** nosymm int=superfine
 --------------------------------------------

 -------------------
 Title Card Required
 -------------------
 Symbolic Z-matrix:
 Charge =  0 Multiplicity = 1

 SCF Done:  E(UM062X) =  -76.8591569776     A.U. after   10 cycles
 SCF Done:  E(UM062X) =  -76.9761532525     A.U. after    9 cycles
 SCF Done:  E(UM062X) =  -77.0070163549     A.U. after   10 cycles
 SCF Done:  E(UM062X) =  -77.0127297733     A.U. after    9 cycles
 SCF Done:  E(UM062X) =  -77.0127310110     A.U. after    7 cycles
 Optimization completed.
    -- Stationary point found.

                          Input orientation:
 ---------------------------------------------------------------------
 Center     Atomic      Atomic             Coordinates (Angstroms)
 Number     Number       Type             X           Y           Z
 ---------------------------------------------------------------------
      1          6           0       -0.454872    0.000000    0.000000
      2          6           0        0.454872    0.000000    0.000000
      3          1           0       -1.513411   -0.000000   -0.000000
      4          1           0        1.513411   -0.000000    0.000000
 ---------------------------------------------------------------------

 Alpha  occ. eigenvalues --  -10.48251 -10.45312  -0.89540  -0.60224  -0.56018
 Alpha  occ. eigenvalues --   -0.42445  -0.42445
 Alpha virt. eigenvalues --    0.02893   0.03537   0.07017   0.07017   0.07814
 Alpha virt. eigenvalues --    0.07814   0.09622   0.16959   0.22626   0.22654
 Alpha virt. eigenvalues --    0.22654   0.25124   0.44019   0.47570   0.52917

  Beta  occ. eigenvalues --  -10.48251 -10.45312  -0.89540  -0.60224  -0.56018
  Beta  occ. eigenvalues --   -0.42445  -0.42445
  Beta virt. eigenvalues --    0.02893   0.03537   0.07017   0.07017   0.07814
  Beta virt. eigenvalues --    0.07814   0.09622   0.16959   0.22626   0.22654
  Beta virt. eigenvalues --    0.22654   0.25124   0.44019   0.47570   0.52917

 Mulliken charges and spin densities:
               1          2
     1  C   -0.114393  -0.000000
     2  C   -0.114393   0.000000
     3  H    0.114393  -0.000000
     4  H    0.114393   0.000000
 Sum of Mulliken charges =  -0.00000   0.00000

 Dipole moment (field-independent basis, Debye):
    X=             -0.0000    Y=             -0.0000    Z=              0.0000  Tot=              0.0000
 Quadrupole moment (field-independent basis, Debye-Ang):
   XX=             -7.7242   YY=            -12.2449   ZZ=            -12.2449
   XY=             -0.0000   XZ=              0.0000   YZ=             -0.0000

 Normal termination of Gaussian 16 at Tue Dec  3 19:57:03 2024.
