 Gaussian 16, Revision A.03,
 Gaussian 16:  ES64L-G16RevA.03 25-Dec-2016

 --------------------------------------------
 #p opt UM062X/6-311+G** nosymm int=superfine
 --------------------------------------------

 -------------------
 Title Card Required
 -------------------
 Symbolic Z-matrix:
 Charge =  0 Multiplicity = 1

 SCF Done:  E(UM062X) =  -92.9215652959     A.U. after   13 cycles
 SCF Done:  E(UM062X) =  -92.9230859391     A.U. after   11 cycles
 SCF Done:  E(UM062X) =  -92.9230919415     A.U. after    9 cycles
 Optimization completed.
    -- Stationary point found.

                          Input orientation:
 ---------------------------------------------------------------------
 Center     Atomic      Atomic             Coordinates (Angstroms)
 Number     Number       Type             X           Y           Z
 ---------------------------------------------------------------------
      1          6           0       -1.147395    0.000000    0.000000
      2          7           0        1.147395    0.000000    0.000000
      3          1           0       -2.265433   -0.000000    0.000000
 ---------------------------------------------------------------------

 Alpha  occ. eigenvalues --  -14.87322 -10.74285  -0.81616  -0.77213  -0.43967
 Alpha  occ. eigenvalues --   -0.30432  -0.30432
 Alpha virt. eigenvalues --   -0.14628  -0.14628  -0.08989   0.01187   0.06722
 Alpha virt. eigenvalues --    0.07296   0.07296   0.13233   0.16921   0.16921
 Alpha virt. eigenvalues --    0.18927   0.26447   0.45264   0.53699   0.53699

  Beta  occ. eigenvalues --  -14.87322 -10.74285  -0.81616  -0.77213  -0.43967
  Beta  occ. eigenvalues --   -0.30432  -0.30432
  Beta virt. eigenvalues --   -0.14628  -0.14628  -0.08989   0.01187   0.06722
  Beta virt. eigenvalues --    0.07296   0.07296   0.13233   0.16921   0.16921
  Beta virt. eigenvalues --    0.18927   0.26447   0.45264   0.53699   0.53699

 Mulliken charges and spin densities:
               1          2
     1  C   -0.118027  -0.000000
     2  N   -0.088129   0.000000
     3  H    0.206156   0.000000
 Sum of Mulliken charges =   0.00000   0.00000

 Dipole moment (field-independent basis, Debye):
    X=             -3.6868    Y=              0.0000    Z=             -0.0000  Tot=              3.6868
 Quadrupole moment (field-independent basis, Debye-Ang):
   XX=             -6.2577   YY=            -14.2181   ZZ=            -14.2181
   XY=              0.0000   XZ=             -0.0000   YZ=             -0.0000

 Normal termination of Gaussian 16 at Mon Apr 21 18:38:59 2025.
