 Gaussian 16, Revision A.03,
 Gaussian 16:  ES64L-G16RevA.03 25-Dec-2016

 --------------------------------------------
 #p opt UM062X/6-311+G** nosymm int=superfine
 --------------------------------------------

 -------------------
 Title Card Required
 -------------------
 Symbolic Z-matrix:
 Charge =  0 Multiplicity = 1

 SCF Done:  E(UM062X) =  -79.5710984840     A.U. after   10 cycles
 SCF Done:  E(UM062X) =  -79.5749107532     A.U. after    9 cycles
 SCF Done:  E(UM062X) =  -79.5764885302     A.U. after   10 cycles
 SCF Done:  E(UM062X) =  -79.5764995406     A.U. after   10 cycles
 Optimization completed.
    -- Stationary point found.

                          Input orientation:
 ---------------------------------------------------------------------
 Center     Atomic      Atomic             Coordinates (Angstroms)
 Number     Number       Type             X           Y           Z
 ---------------------------------------------------------------------
      1          6           0       -1.946675    0.000000    0.000000
      2          6           0        1.946800    0.000000    0.000000
      3          1           0        2.005503   -0.933330    0.540070
      4          1           0       -2.005363   -0.934383   -0.538247
      5          1           0        2.005491    0.934383    0.538247
      6          1           0        2.005502   -0.001052   -1.078323
      7          1           0       -2.005378    0.933330   -0.540069
      8          1           0       -2.005381    0.001051    1.078323
 ---------------------------------------------------------------------

 Alpha  occ. eigenvalues --  -10.57248 -10.57247  -0.77113  -0.76776  -0.49259
 Alpha  occ. eigenvalues --   -0.49259  -0.49119  -0.49119  -0.21758
 Alpha virt. eigenvalues --   -0.11265   0.03109   0.05001   0.05299   0.05299
 Alpha virt. eigenvalues --    0.07416   0.07416   0.11384   0.12597   0.18643
 Alpha virt. eigenvalues --    0.18643   0.20222   0.20222   0.22151   0.25044

  Beta  occ. eigenvalues --  -10.57248 -10.57247  -0.77113  -0.76776  -0.49259
  Beta  occ. eigenvalues --   -0.49259  -0.49119  -0.49119  -0.21758
  Beta virt. eigenvalues --   -0.11265   0.03109   0.05001   0.05299   0.05299
  Beta virt. eigenvalues --    0.07416   0.07416   0.11384   0.12597   0.18643
  Beta virt. eigenvalues --    0.18643   0.20222   0.20222   0.22151   0.25044

 Mulliken charges and spin densities:
               1          2
     1  C   -0.524889  -0.000000
     2  C   -0.524889   0.000000
     3  H    0.174963  -0.000000
     4  H    0.174963   0.000000
     5  H    0.174963  -0.000000
     6  H    0.174963  -0.000000
     7  H    0.174963   0.000000
     8  H    0.174963   0.000000
 Sum of Mulliken charges =  -0.00000   0.00000

 Dipole moment (field-independent basis, Debye):
    X=             -0.0000    Y=             -0.0000    Z=             -0.0000  Tot=              0.0000
 Quadrupole moment (field-independent basis, Debye-Ang):
   XX=            -15.7318   YY=            -14.8670   ZZ=            -14.8671
   XY=             -0.0000   XZ=             -0.0000   YZ=             -0.0000

 Normal termination of Gaussian 16 at Tue Dec  3 10:07:29 2024.
