 Gaussian 16, Revision A.03,
 Gaussian 16:  ES64L-G16RevA.03 25-Dec-2016

 --------------------------------------------
 #p opt UM062X/6-311+G** nosymm int=superfine
 --------------------------------------------

 -------------------
 Title Card Required
 -------------------
 Symbolic Z-matrix:
 Charge =  0 Multiplicity = 1

 SCF Done:  E(UM062X) =  -55.1324971679     A.U. after   10 cycles
 SCF Done:  E(UM062X) =  -55.1339830393     A.U. after    9 cycles
 SCF Done:  E(UM062X) =  -55.1339874421     A.U. after    7 cycles
 Optimization completed.
    -- Stationary point found.

                          Input orientation:
 ---------------------------------------------------------------------
 Center     Atomic      Atomic             Coordinates (Angstroms)
 Number     Number       Type             X           Y           Z
 ---------------------------------------------------------------------
      1          7           0        0.595324   -0.000002    0.000000
      2          1           0        1.632961    0.000088    0.000000
 ---------------------------------------------------------------------

 Alpha  occ. eigenvalues --  -14.83837  -0.90334  -0.47020  -0.34533
 Alpha virt. eigenvalues --   -0.13353   0.05699   0.12292   0.12510   0.13227
 Alpha virt. eigenvalues --    0.17876   0.54679   0.76094   0.79885   0.81656
 Alpha virt. eigenvalues --    0.95913   1.28988   1.30702   1.91033   1.98405

  Beta  occ. eigenvalues --  -14.83837  -0.90334  -0.47020  -0.34533
  Beta virt. eigenvalues --   -0.13353   0.05699   0.12292   0.12510   0.13227
  Beta virt. eigenvalues --    0.17876   0.54679   0.76094   0.79885   0.81656
  Beta virt. eigenvalues --    0.95913   1.28988   1.30702   1.91033   1.98405

 Mulliken charges and spin densities:
               1          2
     1  N   -0.207146  -0.000000
     2  H    0.207146   0.000000
 Sum of Mulliken charges =  -0.00000  -0.00000

 Dipole moment (field-independent basis, Debye):
    X=              1.7366    Y=              0.0002    Z=              0.0000  Tot=              1.7366
 Quadrupole moment (field-independent basis, Debye-Ang):
   XX=             -3.5192   YY=             -8.3339   ZZ=             -5.0692
   XY=              0.0003   XZ=              0.0000   YZ=             -0.0019

 Normal termination of Gaussian 16 at Wed Apr 16 08:29:44 2025.
