 Gaussian 16, Revision A.03,
 Gaussian 16:  ES64L-G16RevA.03 25-Dec-2016

 --------------------------------------------
 #p opt UM062X/6-311+G** nosymm int=superfine
 --------------------------------------------

 -------------------
 Title Card Required
 -------------------
 Symbolic Z-matrix:
 Charge =  1 Multiplicity = 2

 SCF Done:  E(UM062X) =  -579.680834992     A.U. after   15 cycles
 SCF Done:  E(UM062X) =  -579.682820949     A.U. after   13 cycles
 SCF Done:  E(UM062X) =  -579.686477784     A.U. after   15 cycles
 SCF Done:  E(UM062X) =  -579.687363380     A.U. after   14 cycles
 SCF Done:  E(UM062X) =  -579.687681475     A.U. after   13 cycles
 SCF Done:  E(UM062X) =  -579.687715873     A.U. after   11 cycles
 SCF Done:  E(UM062X) =  -579.687728600     A.U. after   12 cycles
 SCF Done:  E(UM062X) =  -579.687742818     A.U. after   12 cycles
 SCF Done:  E(UM062X) =  -579.687755243     A.U. after   12 cycles
 SCF Done:  E(UM062X) =  -579.687761609     A.U. after   10 cycles
 SCF Done:  E(UM062X) =  -579.687763063     A.U. after   12 cycles
 SCF Done:  E(UM062X) =  -579.687763070     A.U. after    8 cycles
 Optimization completed.
    -- Stationary point found.

                          Input orientation:
 ---------------------------------------------------------------------
 Center     Atomic      Atomic             Coordinates (Angstroms)
 Number     Number       Type             X           Y           Z
 ---------------------------------------------------------------------
      1         14           0       -2.002975    0.000000    0.000000
      2         14           0        2.002975    0.000000    0.000000
      3          1           0       -2.098626   -1.504750    0.000000
      4          1           0        2.098611    1.504752    0.000000
 ---------------------------------------------------------------------

 Alpha  occ. eigenvalues --  -67.26757 -67.26757  -5.80923  -5.80922  -4.12020
 Alpha  occ. eigenvalues --   -4.12020  -4.11941  -4.11941  -4.11288  -4.11288
 Alpha  occ. eigenvalues --   -0.76086  -0.75183  -0.52597  -0.52388  -0.41645
 Alpha virt. eigenvalues --   -0.28460  -0.28093  -0.26784  -0.11078  -0.09726
 Alpha virt. eigenvalues --   -0.08690  -0.08424  -0.07864  -0.06858  -0.05636
 Alpha virt. eigenvalues --   -0.05600  -0.05100  -0.02753   0.13185   0.13665

  Beta  occ. eigenvalues --  -67.26504 -67.26504  -5.80850  -5.80847  -4.11879
  Beta  occ. eigenvalues --   -4.11879  -4.11350  -4.11349  -4.11174  -4.11174
  Beta  occ. eigenvalues --   -0.74145  -0.73559  -0.51990  -0.51589
  Beta virt. eigenvalues --   -0.28150  -0.27824  -0.26337  -0.23130  -0.13470
  Beta virt. eigenvalues --   -0.10480  -0.09014  -0.08653  -0.08377  -0.06717
  Beta virt. eigenvalues --   -0.05549  -0.05384  -0.05289  -0.02760   0.12144

 Mulliken charges and spin densities:
               1          2
     1  Si   0.579900   0.510187
     2  Si   0.579902   0.510186
     3  H   -0.079901  -0.010186
     4  H   -0.079901  -0.010186
 Sum of Mulliken charges =   1.00000   1.00000

 Dipole moment (field-independent basis, Debye):
    X=             -0.0000    Y=              0.0000    Z=              0.0000  Tot=              0.0000
 Quadrupole moment (field-independent basis, Debye-Ang):
   XX=             -0.0136   YY=            -27.6378   ZZ=            -19.8902
   XY=              2.1882   XZ=             -0.0000   YZ=              0.0000

 Normal termination of Gaussian 16 at Mon Apr 21 20:42:55 2025.
