 Gaussian 16, Revision A.03,
 Gaussian 16:  ES64L-G16RevA.03 25-Dec-2016

 --------------------------------------------
 #p opt UM062X/6-311+G** nosymm int=superfine
 --------------------------------------------

 -------------------
 Title Card Required
 -------------------
 Symbolic Z-matrix:
 Charge =  0 Multiplicity = 1

 SCF Done:  E(UM062X) =  -78.5525380784     A.U. after    8 cycles
 SCF Done:  E(UM062X) =  -78.5550024394     A.U. after    8 cycles
 SCF Done:  E(UM062X) =  -78.5551946192     A.U. after    7 cycles
 SCF Done:  E(UM062X) =  -78.5551996035     A.U. after    6 cycles
 Optimization completed.
    -- Stationary point found.

                          Input orientation:
 ---------------------------------------------------------------------
 Center     Atomic      Atomic             Coordinates (Angstroms)
 Number     Number       Type             X           Y           Z
 ---------------------------------------------------------------------
      1          6           0       -0.709273    0.000000    0.000000
      2          6           0        0.709273    0.000000    0.000000
      3          1           0       -1.260926   -0.931333    0.000000
      4          1           0       -1.260986    0.931291    0.000000
      5          1           0        1.260926    0.931333    0.000000
      6          1           0        1.260986   -0.931291    0.000000
 ---------------------------------------------------------------------

 Alpha  occ. eigenvalues --  -10.55278 -10.55207  -0.84178  -0.67154  -0.53829
 Alpha  occ. eigenvalues --   -0.47245  -0.43335  -0.32036
 Alpha virt. eigenvalues --    0.01244   0.03395   0.03987   0.05214   0.07953
 Alpha virt. eigenvalues --    0.08050   0.09717   0.12822   0.15992   0.17184
 Alpha virt. eigenvalues --    0.20313   0.22564   0.30748   0.33341   0.43184

  Beta  occ. eigenvalues --  -10.55278 -10.55207  -0.84178  -0.67154  -0.53829
  Beta  occ. eigenvalues --   -0.47245  -0.43335  -0.32036
  Beta virt. eigenvalues --    0.01244   0.03395   0.03987   0.05214   0.07953
  Beta virt. eigenvalues --    0.08050   0.09717   0.12822   0.15992   0.17184
  Beta virt. eigenvalues --    0.20313   0.22564   0.30748   0.33341   0.43184

 Mulliken charges and spin densities:
               1          2
     1  C   -0.306838  -0.000000
     2  C   -0.306838   0.000000
     3  H    0.153417  -0.000000
     4  H    0.153422  -0.000000
     5  H    0.153417  -0.000000
     6  H    0.153422  -0.000000
 Sum of Mulliken charges =  -0.00000  -0.00000

 Dipole moment (field-independent basis, Debye):
    X=              0.0000    Y=             -0.0000    Z=              0.0000  Tot=              0.0000
 Quadrupole moment (field-independent basis, Debye-Ang):
   XX=            -12.1628   YY=            -12.2918   ZZ=            -16.2873
   XY=             -0.0001   XZ=              0.0000   YZ=              0.0000

 Normal termination of Gaussian 16 at Tue Nov 19 10:39:02 2024.
