 Gaussian 16, Revision A.03,
 Gaussian 16:  ES64L-G16RevA.03 25-Dec-2016

 --------------------------------------------
 #p opt UM062X/6-311+G** nosymm int=superfine
 --------------------------------------------

 -------------------
 Title Card Required
 -------------------
 Symbolic Z-matrix:
 Charge =  0 Multiplicity = 1

 SCF Done:  E(UM062X) =  -114.082941309     A.U. after   18 cycles
 SCF Done:  E(UM062X) =  -114.085972856     A.U. after   10 cycles
 SCF Done:  E(UM062X) =  -114.086902798     A.U. after    9 cycles
 SCF Done:  E(UM062X) =  -114.086906149     A.U. after    9 cycles
 Optimization completed.
    -- Stationary point found.

                          Input orientation:
 ---------------------------------------------------------------------
 Center     Atomic      Atomic             Coordinates (Angstroms)
 Number     Number       Type             X           Y           Z
 ---------------------------------------------------------------------
      1          6           0       -2.023311    0.000000    0.000000
      2          8           0        2.023311    0.000000    0.000000
      3          1           0       -2.715540   -0.864706    0.000001
      4          1           0       -2.715545    0.864702    0.000001
 ---------------------------------------------------------------------

 Alpha  occ. eigenvalues --  -19.75648 -10.61818  -1.05337  -0.76522  -0.48573
 Alpha  occ. eigenvalues --   -0.44238  -0.44236  -0.32287
 Alpha virt. eigenvalues --   -0.18216  -0.09024   0.01896   0.06121   0.08047
 Alpha virt. eigenvalues --    0.08305   0.15784   0.16017   0.18831   0.18927
 Alpha virt. eigenvalues --    0.20592   0.24237   0.43984   0.47975   0.58188

  Beta  occ. eigenvalues --  -19.75648 -10.61818  -1.05337  -0.76522  -0.48573
  Beta  occ. eigenvalues --   -0.44238  -0.44236  -0.32287
  Beta virt. eigenvalues --   -0.18216  -0.09024   0.01896   0.06121   0.08047
  Beta virt. eigenvalues --    0.08305   0.15784   0.16017   0.18831   0.18927
  Beta virt. eigenvalues --    0.20592   0.24237   0.43984   0.47975   0.58188

 Mulliken charges and spin densities:
               1          2
     1  C   -0.265052   0.000000
     2  O   -0.005734   0.000000
     3  H    0.135393   0.000000
     4  H    0.135393  -0.000000
 Sum of Mulliken charges =  -0.00000   0.00000

 Dipole moment (field-independent basis, Debye):
    X=             -2.3763    Y=             -0.0000    Z=              0.0000  Tot=              2.3763
 Quadrupole moment (field-independent basis, Debye-Ang):
   XX=             -4.3579   YY=            -13.1893   ZZ=            -12.4792
   XY=              0.0000   XZ=             -0.0000   YZ=             -0.0000

 Normal termination of Gaussian 16 at Mon Apr 21 19:01:13 2025.
