 Gaussian 16, Revision A.03,
 Gaussian 16:  ES64L-G16RevA.03 25-Dec-2016

 --------------------------------------------
 #p opt UM062X/6-311+G** nosymm int=superfine
 --------------------------------------------

 -------------------
 Title Card Required
 -------------------
 Symbolic Z-matrix:
 Charge =  0 Multiplicity = 1

 SCF Done:  E(UM062X) =  -75.8355554866     A.U. after   12 cycles
 SCF Done:  E(UM062X) =  -75.9494575674     A.U. after    9 cycles
 SCF Done:  E(UM062X) =  -76.0962836643     A.U. after   10 cycles
 SCF Done:  E(UM062X) =  -76.1730032964     A.U. after   10 cycles
 SCF Done:  E(UM062X) =  -76.1736017136     A.U. after    9 cycles
 SCF Done:  E(UM062X) =  -76.1737366067     A.U. after    8 cycles
 Optimization completed.
    -- Stationary point found.

                          Input orientation:
 ---------------------------------------------------------------------
 Center     Atomic      Atomic             Coordinates (Angstroms)
 Number     Number       Type             X           Y           Z
 ---------------------------------------------------------------------
      1          6           0       -0.324807    0.000000    0.000000
      2          6           0        0.324807    0.000000    0.000000
      3          1           0       -1.144913   -0.793219   -0.000000
      4          1           0       -1.144881    0.793273   -0.000000
      5          1           0        1.144913    0.793219    0.000000
      6          1           0        1.144881   -0.793273    0.000000
 ---------------------------------------------------------------------

 Alpha  occ. eigenvalues --  -10.79195 -10.50331  -0.88333  -0.68916  -0.61119
 Alpha  occ. eigenvalues --   -0.60108  -0.47729  -0.24794
 Alpha virt. eigenvalues --    0.01465   0.02531   0.03987   0.05111   0.08172
 Alpha virt. eigenvalues --    0.09793   0.09803   0.12662   0.15802   0.18801
 Alpha virt. eigenvalues --    0.24629   0.27617   0.37912   0.41996   0.44675

  Beta  occ. eigenvalues --  -10.79195 -10.50331  -0.88333  -0.68916  -0.61119
  Beta  occ. eigenvalues --   -0.60108  -0.47729  -0.24794
  Beta virt. eigenvalues --    0.01465   0.02531   0.03987   0.05111   0.08172
  Beta virt. eigenvalues --    0.09793   0.09803   0.12662   0.15802   0.18801
  Beta virt. eigenvalues --    0.24629   0.27617   0.37912   0.41996   0.44675

 Mulliken charges and spin densities:
               1          2
     1  C   -0.249670  -0.000000
     2  C   -0.249670   0.000000
     3  H    0.124841  -0.000000
     4  H    0.124829   0.000000
     5  H    0.124841   0.000000
     6  H    0.124829  -0.000000
 Sum of Mulliken charges =  -0.00000   0.00000

 Dipole moment (field-independent basis, Debye):
    X=              0.0000    Y=              0.0000    Z=              0.0000  Tot=              0.0000
 Quadrupole moment (field-independent basis, Debye-Ang):
   XX=            -13.0096   YY=            -13.0602   ZZ=            -12.6656
   XY=              0.0002   XZ=              0.0000   YZ=              0.0000

 Normal termination of Gaussian 16 at Tue Nov 19 10:07:29 2024.
