 Gaussian 16, Revision A.03,
 Gaussian 16:  ES64L-G16RevA.03 25-Dec-2016

 --------------------------------------------
 #p opt UM062X/6-311+G** nosymm int=superfine
 --------------------------------------------

 -------------------
 Title Card Required
 -------------------
 Symbolic Z-matrix:
 Charge =  0 Multiplicity = 1

 SCF Done:  E(UM062X) =  -110.569938679     A.U. after   10 cycles
 SCF Done:  E(UM062X) =  -110.572725133     A.U. after    9 cycles
 SCF Done:  E(UM062X) =  -110.573610615     A.U. after    9 cycles
 Optimization completed.
    -- Stationary point found.

                          Input orientation:
 ---------------------------------------------------------------------
 Center     Atomic      Atomic             Coordinates (Angstroms)
 Number     Number       Type             X           Y           Z
 ---------------------------------------------------------------------
      1          7           0       -0.740428    0.000000    0.000000
      2          7           0        0.740428    0.000000    0.000000
      3          1           0       -0.920983   -1.012665   -0.000000
      4          1           0        0.920983    1.012665   -0.000000
 ---------------------------------------------------------------------

 Alpha  occ. eigenvalues --  -14.84371 -14.84337  -1.05950  -0.82536  -0.52353
 Alpha  occ. eigenvalues --   -0.51791  -0.41134  -0.36620
 Alpha virt. eigenvalues --   -0.07724   0.06036   0.06281   0.09294   0.11592
 Alpha virt. eigenvalues --    0.13152   0.15604   0.16929   0.18618   0.21998
 Alpha virt. eigenvalues --    0.23056   0.26601   0.55393   0.58206   0.73981

  Beta  occ. eigenvalues --  -14.84371 -14.84337  -1.05950  -0.82536  -0.52353
  Beta  occ. eigenvalues --   -0.51791  -0.41134  -0.36620
  Beta virt. eigenvalues --   -0.07724   0.06036   0.06281   0.09294   0.11592
  Beta virt. eigenvalues --    0.13152   0.15604   0.16929   0.18618   0.21998
  Beta virt. eigenvalues --    0.23056   0.26601   0.55393   0.58206   0.73981

 Mulliken charges and spin densities:
               1          2
     1  N   -0.247722  -0.000000
     2  N   -0.247722   0.000000
     3  H    0.247722   0.000000
     4  H    0.247722  -0.000000
 Sum of Mulliken charges =  -0.00000  -0.00000

 Dipole moment (field-independent basis, Debye):
    X=             -0.0000    Y=              0.0000    Z=             -0.0000  Tot=              0.0000
 Quadrupole moment (field-independent basis, Debye-Ang):
   XX=            -13.6201   YY=            -10.5305   ZZ=            -13.0052
   XY=              3.8399   XZ=             -0.0000   YZ=              0.0000

 Normal termination of Gaussian 16 at Thu May 15 15:32:41 2025.
