 Gaussian 16, Revision A.03,
 Gaussian 16:  ES64L-G16RevA.03 25-Dec-2016

 --------------------------------------------
 #p opt UM062X/6-311+G** nosymm int=superfine
 --------------------------------------------

 -------------------
 Title Card Required
 -------------------
 Symbolic Z-matrix:
 Charge =  0 Multiplicity = 1

 SCF Done:  E(UM062X) =  -683.618226349     A.U. after   11 cycles
 SCF Done:  E(UM062X) =  -683.618812852     A.U. after   10 cycles
 SCF Done:  E(UM062X) =  -683.619355366     A.U. after   12 cycles
 SCF Done:  E(UM062X) =  -683.619358062     A.U. after    8 cycles
 Optimization completed.
    -- Stationary point found.

                          Input orientation:
 ---------------------------------------------------------------------
 Center     Atomic      Atomic             Coordinates (Angstroms)
 Number     Number       Type             X           Y           Z
 ---------------------------------------------------------------------
      1         15           0       -1.934490    0.000000    0.000000
      2         15           0        1.934490    0.000000    0.000000
      3          1           0       -1.823198   -1.419042    0.000000
      4          1           0        1.823198    1.419042    0.000000
 ---------------------------------------------------------------------

 Alpha  occ. eigenvalues --  -78.08534 -78.08534  -6.90534  -6.90533  -5.01945
 Alpha  occ. eigenvalues --   -5.01945  -5.01932  -5.01932  -5.01744  -5.01744
 Alpha  occ. eigenvalues --   -0.68836  -0.67867  -0.40600  -0.40357  -0.26657
 Alpha  occ. eigenvalues --   -0.24513
 Alpha virt. eigenvalues --   -0.16510  -0.14222   0.01976   0.03051   0.03719
 Alpha virt. eigenvalues --    0.04584   0.05502   0.05860   0.06486   0.07822
 Alpha virt. eigenvalues --    0.08616   0.11797   0.27958   0.30190   0.30785

  Beta  occ. eigenvalues --  -78.08534 -78.08534  -6.90534  -6.90533  -5.01945
  Beta  occ. eigenvalues --   -5.01945  -5.01932  -5.01932  -5.01744  -5.01744
  Beta  occ. eigenvalues --   -0.68836  -0.67867  -0.40600  -0.40357  -0.26657
  Beta  occ. eigenvalues --   -0.24513
  Beta virt. eigenvalues --   -0.16510  -0.14222   0.01976   0.03051   0.03719
  Beta virt. eigenvalues --    0.04584   0.05502   0.05860   0.06486   0.07822
  Beta virt. eigenvalues --    0.08616   0.11797   0.27958   0.30190   0.30785

 Mulliken charges and spin densities:
               1          2
     1  P    0.007520   0.000011
     2  P    0.007517  -0.000011
     3  H   -0.007518  -0.000000
     4  H   -0.007518   0.000000
 Sum of Mulliken charges =  -0.00000   0.00000

 Dipole moment (field-independent basis, Debye):
    X=             -0.0000    Y=             -0.0000    Z=              0.0000  Tot=              0.0000
 Quadrupole moment (field-independent basis, Debye-Ang):
   XX=            -26.7258   YY=            -28.4619   ZZ=            -30.8548
   XY=              3.1186   XZ=             -0.0000   YZ=             -0.0000

 Normal termination of Gaussian 16 at Mon Apr 21 21:12:36 2025.
