 Gaussian 16, Revision A.03,
 Gaussian 16:  ES64L-G16RevA.03 25-Dec-2016

 ---------------------------------------------------
 #p UM062X/6-311+G** force int=superfine pop=saveNBO
 ---------------------------------------------------

 -------------------
 Title Card Required
 -------------------
 Symbolic Z-matrix:
 Charge =  0 Multiplicity = 1

                         Standard orientation:
 ---------------------------------------------------------------------
 Center     Atomic      Atomic             Coordinates (Angstroms)
 Number     Number       Type             X           Y           Z
 ---------------------------------------------------------------------
      1         15           0        0.000000    0.000000    1.038495
      2         15           0        0.000000    0.000000   -1.038495
 ---------------------------------------------------------------------

 SCF Done:  E(UM062X) =  -682.639170623     A.U. after    9 cycles

 The electronic state is 1-SGG.
 Alpha  occ. eigenvalues --  -78.07046 -78.07046  -6.89158  -6.89139  -5.00577
 Alpha  occ. eigenvalues --   -5.00577  -5.00570  -5.00570  -5.00413  -5.00347
 Alpha  occ. eigenvalues --   -0.73871  -0.54832  -0.34660  -0.31800  -0.31800
 Alpha virt. eigenvalues --   -0.08748  -0.08748   0.01702   0.02661   0.04193
 Alpha virt. eigenvalues --    0.04193   0.05874   0.07049   0.07049   0.08341
 Alpha virt. eigenvalues --    0.13080   0.26191   0.31107   0.31107   0.33257

  Beta  occ. eigenvalues --  -78.07046 -78.07046  -6.89158  -6.89139  -5.00577
  Beta  occ. eigenvalues --   -5.00577  -5.00570  -5.00570  -5.00413  -5.00347
  Beta  occ. eigenvalues --   -0.73871  -0.54832  -0.34660  -0.31800  -0.31800
  Beta virt. eigenvalues --   -0.08748  -0.08748   0.01702   0.02661   0.04193
  Beta virt. eigenvalues --    0.04193   0.05874   0.07049   0.07049   0.08341
  Beta virt. eigenvalues --    0.13080   0.26191   0.31107   0.31107   0.33257

 Mulliken charges and spin densities:
               1          2
     1  P    0.000000  -0.000000
     2  P    0.000000  -0.000000
 Sum of Mulliken charges =   0.00000  -0.00000

 Dipole moment (field-independent basis, Debye):
    X=              0.0000    Y=              0.0000    Z=             -0.0000  Tot=              0.0000
 Quadrupole moment (field-independent basis, Debye-Ang):
   XX=            -27.0566   YY=            -27.0566   ZZ=            -26.2807
   XY=              0.0000   XZ=             -0.0000   YZ=             -0.0000

 Summary of Natural Population Analysis:

                                       Natural Population
                Natural  -----------------------------------------------
    Atom  No    Charge         Core      Valence    Rydberg      Total
 -----------------------------------------------------------------------
      P    1   -0.00000      4.99975     2.48427    0.01598     7.50000
      P    2    0.00000      4.99975     2.48427    0.01598     7.50000
 =======================================================================
   * Total *    0.00000      9.99950     4.96855    0.03196    15.00000

 Normal termination of Gaussian 16 at Mon Apr 21 21:19:48 2025.
