 Gaussian 16, Revision A.03,
 Gaussian 16:  ES64L-G16RevA.03 25-Dec-2016

 --------------------------------------------
 #p opt UM062X/6-311+G** nosymm int=superfine
 --------------------------------------------

 -------------------
 Title Card Required
 -------------------
 Symbolic Z-matrix:
 Charge =  0 Multiplicity = 1

 SCF Done:  E(UM062X) =  -76.8593695964     A.U. after   15 cycles
 SCF Done:  E(UM062X) =  -76.8597692680     A.U. after   15 cycles
 SCF Done:  E(UM062X) =  -76.8607625216     A.U. after   22 cycles
 SCF Done:  E(UM062X) =  -76.8613167213     A.U. after   16 cycles
 SCF Done:  E(UM062X) =  -76.8613860167     A.U. after   15 cycles
 SCF Done:  E(UM062X) =  -76.8614065372     A.U. after   15 cycles
 SCF Done:  E(UM062X) =  -76.8614067541     A.U. after   18 cycles
 SCF Done:  E(UM062X) =  -76.8614067934     A.U. after   18 cycles
 Optimization completed.
    -- Stationary point found.

                          Input orientation:
 ---------------------------------------------------------------------
 Center     Atomic      Atomic             Coordinates (Angstroms)
 Number     Number       Type             X           Y           Z
 ---------------------------------------------------------------------
      1          6           0       -2.032625    0.000000    0.000000
      2          6           0        2.032625    0.000000    0.000000
      3          1           0       -1.842853   -0.652144    0.888849
      4          1           0        1.843114    0.651666   -0.889256
 ---------------------------------------------------------------------

 Alpha  occ. eigenvalues --  -10.67652 -10.67651  -0.73009  -0.72694  -0.39179
 Alpha  occ. eigenvalues --   -0.39047  -0.23077
 Alpha virt. eigenvalues --   -0.13659  -0.10332  -0.09773   0.03143   0.04445
 Alpha virt. eigenvalues --    0.07231   0.07231   0.09168   0.09571   0.10681
 Alpha virt. eigenvalues --    0.13757   0.18054   0.19068   0.45376   0.45566

  Beta  occ. eigenvalues --  -10.67652 -10.67651  -0.73009  -0.72694  -0.39179
  Beta  occ. eigenvalues --   -0.39047  -0.23077
  Beta virt. eigenvalues --   -0.13659  -0.10332  -0.09773   0.03143   0.04445
  Beta virt. eigenvalues --    0.07231   0.07231   0.09168   0.09571   0.10681
  Beta virt. eigenvalues --    0.13757   0.18054   0.19068   0.45376   0.45566

 Mulliken charges and spin densities:
               1          2
     1  C   -0.140893   0.000000
     2  C   -0.140922  -0.000000
     3  H    0.140909  -0.000000
     4  H    0.140906  -0.000000
 Sum of Mulliken charges =  -0.00000  -0.00000

 Dipole moment (field-independent basis, Debye):
    X=              0.0002    Y=             -0.0008    Z=             -0.0006  Tot=              0.0010
 Quadrupole moment (field-independent basis, Debye-Ang):
   XX=            -17.3351   YY=            -13.0202   ZZ=            -13.8401
   XY=              3.9008   XZ=             -5.3204   YZ=              1.3006

 Normal termination of Gaussian 16 at Wed Dec  4 00:14:53 2024.
