 Gaussian 16, Revision A.03,
 Gaussian 16:  ES64L-G16RevA.03 25-Dec-2016

 --------------------------------------------
 #p opt UM062X/6-311+G** nosymm int=superfine
 --------------------------------------------

 -------------------
 Title Card Required
 -------------------
 Symbolic Z-matrix:
 Charge =  0 Multiplicity = 1

 SCF Done:  E(UM062X) =  -77.0428001566     A.U. after   13 cycles

 Alpha  occ. eigenvalues --  -10.65723 -10.65707  -0.78021  -0.67609  -0.42207
 Alpha  occ. eigenvalues --   -0.37609  -0.30832
 Alpha virt. eigenvalues --   -0.08923  -0.08343   0.02667   0.02712   0.06654
 Alpha virt. eigenvalues --    0.07676   0.09728   0.10219   0.10538   0.10908
 Alpha virt. eigenvalues --    0.15952   0.16681   0.21219   0.46250   0.47881

  Beta  occ. eigenvalues --  -10.65723 -10.65707  -0.78021  -0.67609  -0.42207
  Beta  occ. eigenvalues --   -0.37609  -0.30832
  Beta virt. eigenvalues --   -0.08923  -0.08343   0.02667   0.02712   0.06654
  Beta virt. eigenvalues --    0.07676   0.09728   0.10219   0.10538   0.10908
  Beta virt. eigenvalues --    0.15952   0.16681   0.21219   0.46250   0.47881

 Mulliken charges and spin densities:
               1          2
     1  C   -0.150551   0.000000
     2  C   -0.150674  -0.000000
     3  H    0.150587  -0.000000
     4  H    0.150637  -0.000000
 Sum of Mulliken charges =  -0.00000   0.00000

 Dipole moment (field-independent basis, Debye):
    X=              0.0006    Y=              1.8977    Z=              0.9191  Tot=              2.1086
 Quadrupole moment (field-independent basis, Debye-Ang):
   XX=            -16.8780   YY=            -13.0466   ZZ=            -13.0274
   XY=              1.1598   XZ=             -2.3924   YZ=             -0.0115

 Optimization completed.
    -- Stationary point found.

                          Input orientation:
 ---------------------------------------------------------------------
 Center     Atomic      Atomic             Coordinates (Angstroms)
 Number     Number       Type             X           Y           Z
 ---------------------------------------------------------------------
      1          6           0       -0.982625    0.000000    0.000000
      2          6           0        0.982625    0.000000    0.000000
      3          1           0       -1.095671    0.321352    1.063773
      4          1           0        1.096320    1.033920   -0.406981
 ---------------------------------------------------------------------

 Normal termination of Gaussian 16 at Tue Dec  3 21:19:55 2024.
