 Gaussian 16, Revision A.03,
 Gaussian 16:  ES64L-G16RevA.03 25-Dec-2016

 --------------------------------------------
 #p opt UM062X/6-311+G** nosymm int=superfine
 --------------------------------------------

 -------------------
 Title Card Required
 -------------------
 Symbolic Z-matrix:
 Charge =  1 Multiplicity = 2

 SCF Done:  E(UM062X) =  -580.866791271     A.U. after   15 cycles
 SCF Done:  E(UM062X) =  -580.874013492     A.U. after    9 cycles
 SCF Done:  E(UM062X) =  -580.876036453     A.U. after   12 cycles
 SCF Done:  E(UM062X) =  -580.876039071     A.U. after    6 cycles
 Optimization completed.
    -- Stationary point found.

                          Input orientation:
 ---------------------------------------------------------------------
 Center     Atomic      Atomic             Coordinates (Angstroms)
 Number     Number       Type             X           Y           Z
 ---------------------------------------------------------------------
      1         14           0       -2.216295    0.000000    0.000000
      2         14           0        2.216295    0.000000    0.000000
      3          1           0       -3.112673   -1.190956    0.000052
      4          1           0        3.112673    1.190956    0.001083
      5          1           0       -3.112688    1.190945   -0.000047
      6          1           0        3.112688   -1.190944   -0.001078
 ---------------------------------------------------------------------

 Alpha  occ. eigenvalues --  -67.24179 -67.24179  -5.78665  -5.78664  -4.09937
 Alpha  occ. eigenvalues --   -4.09937  -4.09614  -4.09614  -4.09271  -4.09271
 Alpha  occ. eigenvalues --   -0.78205  -0.78067  -0.59993  -0.59957  -0.49686
 Alpha  occ. eigenvalues --   -0.47275
 Alpha virt. eigenvalues --   -0.27125  -0.26461  -0.12663  -0.12026  -0.09259
 Alpha virt. eigenvalues --   -0.08166  -0.07910  -0.07210  -0.06724  -0.05901
 Alpha virt. eigenvalues --   -0.05874  -0.05870  -0.05499  -0.03456   0.12921

  Beta  occ. eigenvalues --  -67.23837 -67.23837  -5.78404  -5.78403  -4.09832
  Beta  occ. eigenvalues --   -4.09832  -4.09159  -4.09159  -4.08832  -4.08831
  Beta  occ. eigenvalues --   -0.76386  -0.76094  -0.58816  -0.58767  -0.43366
  Beta virt. eigenvalues --   -0.32741  -0.25943  -0.25115  -0.11576  -0.11470
  Beta virt. eigenvalues --   -0.09324  -0.07393  -0.06904  -0.06625  -0.06359
  Beta virt. eigenvalues --   -0.05771  -0.05656  -0.05297  -0.05121  -0.03029

 Mulliken charges and spin densities:
               1          2
     1  Si   0.559628   0.387612
     2  Si   0.559628   0.387612
     3  H   -0.029814   0.056194
     4  H   -0.029814   0.056194
     5  H   -0.029814   0.056194
     6  H   -0.029814   0.056194
 Sum of Mulliken charges =   1.00000   1.00000

 Dipole moment (field-independent basis, Debye):
    X=              0.0000    Y=              0.0000    Z=              0.0000  Tot=              0.0000
 Quadrupole moment (field-independent basis, Debye-Ang):
   XX=              3.2465   YY=            -25.8601   ZZ=            -20.8678
   XY=             -0.0000   XZ=              0.0000   YZ=             -0.0022

 Normal termination of Gaussian 16 at Mon Apr 21 20:27:08 2025.
