 Gaussian 16, Revision A.03,
 Gaussian 16:  ES64L-G16RevA.03 25-Dec-2016

 --------------------------------------------
 #p opt UM062X/6-311+G** nosymm int=superfine
 --------------------------------------------

 -------------------
 Title Card Required
 -------------------
 Symbolic Z-matrix:
 Charge =  0 Multiplicity = 1

 SCF Done:  E(UM062X) =  -80.4197745329     A.U. after   16 cycles
 SCF Done:  E(UM062X) =  -80.4205914623     A.U. after   11 cycles
 SCF Done:  E(UM062X) =  -80.4210266061     A.U. after   10 cycles
 SCF Done:  E(UM062X) =  -80.4220724429     A.U. after   11 cycles
 SCF Done:  E(UM062X) =  -80.4228085299     A.U. after   11 cycles
 SCF Done:  E(UM062X) =  -80.4228478604     A.U. after    9 cycles
 SCF Done:  E(UM062X) =  -80.4231427860     A.U. after   11 cycles
 SCF Done:  E(UM062X) =  -80.4232200331     A.U. after    9 cycles
 SCF Done:  E(UM062X) =  -80.4232239567     A.U. after    9 cycles
 SCF Done:  E(UM062X) =  -80.4232296662     A.U. after   10 cycles
 SCF Done:  E(UM062X) =  -80.4232308548     A.U. after    7 cycles
 SCF Done:  E(UM062X) =  -80.4233794090     A.U. after   17 cycles
 SCF Done:  E(UM062X) =  -80.4227316709     A.U. after   20 cycles
 SCF Done:  E(UM062X) =  -80.4234935961     A.U. after   18 cycles
 SCF Done:  E(UM062X) =  -80.4233269076     A.U. after   19 cycles
 SCF Done:  E(UM062X) =  -80.4232266065     A.U. after   23 cycles
 SCF Done:  E(UM062X) =  -80.4235322781     A.U. after   18 cycles
 SCF Done:  E(UM062X) =  -80.4235472331     A.U. after   17 cycles
 SCF Done:  E(UM062X) =  -80.4235493514     A.U. after   14 cycles
 SCF Done:  E(UM062X) =  -80.4235511627     A.U. after   16 cycles
 Optimization completed.
    -- Stationary point found.

                          Input orientation:
 ---------------------------------------------------------------------
 Center     Atomic      Atomic             Coordinates (Angstroms)
 Number     Number       Type             X           Y           Z
 ---------------------------------------------------------------------
      1          5           0       -1.742997   -0.003517    0.000000
      2          7           0        1.741426    0.001527   -0.000000
      3          1           0       -2.920262   -0.311358    0.116991
      4          1           0        1.419853    0.922078   -0.351257
 ---------------------------------------------------------------------

 Alpha  occ. eigenvalues --  -14.80837  -7.15510  -0.87256  -0.57201  -0.44119
 Alpha  occ. eigenvalues --   -0.31573  -0.30499
 Alpha virt. eigenvalues --   -0.10537  -0.06278  -0.06205   0.01476   0.04330
 Alpha virt. eigenvalues --    0.05612   0.05621   0.11093   0.14685   0.15982
 Alpha virt. eigenvalues --    0.16551   0.20682   0.23591   0.35448   0.40269

  Beta  occ. eigenvalues --  -14.80837  -7.15510  -0.87256  -0.57201  -0.44119
  Beta  occ. eigenvalues --   -0.31573  -0.30499
  Beta virt. eigenvalues --   -0.10537  -0.06278  -0.06205   0.01476   0.04330
  Beta virt. eigenvalues --    0.05612   0.05621   0.11093   0.14685   0.15982
  Beta virt. eigenvalues --    0.16551   0.20682   0.23591   0.35448   0.40269

 Mulliken charges and spin densities:
               1          2
     1  B    0.016069  -0.000000
     2  N   -0.230511   0.000000
     3  H    0.014663  -0.000000
     4  H    0.199779   0.000000
 Sum of Mulliken charges =  -0.00000  -0.00000

 Dipole moment (field-independent basis, Debye):
    X=             -3.0799    Y=              1.0631    Z=             -0.4069  Tot=              3.2836
 Quadrupole moment (field-independent basis, Debye-Ang):
   XX=            -10.3076   YY=            -12.8525   ZZ=            -14.8017
   XY=              2.9691   XZ=             -1.1289   YZ=             -0.8683

 Normal termination of Gaussian 16 at Mon Apr 21 21:05:38 2025.
