 Gaussian 16, Revision A.03,
 Gaussian 16:  ES64L-G16RevA.03 25-Dec-2016

 --------------------------------------------
 #p opt UM062X/6-311+G** nosymm int=superfine
 --------------------------------------------

 -------------------
 Title Card Required
 -------------------
 Symbolic Z-matrix:
 Charge =  0 Multiplicity = 1

 SCF Done:  E(UM062X) =  -115.530977351     A.U. after   12 cycles
 SCF Done:  E(UM062X) =  -115.546002299     A.U. after   11 cycles
 SCF Done:  E(UM062X) =  -115.552328270     A.U. after   11 cycles
 SCF Done:  E(UM062X) =  -115.552396057     A.U. after    9 cycles
 SCF Done:  E(UM062X) =  -115.552426930     A.U. after    9 cycles
 SCF Done:  E(UM062X) =  -115.552429348     A.U. after    9 cycles
 SCF Done:  E(UM062X) =  -115.552430260     A.U. after    8 cycles
 SCF Done:  E(UM062X) =  -115.552430535     A.U. after    7 cycles
 Optimization completed.
    -- Stationary point found.

                          Input orientation:
 ---------------------------------------------------------------------
 Center     Atomic      Atomic             Coordinates (Angstroms)
 Number     Number       Type             X           Y           Z
 ---------------------------------------------------------------------
      1          6           0       -1.257203    0.000000    0.000000
      2          8           0        1.257203    0.000000    0.000000
      3          1           0        1.318104   -0.963506    0.000239
      4          1           0       -1.384215   -0.527177    0.934968
      5          1           0       -1.282860    1.079996   -0.000781
      6          1           0       -1.384278   -0.528532   -0.934195
 ---------------------------------------------------------------------

 Alpha  occ. eigenvalues --  -19.60207 -10.65031  -1.02523  -0.82602  -0.54637
 Alpha  occ. eigenvalues --   -0.54399  -0.46829  -0.33792  -0.32914
 Alpha virt. eigenvalues --   -0.10612   0.00895   0.04351   0.04838   0.06539
 Alpha virt. eigenvalues --    0.14463   0.16304   0.16540   0.20209   0.22884
 Alpha virt. eigenvalues --    0.23117   0.24444   0.32508   0.40299   0.40947

  Beta  occ. eigenvalues --  -19.60207 -10.65031  -1.02523  -0.82602  -0.54637
  Beta  occ. eigenvalues --   -0.54399  -0.46829  -0.33792  -0.32914
  Beta virt. eigenvalues --   -0.10612   0.00895   0.04351   0.04838   0.06539
  Beta virt. eigenvalues --    0.14463   0.16304   0.16540   0.20209   0.22884
  Beta virt. eigenvalues --    0.23117   0.24444   0.32508   0.40299   0.40947

 Mulliken charges and spin densities:
               1          2
     1  C   -0.295321  -0.000000
     2  O   -0.542885   0.000000
     3  H    0.218694  -0.000000
     4  H    0.200745   0.000000
     5  H    0.218038   0.000000
     6  H    0.200729   0.000000
 Sum of Mulliken charges =  -0.00000   0.00000

 Dipole moment (field-independent basis, Debye):
    X=             -4.2582    Y=             -1.5418    Z=              0.0004  Tot=              4.5287
 Quadrupole moment (field-independent basis, Debye-Ang):
   XX=            -13.3035   YY=            -11.4053   ZZ=            -13.8244
   XY=             -2.2889   XZ=              0.0006   YZ=             -0.0006

 Normal termination of Gaussian 16 at Mon Apr 21 18:40:15 2025.
