 Gaussian 16, Revision A.03,
 Gaussian 16:  ES64L-G16RevA.03 25-Dec-2016

 --------------------------------------------
 #p opt UM062X/6-311+G** nosymm int=superfine
 --------------------------------------------

 -------------------
 Title Card Required
 -------------------
 Symbolic Z-matrix:
 Charge =  1 Multiplicity = 2

 SCF Done:  E(UM062X) =  -92.4413223799     A.U. after   12 cycles
 SCF Done:  E(UM062X) =  -92.7704881010     A.U. after   14 cycles
 SCF Done:  E(UM062X) =  -92.9136018911     A.U. after   13 cycles
 SCF Done:  E(UM062X) =  -92.9149302993     A.U. after   11 cycles
 SCF Done:  E(UM062X) =  -92.9149622222     A.U. after   10 cycles
 SCF Done:  E(UM062X) =  -92.9149664280     A.U. after    9 cycles
 SCF Done:  E(UM062X) =  -92.9149677910     A.U. after   55 cycles
 Optimization completed.
    -- Stationary point found.

                          Input orientation:
 ---------------------------------------------------------------------
 Center     Atomic      Atomic             Coordinates (Angstroms)
 Number     Number       Type             X           Y           Z
 ---------------------------------------------------------------------
      1          6           0       -0.441640   -0.000000    0.000000
      2          7           0        0.761439    0.000000   -0.000000
      3          1           0       -1.535860    0.000000   -0.000000
 ---------------------------------------------------------------------

 Alpha  occ. eigenvalues --  -15.21676 -11.03952  -1.45285  -1.03961  -0.85045
 Alpha  occ. eigenvalues --   -0.84411  -0.81205
 Alpha virt. eigenvalues --   -0.33888  -0.31427  -0.19518  -0.16346  -0.11728
 Alpha virt. eigenvalues --   -0.11355  -0.07240  -0.01252  -0.01117  -0.00831
 Alpha virt. eigenvalues --    0.05386   0.15670   0.27307   0.27809   0.34295

  Beta  occ. eigenvalues --  -15.21234 -11.03752  -1.39976  -1.02529  -0.82833
  Beta  occ. eigenvalues --   -0.78783
  Beta virt. eigenvalues --   -0.55191  -0.29848  -0.26190  -0.18670  -0.17030
  Beta virt. eigenvalues --   -0.11563  -0.11383  -0.07029  -0.01318  -0.01018
  Beta virt. eigenvalues --   -0.00916   0.04468   0.15814   0.25555   0.27619

 Mulliken charges and spin densities:
               1          2
     1  C    0.383473   0.439250
     2  N    0.259434   0.577736
     3  H    0.357092  -0.016986
 Sum of Mulliken charges =   1.00000   1.00000

 Dipole moment (field-independent basis, Debye):
    X=             -2.9617    Y=              0.0000    Z=             -0.0000  Tot=              2.9617
 Quadrupole moment (field-independent basis, Debye-Ang):
   XX=             -5.1327   YY=             -8.4268   ZZ=             -9.8360
   XY=              0.0000   XZ=             -0.0000   YZ=             -0.1902

 Normal termination of Gaussian 16 at Wed Apr 16 02:23:32 2025.
