 Gaussian 16, Revision A.03,
 Gaussian 16:  ES64L-G16RevA.03 25-Dec-2016

 --------------------------------------------
 #p opt UM062X/6-311+G** nosymm int=superfine
 --------------------------------------------

 -------------------
 Title Card Required
 -------------------
 Symbolic Z-matrix:
 Charge =  1 Multiplicity = 2

 SCF Done:  E(UM062X) =  -92.8998587088     A.U. after   13 cycles
 SCF Done:  E(UM062X) =  -92.8998688697     A.U. after   10 cycles
 Optimization completed.
    -- Stationary point found.

                          Input orientation:
 ---------------------------------------------------------------------
 Center     Atomic      Atomic             Coordinates (Angstroms)
 Number     Number       Type             X           Y           Z
 ---------------------------------------------------------------------
      1          6           0       -0.651540    0.000000    0.000000
      2          7           0        0.651540    0.000000    0.000000
      3          1           0       -1.749855    0.000000   -0.000000
 ---------------------------------------------------------------------

 Alpha  occ. eigenvalues --  -15.23026 -11.05532  -1.39986  -1.04490  -0.84609
 Alpha  occ. eigenvalues --   -0.80974  -0.77907
 Alpha virt. eigenvalues --   -0.36818  -0.34351  -0.20741  -0.16322  -0.11478
 Alpha virt. eigenvalues --   -0.11128  -0.07462  -0.02382  -0.01295  -0.01042
 Alpha virt. eigenvalues --    0.05208   0.12727   0.27810   0.28270   0.35817

  Beta  occ. eigenvalues --  -15.22554 -11.05363  -1.34812  -1.02986  -0.82422
  Beta  occ. eigenvalues --   -0.75638
  Beta virt. eigenvalues --   -0.53000  -0.32748  -0.28630  -0.19685  -0.17020
  Beta virt. eigenvalues --   -0.11356  -0.11199  -0.07208  -0.02366  -0.01685
  Beta virt. eigenvalues --   -0.01210   0.04278   0.12808   0.25901   0.28003

 Mulliken charges and spin densities:
               1          2
     1  C    0.336601   0.419146
     2  N    0.301174   0.596312
     3  H    0.362225  -0.015457
 Sum of Mulliken charges =   1.00000   1.00000

 Dipole moment (field-independent basis, Debye):
    X=             -3.8085    Y=              0.0000    Z=             -0.0000  Tot=              3.8085
 Quadrupole moment (field-independent basis, Debye-Ang):
   XX=             -3.5445   YY=             -8.6205   ZZ=            -10.1499
   XY=             -0.0000   XZ=              0.0000   YZ=              0.0162

 Normal termination of Gaussian 16 at Mon Apr 21 18:26:10 2025.
