 Gaussian 16, Revision A.03,
 Gaussian 16:  ES64L-G16RevA.03 25-Dec-2016

 ---------------------------------------------------
 #p UM062X/6-311+G** force int=superfine pop=saveNBO
 ---------------------------------------------------

 -------------------
 Title Card Required
 -------------------
 Symbolic Z-matrix:
 Charge =  0 Multiplicity = 1

                         Standard orientation:
 ---------------------------------------------------------------------
 Center     Atomic      Atomic             Coordinates (Angstroms)
 Number     Number       Type             X           Y           Z
 ---------------------------------------------------------------------
      1          8           0        0.000000    0.000000   -2.126757
      2         16           0        0.000000    0.000000    1.063379
 ---------------------------------------------------------------------

 SCF Done:  E(UM062X) =  -472.953397868     A.U. after   22 cycles

 Unable to determine electronic state:  an orbital has unidentified symmetry.
 Alpha  occ. eigenvalues --  -90.03409 -19.75546  -8.39063  -6.31095  -6.31085
 Alpha  occ. eigenvalues --   -6.30179  -1.04160  -0.81339  -0.42707  -0.37837
 Alpha  occ. eigenvalues --   -0.37053  -0.35120
 Alpha virt. eigenvalues --   -0.25659  -0.23478   0.02590   0.04698   0.05181
 Alpha virt. eigenvalues --    0.05655   0.17296   0.19583   0.19768   0.24352
 Alpha virt. eigenvalues --    0.32271   0.33215   0.33936   0.56638   0.73548

  Beta  occ. eigenvalues --  -90.03409 -19.75546  -8.39063  -6.31095  -6.31085
  Beta  occ. eigenvalues --   -6.30179  -1.04160  -0.81339  -0.42707  -0.37837
  Beta  occ. eigenvalues --   -0.37053  -0.35120
  Beta virt. eigenvalues --   -0.25659  -0.23478   0.02590   0.04698   0.05181
  Beta virt. eigenvalues --    0.05655   0.17296   0.19583   0.19768   0.24352
  Beta virt. eigenvalues --    0.32271   0.33215   0.33936   0.56638   0.73548

 Mulliken charges and spin densities:
               1          2
     1  O   -0.187163   0.000000
     2  S    0.187163  -0.000000
 Sum of Mulliken charges =  -0.00000  -0.00000

 Dipole moment (field-independent basis, Debye):
    X=              0.0000    Y=              0.0000    Z=              2.8915  Tot=              2.8915
 Quadrupole moment (field-independent basis, Debye-Ang):
   XX=            -17.4040   YY=            -20.8914   ZZ=            -18.9219
   XY=              0.0000   XZ=              0.0000   YZ=              0.0000

 Summary of Natural Population Analysis:

                                       Natural Population
                Natural  -----------------------------------------------
    Atom  No    Charge         Core      Valence    Rydberg      Total
 -----------------------------------------------------------------------
      O    1   -0.11138      1.00000     3.11046    0.00092     4.11138
      S    2    0.11138      5.00000     2.88783    0.00080     7.88862
 =======================================================================
   * Total *   -0.00000      6.00000     5.99829    0.00171    12.00000

 Normal termination of Gaussian 16 at Mon Apr 21 20:01:05 2025.
