 Gaussian 16, Revision A.03,
 Gaussian 16:  ES64L-G16RevA.03 25-Dec-2016

 ---------------------------------------------------
 #p UM062X/6-311+G** force int=superfine pop=saveNBO
 ---------------------------------------------------

 -------------------
 Title Card Required
 -------------------
 Symbolic Z-matrix:
 Charge =  0 Multiplicity = 1

                         Standard orientation:
 ---------------------------------------------------------------------
 Center     Atomic      Atomic             Coordinates (Angstroms)
 Number     Number       Type             X           Y           Z
 ---------------------------------------------------------------------
      1          8           0        0.000000    0.000000   -1.493424
      2         16           0        0.000000    0.000000    0.746712
 ---------------------------------------------------------------------

 SCF Done:  E(UM062X) =  -473.114462781     A.U. after   16 cycles

 Unable to determine electronic state:  an orbital has unidentified symmetry.
 Alpha  occ. eigenvalues --  -90.03379 -19.75294  -8.38859  -6.30936  -6.30871
 Alpha  occ. eigenvalues --   -6.29990  -1.05396  -0.80711  -0.43955  -0.43564
 Alpha  occ. eigenvalues --   -0.38681  -0.36426
 Alpha virt. eigenvalues --   -0.22038  -0.14071   0.02587   0.04685   0.05244
 Alpha virt. eigenvalues --    0.05685   0.18349   0.20261   0.20558   0.27004
 Alpha virt. eigenvalues --    0.32902   0.33604   0.33838   0.59192   0.74344

  Beta  occ. eigenvalues --  -90.03379 -19.75294  -8.38859  -6.30936  -6.30871
  Beta  occ. eigenvalues --   -6.29990  -1.05396  -0.80711  -0.43955  -0.43564
  Beta  occ. eigenvalues --   -0.38681  -0.36426
  Beta virt. eigenvalues --   -0.22038  -0.14071   0.02587   0.04685   0.05244
  Beta virt. eigenvalues --    0.05685   0.18349   0.20261   0.20558   0.27004
  Beta virt. eigenvalues --    0.32902   0.33604   0.33838   0.59192   0.74344

 Mulliken charges and spin densities:
               1          2
     1  O   -0.237444   0.000000
     2  S    0.237444  -0.000000
 Sum of Mulliken charges =  -0.00000  -0.00000

 Dipole moment (field-independent basis, Debye):
    X=              0.0000    Y=              0.0000    Z=              2.5930  Tot=              2.5930
 Quadrupole moment (field-independent basis, Debye-Ang):
   XX=            -20.5515   YY=            -17.0555   ZZ=            -18.4347
   XY=              0.0000   XZ=              0.0000   YZ=              0.0000

 Summary of Natural Population Analysis:

                                       Natural Population
                Natural  -----------------------------------------------
    Atom  No    Charge         Core      Valence    Rydberg      Total
 -----------------------------------------------------------------------
      O    1   -0.17425      1.00000     3.17263    0.00162     4.17425
      S    2    0.17425      4.99998     2.82263    0.00314     7.82575
 =======================================================================
   * Total *   -0.00000      5.99998     5.99526    0.00476    12.00000

 Normal termination of Gaussian 16 at Mon Apr 21 19:59:52 2025.
