 Gaussian 16, Revision A.03,
 Gaussian 16:  ES64L-G16RevA.03 25-Dec-2016

 ---------------------------------------
 #p UM062X/6-311+G** force int=superfine
 ---------------------------------------

 -------------------
 Title Card Required
 -------------------
 Symbolic Z-matrix:
 Charge =  1 Multiplicity = 2

                         Standard orientation:
 ---------------------------------------------------------------------
 Center     Atomic      Atomic             Coordinates (Angstroms)
 Number     Number       Type             X           Y           Z
 ---------------------------------------------------------------------
      1          6           0        0.018337   -0.160724    1.431830
      2          6           0       -0.018325    0.160731   -1.431829
      3          1           0        0.624869   -0.696652   -1.594202
      4          1           0       -0.412676   -1.154187    1.382530
      5          1           0        0.412447    1.154332   -1.383207
      6          1           0       -1.094568    0.043620   -1.487939
      7          1           0       -0.624718    0.696756    1.594247
      8          1           0        1.094580   -0.043912    1.488560
 ---------------------------------------------------------------------

 SCF Done:  E(UM062X) =  -79.3440492492     A.U. after   10 cycles

 The electronic state is 2-A.
 Alpha  occ. eigenvalues --  -10.85256 -10.85253  -1.04656  -1.02634  -0.75150
 Alpha  occ. eigenvalues --   -0.75149  -0.74139  -0.74139  -0.53825
 Alpha virt. eigenvalues --   -0.34546  -0.14410  -0.10382  -0.10382  -0.10106
 Alpha virt. eigenvalues --   -0.06214  -0.06214  -0.05618  -0.03172  -0.02671
 Alpha virt. eigenvalues --   -0.02668   0.01418   0.01420   0.05277   0.07537

  Beta  occ. eigenvalues --  -10.85060 -10.85060  -1.01659  -1.00248  -0.74557
  Beta  occ. eigenvalues --   -0.74556  -0.73630  -0.73629
  Beta virt. eigenvalues --   -0.32881  -0.24959  -0.15450  -0.11123  -0.11123
  Beta virt. eigenvalues --   -0.09841  -0.06484  -0.06484  -0.05679  -0.02816
  Beta virt. eigenvalues --   -0.02814  -0.02349   0.01752   0.01754   0.06078

 Mulliken charges and spin densities:
               1          2
     1  C   -0.275261   0.570973
     2  C   -0.275261   0.570973
     3  H    0.258443  -0.023660
     4  H    0.258402  -0.023647
     5  H    0.258429  -0.023649
     6  H    0.258389  -0.023664
     7  H    0.258444  -0.023660
     8  H    0.258415  -0.023666
 Sum of Mulliken charges =   1.00000   1.00000

 Dipole moment (field-independent basis, Debye):
    X=             -0.0000    Y=             -0.0000    Z=             -0.0000  Tot=              0.0001
 Quadrupole moment (field-independent basis, Debye-Ang):
   XX=            -11.0039   YY=            -10.8837   ZZ=             -1.3326
   XY=             -0.0138   XZ=              0.1229   YZ=             -1.0846

 Normal termination of Gaussian 16 at Wed Nov 13 12:57:31 2024.
