 Gaussian 16, Revision A.03,
 Gaussian 16:  ES64L-G16RevA.03 25-Dec-2016

 ---------------------------------------------------
 #p UM062X/6-311+G** force int=superfine pop=saveNBO
 ---------------------------------------------------

 -------------------
 Title Card Required
 -------------------
 Symbolic Z-matrix:
 Charge =  0 Multiplicity = 1

                         Standard orientation:
 ---------------------------------------------------------------------
 Center     Atomic      Atomic             Coordinates (Angstroms)
 Number     Number       Type             X           Y           Z
 ---------------------------------------------------------------------
      1          6           0        0.000000    0.000000   -2.566249
      2         16           0        0.000000    0.000000    0.962343
 ---------------------------------------------------------------------

 SCF Done:  E(UM062X) =  -435.832214090     A.U. after   32 cycles

 The electronic state is 1-SG.
 Alpha  occ. eigenvalues --  -89.92964 -10.75801  -8.28990  -6.21710  -6.20242
 Alpha  occ. eigenvalues --   -6.20242  -0.73432  -0.67913  -0.32026  -0.30790
 Alpha  occ. eigenvalues --   -0.30790
 Alpha virt. eigenvalues --   -0.15831  -0.14140  -0.14140   0.03289   0.05050
 Alpha virt. eigenvalues --    0.05880   0.05880   0.08653   0.08653   0.08883
 Alpha virt. eigenvalues --    0.13829   0.35415   0.36517   0.36517   0.53731

  Beta  occ. eigenvalues --  -89.92964 -10.75801  -8.28990  -6.21710  -6.20242
  Beta  occ. eigenvalues --   -6.20242  -0.73432  -0.67913  -0.32026  -0.30790
  Beta  occ. eigenvalues --   -0.30790
  Beta virt. eigenvalues --   -0.15831  -0.14140  -0.14140   0.03289   0.05050
  Beta virt. eigenvalues --    0.05880   0.05880   0.08653   0.08653   0.08883
  Beta virt. eigenvalues --    0.13829   0.35415   0.36517   0.36517   0.53731

 Mulliken charges and spin densities:
               1          2
     1  C    0.128712   0.000000
     2  S   -0.128712  -0.000000
 Sum of Mulliken charges =   0.00000  -0.00000

 Dipole moment (field-independent basis, Debye):
    X=              0.0000    Y=              0.0000    Z=             -2.2620  Tot=              2.2620
 Quadrupole moment (field-independent basis, Debye-Ang):
   XX=            -20.6423   YY=            -20.6423   ZZ=            -14.9004
   XY=              0.0000   XZ=              0.0000   YZ=              0.0000

 Summary of Natural Population Analysis:

                                       Natural Population
                Natural  -----------------------------------------------
    Atom  No    Charge         Core      Valence    Rydberg      Total
 -----------------------------------------------------------------------
      C    1    0.08260      1.00000     1.91692    0.00048     2.91740
      S    2   -0.08260      4.99999     3.08185    0.00076     8.08260
 =======================================================================
   * Total *    0.00000      5.99999     4.99877    0.00124    11.00000

 Normal termination of Gaussian 16 at Mon Apr 21 19:41:11 2025.
