 Gaussian 16, Revision A.03,
 Gaussian 16:  ES64L-G16RevA.03 25-Dec-2016

 --------------------------------------------
 #p opt UM062X/6-311+G** nosymm int=superfine
 --------------------------------------------

 -------------------
 Title Card Required
 -------------------
 Symbolic Z-matrix:
 Charge =  0 Multiplicity = 1

 SCF Done:  E(UM062X) =  -115.629579301     A.U. after   11 cycles
 SCF Done:  E(UM062X) =  -115.638367062     A.U. after   10 cycles
 SCF Done:  E(UM062X) =  -115.639228422     A.U. after   10 cycles
 SCF Done:  E(UM062X) =  -115.639232422     A.U. after    8 cycles
 SCF Done:  E(UM062X) =  -115.639233039     A.U. after    8 cycles
 Optimization completed.
    -- Stationary point found.

                          Input orientation:
 ---------------------------------------------------------------------
 Center     Atomic      Atomic             Coordinates (Angstroms)
 Number     Number       Type             X           Y           Z
 ---------------------------------------------------------------------
      1          6           0       -0.957203    0.000000    0.000000
      2          8           0        0.957203    0.000000    0.000000
      3          1           0        1.108589   -0.951530    0.000324
      4          1           0       -1.206094   -0.511864    0.920628
      5          1           0       -1.122294    1.068228   -0.000730
      6          1           0       -1.206134   -0.513117   -0.919921
 ---------------------------------------------------------------------

 Alpha  occ. eigenvalues --  -19.61657 -10.61671  -1.05787  -0.80023  -0.53064
 Alpha  occ. eigenvalues --   -0.51973  -0.47911  -0.39036  -0.35581
 Alpha virt. eigenvalues --   -0.01327   0.01229   0.04919   0.05335   0.08387
 Alpha virt. eigenvalues --    0.15344   0.17576   0.17672   0.20404   0.23060
 Alpha virt. eigenvalues --    0.23542   0.24139   0.33034   0.41524   0.42848

  Beta  occ. eigenvalues --  -19.61657 -10.61671  -1.05787  -0.80023  -0.53064
  Beta  occ. eigenvalues --   -0.51973  -0.47911  -0.39036  -0.35581
  Beta virt. eigenvalues --   -0.01327   0.01229   0.04919   0.05335   0.08387
  Beta virt. eigenvalues --    0.15344   0.17576   0.17672   0.20404   0.23060
  Beta virt. eigenvalues --    0.23542   0.24139   0.33034   0.41524   0.42848

 Mulliken charges and spin densities:
               1          2
     1  C   -0.304104  -0.000000
     2  O   -0.479291  -0.000000
     3  H    0.234811   0.000000
     4  H    0.177360  -0.000000
     5  H    0.193877  -0.000000
     6  H    0.177346   0.000000
 Sum of Mulliken charges =  -0.00000  -0.00000

 Dipole moment (field-independent basis, Debye):
    X=             -2.7234    Y=             -1.5337    Z=              0.0005  Tot=              3.1255
 Quadrupole moment (field-independent basis, Debye-Ang):
   XX=            -13.4846   YY=            -11.4593   ZZ=            -13.8143
   XY=             -2.1090   XZ=              0.0007   YZ=             -0.0008

 Normal termination of Gaussian 16 at Mon Apr 21 18:41:17 2025.
