 Gaussian 16, Revision A.03,
 Gaussian 16:  ES64L-G16RevA.03 25-Dec-2016

 ---------------------------------------
 #p UM062X/6-311+G** force int=superfine
 ---------------------------------------

 -------------------
 Title Card Required
 -------------------
 Symbolic Z-matrix:
 Charge =  1 Multiplicity = 2

                         Standard orientation:
 ---------------------------------------------------------------------
 Center     Atomic      Atomic             Coordinates (Angstroms)
 Number     Number       Type             X           Y           Z
 ---------------------------------------------------------------------
      1          6           0       -0.000000    0.487755    0.000000
      2          6           0       -0.000000   -0.487755    0.000000
      3          1           0       -0.819881    1.270601    0.000000
      4          1           0        0.828495    1.263709    0.000000
      5          1           0        0.819881   -1.270601    0.000000
      6          1           0       -0.828495   -1.263709    0.000000
 ---------------------------------------------------------------------

 SCF Done:  E(UM062X) =  -77.8857422051     A.U. after    9 cycles

 The electronic state is 2-AG.
 Alpha  occ. eigenvalues --  -10.81244 -10.79606  -1.24692  -0.96799  -0.87757
 Alpha  occ. eigenvalues --   -0.87411  -0.72283  -0.64907
 Alpha virt. eigenvalues --   -0.17297  -0.15798  -0.15216  -0.13769  -0.10727
 Alpha virt. eigenvalues --   -0.08876  -0.07481  -0.06640  -0.02537  -0.02106
 Alpha virt. eigenvalues --   -0.00059   0.02716   0.13923   0.18006   0.19053

  Beta  occ. eigenvalues --  -10.81270 -10.79611  -1.23746  -0.92019  -0.84723
  Beta  occ. eigenvalues --   -0.82579  -0.72021
  Beta virt. eigenvalues --   -0.44136  -0.16006  -0.15613  -0.15083  -0.13493
  Beta virt. eigenvalues --   -0.10520  -0.08760  -0.05042  -0.04535  -0.02288
  Beta virt. eigenvalues --   -0.01226   0.00408   0.03514   0.13881   0.17781

 Mulliken charges and spin densities:
               1          2
     1  C   -0.151138   0.104612
     2  C   -0.151138   0.104612
     3  H    0.325465   0.195983
     4  H    0.325673   0.199405
     5  H    0.325465   0.195983
     6  H    0.325673   0.199405
 Sum of Mulliken charges =   1.00000   1.00000

 Dipole moment (field-independent basis, Debye):
    X=             -0.0000    Y=             -0.0000    Z=              0.0000  Tot=              0.0000
 Quadrupole moment (field-independent basis, Debye-Ang):
   XX=             -7.4668   YY=             -2.5308   ZZ=            -12.3394
   XY=              0.0212   XZ=              0.0000   YZ=              0.0000

 Normal termination of Gaussian 16 at Tue Nov 19 11:52:21 2024.
