 Gaussian 16, Revision A.03,
 Gaussian 16:  ES64L-G16RevA.03 25-Dec-2016

 --------------------------------------------
 #p opt UM062X/6-311+G** nosymm int=superfine
 --------------------------------------------

 -------------------
 Title Card Required
 -------------------
 Symbolic Z-matrix:
 Charge =  0 Multiplicity = 1

 SCF Done:  E(UM062X) =  -76.8659189914     A.U. after   15 cycles
 SCF Done:  E(UM062X) =  -76.8664402125     A.U. after   14 cycles
 SCF Done:  E(UM062X) =  -76.8675844339     A.U. after   21 cycles
 SCF Done:  E(UM062X) =  -76.8680832658     A.U. after   16 cycles
 SCF Done:  E(UM062X) =  -76.8681683865     A.U. after   15 cycles
 SCF Done:  E(UM062X) =  -76.8681904791     A.U. after   20 cycles
 SCF Done:  E(UM062X) =  -76.8681906048     A.U. after   11 cycles
 SCF Done:  E(UM062X) =  -76.8681906128     A.U. after   13 cycles
 Optimization completed.
    -- Stationary point found.

                          Input orientation:
 ---------------------------------------------------------------------
 Center     Atomic      Atomic             Coordinates (Angstroms)
 Number     Number       Type             X           Y           Z
 ---------------------------------------------------------------------
      1          6           0       -1.932625    0.000000    0.000000
      2          6           0        1.932625    0.000000    0.000000
      3          1           0       -1.754384   -0.652924    0.890329
      4          1           0        1.754708    0.652832   -0.890461
 ---------------------------------------------------------------------

 Alpha  occ. eigenvalues --  -10.67680 -10.67678  -0.73007  -0.72588  -0.39168
 Alpha  occ. eigenvalues --   -0.38985  -0.23490
 Alpha virt. eigenvalues --   -0.13148  -0.10367  -0.09655   0.03219   0.04519
 Alpha virt. eigenvalues --    0.07233   0.07277   0.09236   0.09642   0.10861
 Alpha virt. eigenvalues --    0.13853   0.18110   0.19191   0.44808   0.45361

  Beta  occ. eigenvalues --  -10.67680 -10.67678  -0.73007  -0.72588  -0.39168
  Beta  occ. eigenvalues --   -0.38985  -0.23490
  Beta virt. eigenvalues --   -0.13148  -0.10367  -0.09655   0.03219   0.04519
  Beta virt. eigenvalues --    0.07233   0.07277   0.09236   0.09642   0.10861
  Beta virt. eigenvalues --    0.13853   0.18110   0.19191   0.44808   0.45361

 Mulliken charges and spin densities:
               1          2
     1  C   -0.142294   0.000000
     2  C   -0.142335  -0.000000
     3  H    0.142316   0.000000
     4  H    0.142312   0.000000
 Sum of Mulliken charges =  -0.00000  -0.00000

 Dipole moment (field-independent basis, Debye):
    X=              0.0003    Y=             -0.0002    Z=             -0.0001  Tot=              0.0003
 Quadrupole moment (field-independent basis, Debye-Ang):
   XX=            -17.1158   YY=            -12.9930   ZZ=            -13.8063
   XY=              3.7363   XZ=             -5.0959   YZ=              1.2898

 Normal termination of Gaussian 16 at Tue Dec  3 23:59:36 2024.
