 Gaussian 16, Revision A.03,
 Gaussian 16:  ES64L-G16RevA.03 25-Dec-2016

 --------------------------------------------
 #p opt UM062X/6-311+G** nosymm int=superfine
 --------------------------------------------

 -------------------
 Title Card Required
 -------------------
 Symbolic Z-matrix:
 Charge =  0 Multiplicity = 1

 SCF Done:  E(UM062X) =  -80.4254779179     A.U. after   16 cycles
 SCF Done:  E(UM062X) =  -80.4255176479     A.U. after   10 cycles
 SCF Done:  E(UM062X) =  -80.4255427954     A.U. after   14 cycles
 SCF Done:  E(UM062X) =  -80.4256546300     A.U. after   14 cycles
 SCF Done:  E(UM062X) =  -80.4258426723     A.U. after   15 cycles
 SCF Done:  E(UM062X) =  -80.4260106643     A.U. after   14 cycles
 SCF Done:  E(UM062X) =  -80.4261064040     A.U. after   16 cycles
 SCF Done:  E(UM062X) =  -80.4261428035     A.U. after   14 cycles
 SCF Done:  E(UM062X) =  -80.4261530661     A.U. after   10 cycles
 SCF Done:  E(UM062X) =  -80.4261542765     A.U. after    8 cycles
 SCF Done:  E(UM062X) =  -80.4261549896     A.U. after   15 cycles
 SCF Done:  E(UM062X) =  -80.4261562251     A.U. after   14 cycles
 SCF Done:  E(UM062X) =  -80.4261570896     A.U. after    9 cycles
 SCF Done:  E(UM062X) =  -80.4261572045     A.U. after    9 cycles
 Optimization completed.
    -- Stationary point found.

                          Input orientation:
 ---------------------------------------------------------------------
 Center     Atomic      Atomic             Coordinates (Angstroms)
 Number     Number       Type             X           Y           Z
 ---------------------------------------------------------------------
      1          5           0       -1.668092   -0.003464   -0.000000
      2          7           0        1.666331    0.001560    0.000000
      3          1           0       -2.843842   -0.085428    0.319310
      4          1           0        1.414654    0.242986   -0.975822
 ---------------------------------------------------------------------

 Alpha  occ. eigenvalues --  -14.80346  -7.15989  -0.86788  -0.57545  -0.43659
 Alpha  occ. eigenvalues --   -0.31090  -0.30824
 Alpha virt. eigenvalues --   -0.10093  -0.06477  -0.06352   0.01398   0.04312
 Alpha virt. eigenvalues --    0.05558   0.05574   0.11222   0.14893   0.16245
 Alpha virt. eigenvalues --    0.16973   0.20738   0.24210   0.35481   0.40058

  Beta  occ. eigenvalues --  -14.80346  -7.15989  -0.86788  -0.57545  -0.43659
  Beta  occ. eigenvalues --   -0.31090  -0.30824
  Beta virt. eigenvalues --   -0.10093  -0.06477  -0.06352   0.01398   0.04312
  Beta virt. eigenvalues --    0.05558   0.05574   0.11222   0.14893   0.16245
  Beta virt. eigenvalues --    0.16973   0.20738   0.24210   0.35481   0.40058

 Mulliken charges and spin densities:
               1          2
     1  B    0.025054   0.000000
     2  N   -0.239498  -0.000000
     3  H    0.018848   0.000000
     4  H    0.195596   0.000000
 Sum of Mulliken charges =  -0.00000  -0.00000

 Dipole moment (field-independent basis, Debye):
    X=             -3.1950    Y=              0.2702    Z=             -1.1155  Tot=              3.3949
 Quadrupole moment (field-independent basis, Debye-Ang):
   XX=            -10.0123   YY=            -14.9860   ZZ=            -12.6974
   XY=              0.7412   XZ=             -2.9501   YZ=             -0.6071

 Normal termination of Gaussian 16 at Mon Apr 21 22:35:34 2025.
