 Gaussian 16, Revision A.03,
 Gaussian 16:  ES64L-G16RevA.03 25-Dec-2016

 --------------------------------------------
 #p opt UM062X/6-311+G** nosymm int=superfine
 --------------------------------------------

 -------------------
 Title Card Required
 -------------------
 Symbolic Z-matrix:
 Charge =  0 Multiplicity = 1

 SCF Done:  E(UM062X) =  -92.8375389054     A.U. after   13 cycles
 SCF Done:  E(UM062X) =  -92.8395166437     A.U. after   11 cycles
 SCF Done:  E(UM062X) =  -92.8395276472     A.U. after    9 cycles
 Optimization completed.
    -- Stationary point found.

                          Input orientation:
 ---------------------------------------------------------------------
 Center     Atomic      Atomic             Coordinates (Angstroms)
 Number     Number       Type             X           Y           Z
 ---------------------------------------------------------------------
      1          6           0       -1.622395    0.000000    0.000000
      2          7           0        1.622395    0.000000    0.000000
      3          1           0       -2.748080    0.000000    0.000000
 ---------------------------------------------------------------------

 Alpha  occ. eigenvalues --  -14.82605 -10.76070  -0.79975  -0.77029  -0.45082
 Alpha  occ. eigenvalues --   -0.27115  -0.27115
 Alpha virt. eigenvalues --   -0.17594  -0.17594  -0.08506   0.00131   0.06627
 Alpha virt. eigenvalues --    0.06627   0.07726   0.12869   0.16585   0.17241
 Alpha virt. eigenvalues --    0.17241   0.24269   0.42375   0.52241   0.52241

  Beta  occ. eigenvalues --  -14.82605 -10.76070  -0.79975  -0.77029  -0.45082
  Beta  occ. eigenvalues --   -0.27115  -0.27115
  Beta virt. eigenvalues --   -0.17594  -0.17594  -0.08506   0.00131   0.06627
  Beta virt. eigenvalues --    0.06627   0.07726   0.12869   0.16585   0.17241
  Beta virt. eigenvalues --    0.17241   0.24269   0.42375   0.52241   0.52241

 Mulliken charges and spin densities:
               1          2
     1  C    0.050448   0.000000
     2  N   -0.229310  -0.000000
     3  H    0.178862  -0.000000
 Sum of Mulliken charges =  -0.00000  -0.00000

 Dipole moment (field-independent basis, Debye):
    X=             -5.5461    Y=             -0.0000    Z=             -0.0000  Tot=              5.5461
 Quadrupole moment (field-independent basis, Debye-Ang):
   XX=             -4.9840   YY=            -14.2985   ZZ=            -14.2985
   XY=              0.0000   XZ=              0.0000   YZ=              0.0000

 Normal termination of Gaussian 16 at Mon Apr 21 18:39:05 2025.
