 Gaussian 16, Revision A.03,
 Gaussian 16:  ES64L-G16RevA.03 25-Dec-2016

 --------------------------------------------
 #p opt UM062X/6-311+G** nosymm int=superfine
 --------------------------------------------

 -------------------
 Title Card Required
 -------------------
 Symbolic Z-matrix:
 Charge = -1 Multiplicity = 2

 SCF Done:  E(UM062X) =  -51.8463113410     A.U. after   12 cycles
 SCF Done:  E(UM062X) =  -51.8463305405     A.U. after    9 cycles
 Optimization completed.
    -- Stationary point found.

                          Input orientation:
 ---------------------------------------------------------------------
 Center     Atomic      Atomic             Coordinates (Angstroms)
 Number     Number       Type             X           Y           Z
 ---------------------------------------------------------------------
      1          5           0       -2.122274    0.000000    0.000000
      2          5           0        2.122274    0.000000    0.000000
      3          1           0       -2.791380   -1.012911   -0.000014
      4          1           0        2.791380    1.012911   -0.000489
      5          1           0       -2.791383    1.012909   -0.000012
      6          1           0        2.791383   -1.012909    0.000463
 ---------------------------------------------------------------------

 Alpha  occ. eigenvalues --   -6.88009  -6.88009  -0.38136  -0.38062  -0.22253
 Alpha  occ. eigenvalues --   -0.22207  -0.05553  -0.02706
 Alpha virt. eigenvalues --    0.11709   0.12897   0.14946   0.15492   0.15644
 Alpha virt. eigenvalues --    0.17448   0.19748   0.20718   0.20795   0.23040
 Alpha virt. eigenvalues --    0.32043   0.33307   0.33872   0.36691   0.50622

  Beta  occ. eigenvalues --   -6.87414  -6.87413  -0.36798  -0.36652  -0.21557
  Beta  occ. eigenvalues --   -0.21497   0.01829
  Beta virt. eigenvalues --    0.12499   0.13047   0.14009   0.14473   0.16080
  Beta virt. eigenvalues --    0.17848   0.18153   0.22097   0.22343   0.24135
  Beta virt. eigenvalues --    0.25286   0.32100   0.33488   0.34022   0.37520

 Mulliken charges and spin densities:
               1          2
     1  B   -0.343487   0.491896
     2  B   -0.343487   0.491896
     3  H   -0.078256   0.004052
     4  H   -0.078256   0.004052
     5  H   -0.078256   0.004052
     6  H   -0.078256   0.004052
 Sum of Mulliken charges =  -1.00000   1.00000

 Dipole moment (field-independent basis, Debye):
    X=              0.0000    Y=             -0.0000    Z=             -0.0000  Tot=              0.0000
 Quadrupole moment (field-independent basis, Debye-Ang):
   XX=            -42.6178   YY=            -24.4713   ZZ=            -18.9665
   XY=              0.0000   XZ=             -0.0000   YZ=              0.0013

 Normal termination of Gaussian 16 at Mon Apr 21 17:26:41 2025.
