 Gaussian 16, Revision A.03,
 Gaussian 16:  ES64L-G16RevA.03 25-Dec-2016

 --------------------------------------------
 #p opt UM062X/6-311+G** nosymm int=superfine
 --------------------------------------------

 -------------------
 Title Card Required
 -------------------
 Symbolic Z-matrix:
 Charge =  0 Multiplicity = 1

 SCF Done:  E(UM062X) =  -684.908436759     A.U. after   11 cycles
 SCF Done:  E(UM062X) =  -684.909029729     A.U. after   10 cycles
 SCF Done:  E(UM062X) =  -684.909365796     A.U. after   10 cycles
 SCF Done:  E(UM062X) =  -684.909866909     A.U. after   12 cycles
 SCF Done:  E(UM062X) =  -684.910074539     A.U. after   12 cycles
 SCF Done:  E(UM062X) =  -684.910191031     A.U. after   12 cycles
 SCF Done:  E(UM062X) =  -684.910206672     A.U. after   10 cycles
 SCF Done:  E(UM062X) =  -684.910217692     A.U. after   11 cycles
 SCF Done:  E(UM062X) =  -684.910238015     A.U. after   10 cycles
 SCF Done:  E(UM062X) =  -684.910266764     A.U. after   13 cycles
 SCF Done:  E(UM062X) =  -684.910359556     A.U. after   13 cycles
 SCF Done:  E(UM062X) =  -684.910381920     A.U. after   12 cycles
 SCF Done:  E(UM062X) =  -684.910393832     A.U. after   14 cycles
 SCF Done:  E(UM062X) =  -684.910391423     A.U. after   10 cycles
 SCF Done:  E(UM062X) =  -684.910365789     A.U. after   13 cycles
 SCF Done:  E(UM062X) =  -684.910384785     A.U. after   10 cycles
 SCF Done:  E(UM062X) =  -684.910395255     A.U. after   11 cycles
 SCF Done:  E(UM062X) =  -684.910395793     A.U. after    8 cycles
 SCF Done:  E(UM062X) =  -684.910395529     A.U. after   10 cycles
 SCF Done:  E(UM062X) =  -684.910396135     A.U. after    9 cycles
 Optimization completed.
    -- Stationary point found.

                          Input orientation:
 ---------------------------------------------------------------------
 Center     Atomic      Atomic             Coordinates (Angstroms)
 Number     Number       Type             X           Y           Z
 ---------------------------------------------------------------------
      1         15           0       -2.367217    0.000000    0.000000
      2         15           0        2.367217    0.000000    0.000000
      3          1           0        2.254332   -1.037648    0.960991
      4          1           0       -2.252464    1.099621    0.889290
      5          1           0        2.257945   -0.920355   -1.074489
      6          1           0       -2.257128    0.846239   -1.133592
 ---------------------------------------------------------------------

 Alpha  occ. eigenvalues --  -78.04967 -78.04967  -6.87383  -6.87382  -4.98927
 Alpha  occ. eigenvalues --   -4.98927  -4.98807  -4.98807  -4.98625  -4.98625
 Alpha  occ. eigenvalues --   -0.71186  -0.70951  -0.45133  -0.45054  -0.36276
 Alpha  occ. eigenvalues --   -0.36195  -0.23838
 Alpha virt. eigenvalues --   -0.15686   0.01540   0.02842   0.03193   0.04008
 Alpha virt. eigenvalues --    0.04831   0.05860   0.06060   0.06080   0.06135
 Alpha virt. eigenvalues --    0.07871   0.12802   0.18253   0.29029   0.29725

  Beta  occ. eigenvalues --  -78.04967 -78.04967  -6.87383  -6.87382  -4.98927
  Beta  occ. eigenvalues --   -4.98927  -4.98807  -4.98807  -4.98625  -4.98625
  Beta  occ. eigenvalues --   -0.71186  -0.70951  -0.45133  -0.45054  -0.36276
  Beta  occ. eigenvalues --   -0.36195  -0.23838
  Beta virt. eigenvalues --   -0.15686   0.01540   0.02842   0.03193   0.04008
  Beta virt. eigenvalues --    0.04831   0.05860   0.06060   0.06080   0.06135
  Beta virt. eigenvalues --    0.07871   0.12802   0.18253   0.29029   0.29725

 Mulliken charges and spin densities:
               1          2
     1  P    0.007397   0.000008
     2  P    0.007250  -0.000008
     3  H   -0.003212   0.000000
     4  H   -0.003207  -0.000000
     5  H   -0.004109   0.000000
     6  H   -0.004120  -0.000000
 Sum of Mulliken charges =   0.00000   0.00000

 Dipole moment (field-independent basis, Debye):
    X=              0.0006    Y=             -0.0054    Z=             -0.1633  Tot=              0.1634
 Quadrupole moment (field-independent basis, Debye-Ang):
   XX=            -29.0391   YY=            -31.2361   ZZ=            -28.5496
   XY=             -4.6329   XZ=              0.1564   YZ=              0.0901

 Normal termination of Gaussian 16 at Mon Apr 21 20:59:32 2025.
