 Gaussian 16, Revision A.03,
 Gaussian 16:  ES64L-G16RevA.03 25-Dec-2016

 --------------------------------------------
 #p opt UM062X/6-311+G** nosymm int=superfine
 --------------------------------------------

 -------------------
 Title Card Required
 -------------------
 Symbolic Z-matrix:
 Charge =  1 Multiplicity = 2

 SCF Done:  E(UM062X) =  -79.3535778561     A.U. after   10 cycles
 SCF Done:  E(UM062X) =  -79.3537648352     A.U. after    9 cycles
 SCF Done:  E(UM062X) =  -79.3537653572     A.U. after    7 cycles
 Optimization completed.
    -- Stationary point found.

                          Input orientation:
 ---------------------------------------------------------------------
 Center     Atomic      Atomic             Coordinates (Angstroms)
 Number     Number       Type             X           Y           Z
 ---------------------------------------------------------------------
      1          6           0       -1.298272    0.000000    0.000000
      2          6           0        1.298272    0.000000    0.000000
      3          1           0        1.372202   -0.936082    0.541745
      4          1           0       -1.371386   -0.937190   -0.539936
      5          1           0        1.371894    0.937262    0.539744
      6          1           0        1.371430   -0.001136   -1.081595
      7          1           0       -1.372228    0.936152   -0.541622
      8          1           0       -1.371912    0.000937    1.081563
 ---------------------------------------------------------------------

 Alpha  occ. eigenvalues --  -10.85585 -10.85581  -1.05938  -1.02566  -0.76025
 Alpha  occ. eigenvalues --   -0.76024  -0.74256  -0.74255  -0.56253
 Alpha virt. eigenvalues --   -0.32478  -0.15055  -0.10549  -0.10549  -0.10019
 Alpha virt. eigenvalues --   -0.06209  -0.06209  -0.06149  -0.03617  -0.03615
 Alpha virt. eigenvalues --   -0.02919   0.01567   0.01569   0.05429   0.07407

  Beta  occ. eigenvalues --  -10.85388 -10.85388  -1.02731  -1.00138  -0.75323
  Beta  occ. eigenvalues --   -0.75322  -0.73705  -0.73705
  Beta virt. eigenvalues --   -0.34025  -0.23441  -0.15576  -0.11105  -0.11105
  Beta virt. eigenvalues --   -0.09590  -0.06553  -0.06553  -0.06121  -0.03534
  Beta virt. eigenvalues --   -0.03532  -0.02162   0.01969   0.01970   0.05919

 Mulliken charges and spin densities:
               1          2
     1  C   -0.283005   0.574259
     2  C   -0.283004   0.574259
     3  H    0.261018  -0.024756
     4  H    0.260983  -0.024746
     5  H    0.261003  -0.024753
     6  H    0.260983  -0.024749
     7  H    0.261019  -0.024757
     8  H    0.261002  -0.024756
 Sum of Mulliken charges =   1.00000   1.00000

 Dipole moment (field-independent basis, Debye):
    X=              0.0000    Y=             -0.0000    Z=             -0.0001  Tot=              0.0001
 Quadrupole moment (field-independent basis, Debye-Ang):
   XX=             -3.1904   YY=            -10.9505   ZZ=            -10.9507
   XY=             -0.0009   XZ=              0.0004   YZ=             -0.0001

 Normal termination of Gaussian 16 at Wed Nov 13 12:42:44 2024.
