 Gaussian 16, Revision A.03,
 Gaussian 16:  ES64L-G16RevA.03 25-Dec-2016

 ---------------------------------------
 #p UM062X/6-311+G** force int=superfine
 ---------------------------------------

 -------------------
 Title Card Required
 -------------------
 Symbolic Z-matrix:
 Charge =  0 Multiplicity = 1

                         Standard orientation:
 ---------------------------------------------------------------------
 Center     Atomic      Atomic             Coordinates (Angstroms)
 Number     Number       Type             X           Y           Z
 ---------------------------------------------------------------------
      1          6           0        0.000000    1.053966    0.000000
      2          6           0       -0.000000   -1.053966    0.000000
      3          1           0        0.977993    1.507226    0.000000
      4          1           0       -0.977914    1.507158    0.000000
      5          1           0       -0.977993   -1.507226    0.000000
      6          1           0        0.977914   -1.507158    0.000000
 ---------------------------------------------------------------------

 SCF Done:  E(UM062X) =  -78.3464100485     A.U. after    8 cycles

 The electronic state is 1-AG.
 Alpha  occ. eigenvalues --  -10.61527 -10.61515  -0.77071  -0.71952  -0.53062
 Alpha  occ. eigenvalues --   -0.50448  -0.36643  -0.25591
 Alpha virt. eigenvalues --   -0.07407   0.00610   0.03363   0.05379   0.07255
 Alpha virt. eigenvalues --    0.07821   0.09200   0.09936   0.11331   0.15177
 Alpha virt. eigenvalues --    0.16401   0.20248   0.21344   0.27915   0.39458

  Beta  occ. eigenvalues --  -10.61527 -10.61515  -0.77071  -0.71952  -0.53062
  Beta  occ. eigenvalues --   -0.50448  -0.36643  -0.25591
  Beta virt. eigenvalues --   -0.07407   0.00610   0.03363   0.05379   0.07255
  Beta virt. eigenvalues --    0.07821   0.09200   0.09936   0.11331   0.15177
  Beta virt. eigenvalues --    0.16401   0.20248   0.21344   0.27915   0.39458

 Mulliken charges and spin densities:
               1          2
     1  C   -0.365743   0.000000
     2  C   -0.365743   0.000000
     3  H    0.182874  -0.000000
     4  H    0.182870   0.000000
     5  H    0.182874  -0.000000
     6  H    0.182870   0.000000
 Sum of Mulliken charges =   0.00000   0.00000

 Dipole moment (field-independent basis, Debye):
    X=              0.0000    Y=              0.0000    Z=              0.0000  Tot=              0.0000
 Quadrupole moment (field-independent basis, Debye-Ang):
   XX=            -12.0510   YY=            -11.0584   ZZ=            -18.3579
   XY=              0.0002   XZ=              0.0000   YZ=              0.0000

 Normal termination of Gaussian 16 at Tue Nov 19 11:50:28 2024.
