 Gaussian 16, Revision A.03,
 Gaussian 16:  ES64L-G16RevA.03 25-Dec-2016

 --------------------------------------------
 #p opt UM062X/6-311+G** nosymm int=superfine
 --------------------------------------------

 -------------------
 Title Card Required
 -------------------
 Symbolic Z-matrix:
 Charge =  0 Multiplicity = 1

 SCF Done:  E(UM062X) =  -114.403402304     A.U. after   11 cycles
 SCF Done:  E(UM062X) =  -114.405336354     A.U. after    9 cycles
 SCF Done:  E(UM062X) =  -114.405654092     A.U. after    9 cycles
 SCF Done:  E(UM062X) =  -114.405655465     A.U. after    8 cycles
 SCF Done:  E(UM062X) =  -114.405628494     A.U. after    9 cycles
 SCF Done:  E(UM062X) =  -114.405654408     A.U. after    9 cycles
 SCF Done:  E(UM062X) =  -114.405654012     A.U. after    9 cycles
 SCF Done:  E(UM062X) =  -114.405655477     A.U. after    8 cycles
 Optimization completed.
    -- Stationary point found.

                          Input orientation:
 ---------------------------------------------------------------------
 Center     Atomic      Atomic             Coordinates (Angstroms)
 Number     Number       Type             X           Y           Z
 ---------------------------------------------------------------------
      1          6           0       -0.748311    0.000000    0.000000
      2          8           0        0.748311    0.000000    0.000000
      3          1           0       -1.243495   -0.964913    0.000636
      4          1           0       -1.243498    0.964912    0.000633
 ---------------------------------------------------------------------

 Alpha  occ. eigenvalues --  -19.66403 -10.68084  -1.06836  -0.77201  -0.57457
 Alpha  occ. eigenvalues --   -0.48414  -0.39922  -0.36540
 Alpha virt. eigenvalues --   -0.07679   0.01425   0.04176   0.04331   0.06664
 Alpha virt. eigenvalues --    0.14345   0.19736   0.19768   0.21339   0.24175
 Alpha virt. eigenvalues --    0.26437   0.32989   0.43042   0.48978   0.54797

  Beta  occ. eigenvalues --  -19.66403 -10.68084  -1.06836  -0.77201  -0.57457
  Beta  occ. eigenvalues --   -0.48414  -0.39922  -0.36540
  Beta virt. eigenvalues --   -0.07679   0.01425   0.04176   0.04331   0.06664
  Beta virt. eigenvalues --    0.14345   0.19736   0.19768   0.21339   0.24175
  Beta virt. eigenvalues --    0.26437   0.32989   0.43042   0.48978   0.54797

 Mulliken charges and spin densities:
               1          2
     1  C   -0.062819  -0.000000
     2  O   -0.301576   0.000000
     3  H    0.182197   0.000000
     4  H    0.182197  -0.000000
 Sum of Mulliken charges =  -0.00000   0.00000

 Dipole moment (field-independent basis, Debye):
    X=             -3.5893    Y=             -0.0000    Z=              0.0010  Tot=              3.5893
 Quadrupole moment (field-independent basis, Debye-Ang):
   XX=            -11.3624   YY=            -11.3636   ZZ=            -12.5321
   XY=             -0.0000   XZ=             -0.0009   YZ=             -0.0000

 Normal termination of Gaussian 16 at Mon Apr 21 18:47:20 2025.
