 Gaussian 16, Revision A.03,
 Gaussian 16:  ES64L-G16RevA.03 25-Dec-2016

 --------------------------------------------
 #p opt UM062X/6-311+G** nosymm int=superfine
 --------------------------------------------

 -------------------
 Title Card Required
 -------------------
 Symbolic Z-matrix:
 Charge =  0 Multiplicity = 1

 SCF Done:  E(UM062X) =  -83.1214798299     A.U. after   10 cycles
 SCF Done:  E(UM062X) =  -83.1372090677     A.U. after    9 cycles
 SCF Done:  E(UM062X) =  -83.1407345952     A.U. after    9 cycles
 SCF Done:  E(UM062X) =  -83.1407610286     A.U. after    7 cycles
 Optimization completed.
    -- Stationary point found.

                          Input orientation:
 ---------------------------------------------------------------------
 Center     Atomic      Atomic             Coordinates (Angstroms)
 Number     Number       Type             X           Y           Z
 ---------------------------------------------------------------------
      1          5           0       -1.952429    0.000000    0.000000
      2          7           0        1.952429    0.000000    0.000000
      3          1           0        2.316842   -0.945156    0.000003
      4          1           0       -1.964389   -0.593921    1.028671
      5          1           0        2.316740    0.472626   -0.818551
      6          1           0        2.316727    0.472626    0.818557
      7          1           0       -1.964398    1.187814    0.000013
      8          1           0       -1.964406   -0.593902   -1.028682
 ---------------------------------------------------------------------

 Alpha  occ. eigenvalues --  -14.72872  -7.04260  -0.96144  -0.57493  -0.53973
 Alpha  occ. eigenvalues --   -0.53973  -0.39912  -0.39912  -0.34236
 Alpha virt. eigenvalues --   -0.02103   0.02580   0.04776   0.04776   0.05085
 Alpha virt. eigenvalues --    0.08520   0.10713   0.10713   0.17323   0.17941
 Alpha virt. eigenvalues --    0.17941   0.19161   0.19161   0.22533   0.27316

  Beta  occ. eigenvalues --  -14.72872  -7.04260  -0.96144  -0.57493  -0.53973
  Beta  occ. eigenvalues --   -0.53973  -0.39912  -0.39912  -0.34236
  Beta virt. eigenvalues --   -0.02103   0.02580   0.04776   0.04776   0.05085
  Beta virt. eigenvalues --    0.08520   0.10713   0.10713   0.17323   0.17941
  Beta virt. eigenvalues --    0.17941   0.19161   0.19161   0.22533   0.27316

 Mulliken charges and spin densities:
               1          2
     1  B    0.019747   0.000000
     2  N   -0.730319  -0.000000
     3  H    0.245155  -0.000000
     4  H   -0.008300  -0.000000
     5  H    0.245156   0.000000
     6  H    0.245157   0.000000
     7  H   -0.008296  -0.000000
     8  H   -0.008301  -0.000000
 Sum of Mulliken charges =  -0.00000  -0.00000

 Dipole moment (field-independent basis, Debye):
    X=              1.9411    Y=              0.0001    Z=              0.0000  Tot=              1.9411
 Quadrupole moment (field-independent basis, Debye-Ang):
   XX=             -9.9661   YY=            -15.6433   ZZ=            -15.6434
   XY=              0.0001   XZ=             -0.0000   YZ=              0.0000

 Normal termination of Gaussian 16 at Mon Apr 21 17:39:43 2025.
