 Gaussian 16, Revision A.03,
 Gaussian 16:  ES64L-G16RevA.03 25-Dec-2016

 --------------------------------------------
 #p opt UM062X/6-311+G** nosymm int=superfine
 --------------------------------------------

 -------------------
 Title Card Required
 -------------------
 Symbolic Z-matrix:
 Charge =  0 Multiplicity = 1

 SCF Done:  E(UM062X) =  -94.2572704740     A.U. after   14 cycles
 SCF Done:  E(UM062X) =  -94.2608504944     A.U. after   17 cycles
 SCF Done:  E(UM062X) =  -94.2632281022     A.U. after   15 cycles
 SCF Done:  E(UM062X) =  -94.2638947126     A.U. after   16 cycles
 SCF Done:  E(UM062X) =  -94.2651755290     A.U. after   17 cycles
 SCF Done:  E(UM062X) =  -94.2654341194     A.U. after   16 cycles
 SCF Done:  E(UM062X) =  -94.2654025142     A.U. after   17 cycles
 SCF Done:  E(UM062X) =  -94.2654419561     A.U. after   21 cycles
 SCF Done:  E(UM062X) =  -94.2654429648     A.U. after   14 cycles
 SCF Done:  E(UM062X) =  -94.2654434920     A.U. after   17 cycles
 SCF Done:  E(UM062X) =  -94.2654452553     A.U. after   14 cycles
 SCF Done:  E(UM062X) =  -94.2654473098     A.U. after   19 cycles
 SCF Done:  E(UM062X) =  -94.2654480821     A.U. after   14 cycles
 Optimization completed.
    -- Stationary point found.

                          Input orientation:
 ---------------------------------------------------------------------
 Center     Atomic      Atomic             Coordinates (Angstroms)
 Number     Number       Type             X           Y           Z
 ---------------------------------------------------------------------
      1          6           0       -1.581637    0.000000    0.000000
      2          7           0        1.581637    0.000000    0.000000
      3          1           0       -2.428142   -0.710344    0.000698
      4          1           0        1.255141   -0.982918   -0.000221
      5          1           0       -2.056753    0.996424   -0.000134
 ---------------------------------------------------------------------

 Alpha  occ. eigenvalues --  -14.80470 -10.63594  -0.86806  -0.77793  -0.50282
 Alpha  occ. eigenvalues --   -0.43697  -0.33825  -0.31148
 Alpha virt. eigenvalues --   -0.10218  -0.09726   0.01471   0.05419   0.07003
 Alpha virt. eigenvalues --    0.07756   0.12577   0.14223   0.16294   0.17836
 Alpha virt. eigenvalues --    0.18317   0.19593   0.25485   0.43185   0.46379

  Beta  occ. eigenvalues --  -14.80470 -10.63594  -0.86806  -0.77793  -0.50282
  Beta  occ. eigenvalues --   -0.43697  -0.33825  -0.31148
  Beta virt. eigenvalues --   -0.10218  -0.09726   0.01471   0.05419   0.07003
  Beta virt. eigenvalues --    0.07756   0.12577   0.14223   0.16294   0.17836
  Beta virt. eigenvalues --    0.18317   0.19593   0.25485   0.43185   0.46379

 Mulliken charges and spin densities:
               1          2
     1  C   -0.301060  -0.000000
     2  N   -0.208852   0.000000
     3  H    0.153757   0.000000
     4  H    0.203107  -0.000000
     5  H    0.153048  -0.000000
 Sum of Mulliken charges =   0.00000   0.00000

 Dipole moment (field-independent basis, Debye):
    X=             -3.3127    Y=             -1.1736    Z=              0.0005  Tot=              3.5144
 Quadrupole moment (field-independent basis, Debye-Ang):
   XX=             -9.3507   YY=            -12.7385   ZZ=            -14.9603
   XY=             -3.0922   XZ=             -0.0005   YZ=              0.0005

 Normal termination of Gaussian 16 at Mon Apr 21 18:27:42 2025.
