 Gaussian 16, Revision A.03,
 Gaussian 16:  ES64L-G16RevA.03 25-Dec-2016

 --------------------------------------------
 #p opt UM062X/6-311+G** nosymm int=superfine
 --------------------------------------------

 -------------------
 Title Card Required
 -------------------
 Symbolic Z-matrix:
 Charge =  0 Multiplicity = 1

 SCF Done:  E(UM062X) =  -95.8004149802     A.U. after   11 cycles
 SCF Done:  E(UM062X) =  -95.8054635490     A.U. after   10 cycles
 SCF Done:  E(UM062X) =  -95.8057070372     A.U. after   10 cycles
 SCF Done:  E(UM062X) =  -95.8057090027     A.U. after    8 cycles
 Optimization completed.
    -- Stationary point found.

                          Input orientation:
 ---------------------------------------------------------------------
 Center     Atomic      Atomic             Coordinates (Angstroms)
 Number     Number       Type             X           Y           Z
 ---------------------------------------------------------------------
      1          6           0       -0.880542    0.000000    0.000000
      2          7           0        0.880542    0.000000    0.000000
      3          1           0        1.112509   -0.987790    0.079756
      4          1           0       -1.156657    1.049018   -0.010760
      5          1           0        1.112475    0.405172    0.904399
      6          1           0       -1.156665   -0.495104   -0.924891
      7          1           0       -1.254165   -0.520016    0.878391
 ---------------------------------------------------------------------

 Alpha  occ. eigenvalues --  -14.73706 -10.57051  -0.93512  -0.76407  -0.53838
 Alpha  occ. eigenvalues --   -0.49262  -0.46032  -0.41875  -0.32308
 Alpha virt. eigenvalues --    0.01439   0.03031   0.05145   0.05942   0.10956
 Alpha virt. eigenvalues --    0.13859   0.14684   0.16340   0.17272   0.19015
 Alpha virt. eigenvalues --    0.21744   0.22380   0.22992   0.30305   0.42550

  Beta  occ. eigenvalues --  -14.73706 -10.57051  -0.93512  -0.76407  -0.53838
  Beta  occ. eigenvalues --   -0.49262  -0.46032  -0.41875  -0.32308
  Beta virt. eigenvalues --    0.01439   0.03031   0.05145   0.05942   0.10956
  Beta virt. eigenvalues --    0.13859   0.14684   0.16340   0.17272   0.19015
  Beta virt. eigenvalues --    0.21744   0.22380   0.22992   0.30305   0.42550

 Mulliken charges and spin densities:
               1          2
     1  C   -0.415438   0.000000
     2  N   -0.553077   0.000000
     3  H    0.237805  -0.000000
     4  H    0.168622  -0.000000
     5  H    0.237801  -0.000000
     6  H    0.168622  -0.000000
     7  H    0.155665  -0.000000
 Sum of Mulliken charges =  -0.00000   0.00000

 Dipole moment (field-independent basis, Debye):
    X=             -1.1701    Y=             -0.8202    Z=              1.3855  Tot=              1.9903
 Quadrupole moment (field-independent basis, Debye-Ang):
   XX=            -14.8774   YY=            -13.2837   ZZ=            -14.2960
   XY=             -1.2356   XZ=              2.0870   YZ=              0.9226

 Normal termination of Gaussian 16 at Mon Apr 21 18:09:57 2025.
