 Gaussian 16, Revision A.03,
 Gaussian 16:  ES64L-G16RevA.03 25-Dec-2016

 --------------------------------------------
 #p opt UM062X/6-311+G** nosymm int=superfine
 --------------------------------------------

 -------------------
 Title Card Required
 -------------------
 Symbolic Z-matrix:
 Charge =  0 Multiplicity = 1

 SCF Done:  E(UM062X) =  -683.816733478     A.U. after    9 cycles
 SCF Done:  E(UM062X) =  -683.817083520     A.U. after    8 cycles
 SCF Done:  E(UM062X) =  -683.817111612     A.U. after    7 cycles
 Optimization completed.
    -- Stationary point found.

                          Input orientation:
 ---------------------------------------------------------------------
 Center     Atomic      Atomic             Coordinates (Angstroms)
 Number     Number       Type             X           Y           Z
 ---------------------------------------------------------------------
      1         15           0       -1.159490    0.000000    0.000000
      2         15           0        1.159490    0.000000    0.000000
      3          1           0       -1.201540   -1.419909    0.000000
      4          1           0        1.201540    1.419909    0.000000
 ---------------------------------------------------------------------

 Alpha  occ. eigenvalues --  -78.05920 -78.05920  -6.88109  -6.88104  -4.99611
 Alpha  occ. eigenvalues --   -4.99609  -4.99524  -4.99514  -4.99367  -4.99360
 Alpha  occ. eigenvalues --   -0.73977  -0.63635  -0.41622  -0.40308  -0.31949
 Alpha  occ. eigenvalues --   -0.29678
 Alpha virt. eigenvalues --   -0.10547  -0.00597   0.01792   0.03507   0.04317
 Alpha virt. eigenvalues --    0.04748   0.04821   0.06427   0.06973   0.08380
 Alpha virt. eigenvalues --    0.10849   0.13045   0.27025   0.29342   0.31495

  Beta  occ. eigenvalues --  -78.05920 -78.05920  -6.88109  -6.88104  -4.99611
  Beta  occ. eigenvalues --   -4.99609  -4.99524  -4.99514  -4.99367  -4.99360
  Beta  occ. eigenvalues --   -0.73977  -0.63635  -0.41622  -0.40308  -0.31949
  Beta  occ. eigenvalues --   -0.29678
  Beta virt. eigenvalues --   -0.10547  -0.00597   0.01792   0.03507   0.04317
  Beta virt. eigenvalues --    0.04748   0.04821   0.06427   0.06973   0.08380
  Beta virt. eigenvalues --    0.10849   0.13045   0.27025   0.29342   0.31495

 Mulliken charges and spin densities:
               1          2
     1  P    0.014432   0.000000
     2  P    0.014432  -0.000000
     3  H   -0.014432   0.000000
     4  H   -0.014432   0.000000
 Sum of Mulliken charges =  -0.00000  -0.00000

 Dipole moment (field-independent basis, Debye):
    X=             -0.0000    Y=              0.0000    Z=              0.0000  Tot=              0.0000
 Quadrupole moment (field-independent basis, Debye-Ang):
   XX=            -28.9783   YY=            -27.5769   ZZ=            -29.2276
   XY=              2.5797   XZ=             -0.0000   YZ=             -0.0000

 Normal termination of Gaussian 16 at Mon Apr 21 21:01:28 2025.
