 Gaussian 16, Revision A.03,
 Gaussian 16:  ES64L-G16RevA.03 25-Dec-2016

 --------------------------------------------
 #p opt UM062X/6-311+G** nosymm int=superfine
 --------------------------------------------

 -------------------
 Title Card Required
 -------------------
 Symbolic Z-matrix:
 Charge =  0 Multiplicity = 1

 SCF Done:  E(UM062X) =  -438.574999251     A.U. after   11 cycles
 SCF Done:  E(UM062X) =  -438.584280196     A.U. after   10 cycles
 SCF Done:  E(UM062X) =  -438.586797994     A.U. after   10 cycles
 SCF Done:  E(UM062X) =  -438.586814247     A.U. after    8 cycles
 SCF Done:  E(UM062X) =  -438.586821942     A.U. after    9 cycles
 SCF Done:  E(UM062X) =  -438.586822851     A.U. after    8 cycles
 Optimization completed.
    -- Stationary point found.

                          Input orientation:
 ---------------------------------------------------------------------
 Center     Atomic      Atomic             Coordinates (Angstroms)
 Number     Number       Type             X           Y           Z
 ---------------------------------------------------------------------
      1          6           0       -1.360220    0.000000    0.000000
      2         16           0        1.360220    0.000000    0.000000
      3          1           0        1.344603   -1.343763   -0.000744
      4          1           0       -1.482574    1.074038    0.002710
      5          1           0       -1.509494   -0.527281   -0.931715
      6          1           0       -1.509557   -0.531945    0.929053
 ---------------------------------------------------------------------

 Alpha  occ. eigenvalues --  -89.89118 -10.62149  -8.25347  -6.17418  -6.17312
 Alpha  occ. eigenvalues --   -6.16786  -0.81414  -0.76418  -0.52593  -0.52503
 Alpha  occ. eigenvalues --   -0.43310  -0.32042  -0.29197
 Alpha virt. eigenvalues --   -0.08996   0.01871   0.04314   0.05144   0.05576
 Alpha virt. eigenvalues --    0.07621   0.07774   0.08537   0.11272   0.13538
 Alpha virt. eigenvalues --    0.17154   0.17893   0.23154   0.32888   0.36295

  Beta  occ. eigenvalues --  -89.89118 -10.62149  -8.25347  -6.17418  -6.17312
  Beta  occ. eigenvalues --   -6.16786  -0.81414  -0.76418  -0.52593  -0.52503
  Beta  occ. eigenvalues --   -0.43310  -0.32042  -0.29197
  Beta virt. eigenvalues --   -0.08996   0.01871   0.04314   0.05144   0.05576
  Beta virt. eigenvalues --    0.07621   0.07774   0.08537   0.11272   0.13538
  Beta virt. eigenvalues --    0.17154   0.17893   0.23154   0.32888   0.36295

 Mulliken charges and spin densities:
               1          2
     1  C   -0.475950   0.000000
     2  S   -0.198175  -0.000000
     3  H    0.059796   0.000000
     4  H    0.205036   0.000000
     5  H    0.204674  -0.000000
     6  H    0.204619   0.000000
 Sum of Mulliken charges =  -0.00000   0.00000

 Dipole moment (field-independent basis, Debye):
    X=             -2.9248    Y=             -0.9327    Z=             -0.0005  Tot=              3.0699
 Quadrupole moment (field-independent basis, Debye-Ang):
   XX=            -20.9025   YY=            -19.3874   ZZ=            -23.3973
   XY=             -1.5356   XZ=             -0.0009   YZ=              0.0022

 Normal termination of Gaussian 16 at Mon Apr 21 19:32:56 2025.
