 Gaussian 16, Revision A.03,
 Gaussian 16:  ES64L-G16RevA.03 25-Dec-2016

 --------------------------------------------
 #p opt UM062X/6-311+G** nosymm int=superfine
 --------------------------------------------

 -------------------
 Title Card Required
 -------------------
 Symbolic Z-matrix:
 Charge =  0 Multiplicity = 1

 SCF Done:  E(UM062X) =  -92.8630288435     A.U. after   13 cycles
 SCF Done:  E(UM062X) =  -92.8649733824     A.U. after   11 cycles
 SCF Done:  E(UM062X) =  -92.8649843421     A.U. after    8 cycles
 Optimization completed.
    -- Stationary point found.

                          Input orientation:
 ---------------------------------------------------------------------
 Center     Atomic      Atomic             Coordinates (Angstroms)
 Number     Number       Type             X           Y           Z
 ---------------------------------------------------------------------
      1          6           0       -1.397395    0.000000    0.000000
      2          7           0        1.397395    0.000000    0.000000
      3          1           0       -2.522604   -0.000000    0.000000
 ---------------------------------------------------------------------

 Alpha  occ. eigenvalues --  -14.84104 -10.75466  -0.79624  -0.77819  -0.44501
 Alpha  occ. eigenvalues --   -0.28321  -0.28321
 Alpha virt. eigenvalues --   -0.16566  -0.16566  -0.08859   0.00498   0.06968
 Alpha virt. eigenvalues --    0.06968   0.07343   0.13133   0.17115   0.17115
 Alpha virt. eigenvalues --    0.17427   0.25327   0.43355   0.52639   0.52639

  Beta  occ. eigenvalues --  -14.84104 -10.75466  -0.79624  -0.77819  -0.44501
  Beta  occ. eigenvalues --   -0.28321  -0.28321
  Beta virt. eigenvalues --   -0.16566  -0.16566  -0.08859   0.00498   0.06968
  Beta virt. eigenvalues --    0.06968   0.07343   0.13133   0.17115   0.17115
  Beta virt. eigenvalues --    0.17427   0.25327   0.43355   0.52639   0.52639

 Mulliken charges and spin densities:
               1          2
     1  C    0.001192   0.000000
     2  N   -0.187315  -0.000000
     3  H    0.186122  -0.000000
 Sum of Mulliken charges =  -0.00000   0.00000

 Dipole moment (field-independent basis, Debye):
    X=             -4.7004    Y=             -0.0000    Z=              0.0000  Tot=              4.7004
 Quadrupole moment (field-independent basis, Debye-Ang):
   XX=             -5.5559   YY=            -14.3054   ZZ=            -14.3054
   XY=              0.0000   XZ=             -0.0000   YZ=              0.0000

 Normal termination of Gaussian 16 at Mon Apr 21 18:39:19 2025.
