 Gaussian 16, Revision A.03,
 Gaussian 16:  ES64L-G16RevA.03 25-Dec-2016

 --------------------------------------------
 #p opt UM062X/6-311+G** nosymm int=superfine
 --------------------------------------------

 -------------------
 Title Card Required
 -------------------
 Symbolic Z-matrix:
 Charge =  0 Multiplicity = 1

 SCF Done:  E(UM062X) =  -95.6448998218     A.U. after   13 cycles
 SCF Done:  E(UM062X) =  -95.6622759589     A.U. after   11 cycles
 SCF Done:  E(UM062X) =  -95.6720351863     A.U. after   12 cycles
 SCF Done:  E(UM062X) =  -95.6721849455     A.U. after   10 cycles
 SCF Done:  E(UM062X) =  -95.6722134801     A.U. after    9 cycles
 SCF Done:  E(UM062X) =  -95.6722269309     A.U. after   10 cycles
 SCF Done:  E(UM062X) =  -95.6722293354     A.U. after   11 cycles
 SCF Done:  E(UM062X) =  -95.6722301806     A.U. after    8 cycles
 Optimization completed.
    -- Stationary point found.

                          Input orientation:
 ---------------------------------------------------------------------
 Center     Atomic      Atomic             Coordinates (Angstroms)
 Number     Number       Type             X           Y           Z
 ---------------------------------------------------------------------
      1          6           0       -1.380542    0.000000    0.000000
      2          7           0        1.380542    0.000000    0.000000
      3          1           0        1.386456   -1.015878    0.137660
      4          1           0       -1.456209    1.077619    0.003587
      5          1           0        1.386367    0.367898    0.956876
      6          1           0       -1.456194   -0.519500   -0.944138
      7          1           0       -1.560365   -0.543998    0.916747
 ---------------------------------------------------------------------

 Alpha  occ. eigenvalues --  -14.75139 -10.60970  -0.90348  -0.79620  -0.51746
 Alpha  occ. eigenvalues --   -0.51742  -0.50477  -0.36045  -0.28459
 Alpha virt. eigenvalues --   -0.09219   0.01651   0.04914   0.05444   0.06778
 Alpha virt. eigenvalues --    0.10358   0.13384   0.15982   0.16669   0.17630
 Alpha virt. eigenvalues --    0.19857   0.21607   0.22225   0.31140   0.41395

  Beta  occ. eigenvalues --  -14.75139 -10.60970  -0.90348  -0.79620  -0.51746
  Beta  occ. eigenvalues --   -0.51742  -0.50477  -0.36045  -0.28459
  Beta virt. eigenvalues --   -0.09219   0.01651   0.04914   0.05444   0.06778
  Beta virt. eigenvalues --    0.10358   0.13384   0.15982   0.16669   0.17630
  Beta virt. eigenvalues --    0.19857   0.21607   0.22225   0.31140   0.41395

 Mulliken charges and spin densities:
               1          2
     1  C   -0.427571  -0.000000
     2  N   -0.596114   0.000000
     3  H    0.223982  -0.000000
     4  H    0.197271   0.000000
     5  H    0.223978  -0.000000
     6  H    0.197301   0.000000
     7  H    0.181153   0.000000
 Sum of Mulliken charges =  -0.00000  -0.00000

 Dipole moment (field-independent basis, Debye):
    X=             -2.5055    Y=             -0.9543    Z=              1.6120  Tot=              3.1284
 Quadrupole moment (field-independent basis, Debye-Ang):
   XX=            -15.2197   YY=            -13.3313   ZZ=            -14.1438
   XY=             -1.5025   XZ=              2.5378   YZ=              0.7407

 Normal termination of Gaussian 16 at Mon Apr 21 18:13:18 2025.
