 Gaussian 16, Revision A.03,
 Gaussian 16:  ES64L-G16RevA.03 25-Dec-2016

 ---------------------------------------------------
 #p UM062X/6-311+G** force int=superfine pop=saveNBO
 ---------------------------------------------------

 -------------------
 Title Card Required
 -------------------
 Symbolic Z-matrix:
 Charge =  0 Multiplicity = 1

                         Standard orientation:
 ---------------------------------------------------------------------
 Center     Atomic      Atomic             Coordinates (Angstroms)
 Number     Number       Type             X           Y           Z
 ---------------------------------------------------------------------
      1          8           0        0.000000    0.000000    1.568562
      2          8           0        0.000000    0.000000   -1.568562
 ---------------------------------------------------------------------

 SCF Done:  E(UM062X) =  -149.803126892     A.U. after   10 cycles

 Unable to determine electronic state:  partially filled degenerate orbitals.
 Alpha  occ. eigenvalues --  -19.82810 -19.82807  -1.10528  -1.09899  -0.48789
 Alpha  occ. eigenvalues --   -0.48436  -0.41233  -0.40159
 Alpha virt. eigenvalues --   -0.30834  -0.29529   0.09555   0.12610   0.14414
 Alpha virt. eigenvalues --    0.14457   0.19354   0.19566   0.19817   0.29175
 Alpha virt. eigenvalues --    0.99761   0.99847   1.01096   1.01425   1.02741

  Beta  occ. eigenvalues --  -19.82810 -19.82807  -1.10528  -1.09899  -0.48789
  Beta  occ. eigenvalues --   -0.48436  -0.41233  -0.40159
  Beta virt. eigenvalues --   -0.30834  -0.29529   0.09555   0.12610   0.14414
  Beta virt. eigenvalues --    0.14457   0.19354   0.19566   0.19817   0.29175
  Beta virt. eigenvalues --    0.99761   0.99847   1.01096   1.01425   1.02741

 Mulliken charges and spin densities:
               1          2
     1  O   -0.000000   0.000000
     2  O   -0.000000   0.000000
 Sum of Mulliken charges =  -0.00000   0.00000

 Dipole moment (field-independent basis, Debye):
    X=             -0.0000    Y=              0.0000    Z=             -0.0000  Tot=              0.0000
 Quadrupole moment (field-independent basis, Debye-Ang):
   XX=            -12.0310   YY=            -10.1867   ZZ=             -9.1896
   XY=              0.0000   XZ=             -0.0000   YZ=              0.0000

 Summary of Natural Population Analysis:

                                       Natural Population
                Natural  -----------------------------------------------
    Atom  No    Charge         Core      Valence    Rydberg      Total
 -----------------------------------------------------------------------
      O    1   -0.00000      1.00000     2.99907    0.00093     4.00000
      O    2   -0.00000      1.00000     2.99907    0.00093     4.00000
 =======================================================================
   * Total *   -0.00000      2.00000     5.99813    0.00187     8.00000

 Normal termination of Gaussian 16 at Mon Apr 21 19:48:46 2025.
