 Gaussian 16, Revision A.03,
 Gaussian 16:  ES64L-G16RevA.03 25-Dec-2016

 --------------------------------------------
 #p opt UM062X/6-311+G** nosymm int=superfine
 --------------------------------------------

 -------------------
 Title Card Required
 -------------------
 Symbolic Z-matrix:
 Charge =  0 Multiplicity = 1

 SCF Done:  E(UM062X) =  -114.157770970     A.U. after   15 cycles
 SCF Done:  E(UM062X) =  -114.157976604     A.U. after   10 cycles
 SCF Done:  E(UM062X) =  -114.157981775     A.U. after    9 cycles
 SCF Done:  E(UM062X) =  -114.157984056     A.U. after   13 cycles
 Optimization completed.
    -- Stationary point found.

                          Input orientation:
 ---------------------------------------------------------------------
 Center     Atomic      Atomic             Coordinates (Angstroms)
 Number     Number       Type             X           Y           Z
 ---------------------------------------------------------------------
      1          6           0       -1.123311    0.000000    0.000000
      2          8           0        1.123311    0.000000    0.000000
      3          1           0       -1.691609   -0.932048   -0.000205
      4          1           0       -1.691612    0.932046   -0.000204
 ---------------------------------------------------------------------

 Alpha  occ. eigenvalues --  -19.65195 -10.71316  -0.96692  -0.82243  -0.57485
 Alpha  occ. eigenvalues --   -0.38422  -0.34377  -0.33968
 Alpha virt. eigenvalues --   -0.14155  -0.08078   0.00520   0.04504   0.06426
 Alpha virt. eigenvalues --    0.06989   0.14466   0.16159   0.21019   0.23774
 Alpha virt. eigenvalues --    0.26670   0.32984   0.41232   0.41715   0.53633

  Beta  occ. eigenvalues --  -19.65195 -10.71316  -0.96692  -0.82243  -0.57485
  Beta  occ. eigenvalues --   -0.38422  -0.34377  -0.33968
  Beta virt. eigenvalues --   -0.14155  -0.08078   0.00520   0.04504   0.06426
  Beta virt. eigenvalues --    0.06989   0.14466   0.16159   0.21019   0.23774
  Beta virt. eigenvalues --    0.26670   0.32984   0.41232   0.41715   0.53633

 Mulliken charges and spin densities:
               1          2
     1  C   -0.126173  -0.000000
     2  O   -0.270558   0.000000
     3  H    0.198366  -0.000000
     4  H    0.198366   0.000000
 Sum of Mulliken charges =  -0.00000  -0.00000

 Dipole moment (field-independent basis, Debye):
    X=             -5.2821    Y=             -0.0000    Z=             -0.0005  Tot=              5.2821
 Quadrupole moment (field-independent basis, Debye-Ang):
   XX=             -8.7040   YY=            -12.1639   ZZ=            -12.7119
   XY=             -0.0000   XZ=             -0.0002   YZ=              0.0000

 Normal termination of Gaussian 16 at Mon Apr 21 18:49:25 2025.
