 Gaussian 16, Revision A.03,
 Gaussian 16:  ES64L-G16RevA.03 25-Dec-2016

 --------------------------------------------
 #p opt UM062X/6-311+G** nosymm int=superfine
 --------------------------------------------

 -------------------
 Title Card Required
 -------------------
 Symbolic Z-matrix:
 Charge =  1 Multiplicity = 2

 SCF Done:  E(UM062X) =  -80.1600601673     A.U. after   20 cycles
 SCF Done:  E(UM062X) =  -80.1608755243     A.U. after   10 cycles
 SCF Done:  E(UM062X) =  -80.1608780890     A.U. after    8 cycles
 Optimization completed.
    -- Stationary point found.

                          Input orientation:
 ---------------------------------------------------------------------
 Center     Atomic      Atomic             Coordinates (Angstroms)
 Number     Number       Type             X           Y           Z
 ---------------------------------------------------------------------
      1          5           0       -1.652734    0.000000    0.000000
      2          7           0        1.652734    0.000000    0.000000
      3          1           0       -2.857422   -0.000278    0.000000
      4          1           0        2.688335   -0.000017   -0.000000
 ---------------------------------------------------------------------

 Alpha  occ. eigenvalues --  -14.97132  -7.53109  -1.10059  -0.85714  -0.64137
 Alpha  occ. eigenvalues --   -0.56578  -0.56578
 Alpha virt. eigenvalues --   -0.42743  -0.34081  -0.34081  -0.14954  -0.11210
 Alpha virt. eigenvalues --   -0.09848  -0.09848  -0.06634  -0.02633   0.00602
 Alpha virt. eigenvalues --    0.00602   0.04258   0.07945   0.13250   0.13250

  Beta  occ. eigenvalues --  -14.94687  -7.54354  -0.97272  -0.89294  -0.67820
  Beta  occ. eigenvalues --   -0.58344
  Beta virt. eigenvalues --   -0.35561  -0.35561  -0.21224  -0.21224  -0.14421
  Beta virt. eigenvalues --   -0.10689  -0.09506  -0.09506  -0.07162  -0.02129
  Beta virt. eigenvalues --    0.02474   0.02474   0.05728   0.08673   0.16348

 Mulliken charges and spin densities:
               1          2
     1  B    0.739320  -0.834828
     2  N   -0.245551   2.047915
     3  H    0.222328  -0.143010
     4  H    0.283903  -0.070077
 Sum of Mulliken charges =   1.00000   1.00000

 Dipole moment (field-independent basis, Debye):
    X=             -6.1697    Y=             -0.0002    Z=             -0.0000  Tot=              6.1697
 Quadrupole moment (field-independent basis, Debye-Ang):
   XX=             13.8417   YY=            -10.2800   ZZ=            -10.2800
   XY=              0.0003   XZ=             -0.0000   YZ=             -0.0000

 Normal termination of Gaussian 16 at Mon Apr 21 17:59:02 2025.
