 Gaussian 16, Revision A.03,
 Gaussian 16:  ES64L-G16RevA.03 25-Dec-2016

 ---------------------------------------
 #p UM062X/6-311+G** force int=superfine
 ---------------------------------------

 -------------------
 Title Card Required
 -------------------
 Symbolic Z-matrix:
 Charge =  1 Multiplicity = 2

                         Standard orientation:
 ---------------------------------------------------------------------
 Center     Atomic      Atomic             Coordinates (Angstroms)
 Number     Number       Type             X           Y           Z
 ---------------------------------------------------------------------
      1          6           0       -0.697917   -0.000569    0.040109
      2          6           0        0.697918    0.000582   -0.040110
      3          1           0        1.209212    0.921804   -0.328343
      4          1           0       -1.209835    0.914674    0.345992
      5          1           0        1.209846   -0.914645   -0.346038
      6          1           0        0.867880   -0.012123    1.133387
      7          1           0       -1.209220   -0.921776    0.328393
      8          1           0       -0.867887    0.011983   -1.133387
 ---------------------------------------------------------------------

 SCF Done:  E(UM062X) =  -79.3655864567     A.U. after   11 cycles

 The electronic state is 2-A.
 Alpha  occ. eigenvalues --  -10.83258 -10.83187  -1.18978  -0.98697  -0.81746
 Alpha  occ. eigenvalues --   -0.81343  -0.76040  -0.68983  -0.65948
 Alpha virt. eigenvalues --   -0.16979  -0.13190  -0.12162  -0.12092  -0.10457
 Alpha virt. eigenvalues --   -0.07849  -0.06449  -0.05831  -0.05684  -0.02039
 Alpha virt. eigenvalues --   -0.00747   0.02945   0.03848   0.05633   0.08525

  Beta  occ. eigenvalues --  -10.83118 -10.83043  -1.16642  -0.95573  -0.80573
  Beta  occ. eigenvalues --   -0.75614  -0.74939  -0.68278
  Beta virt. eigenvalues --   -0.44174  -0.16938  -0.13159  -0.11976  -0.11917
  Beta virt. eigenvalues --   -0.10067  -0.07845  -0.06454  -0.05387  -0.03880
  Beta virt. eigenvalues --   -0.01805  -0.00453   0.03178   0.04482   0.06377

 Mulliken charges and spin densities:
               1          2
     1  C   -0.413521   0.201154
     2  C   -0.413517   0.201156
     3  H    0.284000   0.008275
     4  H    0.284248   0.008637
     5  H    0.284252   0.008648
     6  H    0.345267   0.281922
     7  H    0.284003   0.008287
     8  H    0.345267   0.281922
 Sum of Mulliken charges =   1.00000   1.00000

 Dipole moment (field-independent basis, Debye):
    X=             -0.0000    Y=             -0.0002    Z=              0.0000  Tot=              0.0002
 Quadrupole moment (field-independent basis, Debye-Ang):
   XX=             -7.8958   YY=            -10.9210   ZZ=             -9.6191
   XY=             -0.0165   XZ=              1.2444   YZ=             -0.0170

 Normal termination of Gaussian 16 at Tue Nov 19 08:42:05 2024.
