 Gaussian 16, Revision A.03,
 Gaussian 16:  ES64L-G16RevA.03 25-Dec-2016

 --------------------------------------------
 #p opt UM062X/6-311+G** nosymm int=superfine
 --------------------------------------------

 -------------------
 Title Card Required
 -------------------
 Symbolic Z-matrix:
 Charge =  0 Multiplicity = 1

 SCF Done:  E(UM062X) =  -77.2794146628     A.U. after    8 cycles
 SCF Done:  E(UM062X) =  -77.2925233079     A.U. after    9 cycles
 SCF Done:  E(UM062X) =  -77.2925705662     A.U. after    8 cycles
 Optimization completed.
    -- Stationary point found.

                          Input orientation:
 ---------------------------------------------------------------------
 Center     Atomic      Atomic             Coordinates (Angstroms)
 Number     Number       Type             X           Y           Z
 ---------------------------------------------------------------------
      1          6           0       -0.658367    0.000000    0.000000
      2          6           0        0.658367    0.000000    0.000000
      3          1           0       -1.725350   -0.000000    0.000000
      4          1           0        1.725350   -0.000000    0.000000
 ---------------------------------------------------------------------

 Alpha  occ. eigenvalues --  -10.58141 -10.58013  -0.82958  -0.66197  -0.56415
 Alpha  occ. eigenvalues --   -0.34032  -0.34032
 Alpha virt. eigenvalues --    0.02501   0.02501   0.02522   0.02534   0.07846
 Alpha virt. eigenvalues --    0.07846   0.09307   0.13164   0.13164   0.14500
 Alpha virt. eigenvalues --    0.19040   0.23999   0.36665   0.45275   0.57841

  Beta  occ. eigenvalues --  -10.58141 -10.58013  -0.82958  -0.66197  -0.56415
  Beta  occ. eigenvalues --   -0.34032  -0.34032
  Beta virt. eigenvalues --    0.02501   0.02501   0.02522   0.02534   0.07846
  Beta virt. eigenvalues --    0.07846   0.09307   0.13164   0.13164   0.14500
  Beta virt. eigenvalues --    0.19040   0.23999   0.36665   0.45275   0.57841

 Mulliken charges and spin densities:
               1          2
     1  C   -0.196197  -0.000000
     2  C   -0.196197   0.000000
     3  H    0.196197   0.000000
     4  H    0.196197   0.000000
 Sum of Mulliken charges =  -0.00000   0.00000

 Dipole moment (field-independent basis, Debye):
    X=             -0.0000    Y=             -0.0000    Z=              0.0000  Tot=              0.0000
 Quadrupole moment (field-independent basis, Debye-Ang):
   XX=             -6.4686   YY=            -14.3517   ZZ=            -14.3517
   XY=              0.0000   XZ=             -0.0000   YZ=              0.0000

 Normal termination of Gaussian 16 at Tue Dec  3 20:05:09 2024.
