 Gaussian 16, Revision A.03,
 Gaussian 16:  ES64L-G16RevA.03 25-Dec-2016

 ---------------------------------------
 #p UM062X/6-311+G** force int=superfine
 ---------------------------------------

 -------------------
 Title Card Required
 -------------------
 Symbolic Z-matrix:
 Charge =  1 Multiplicity = 2

                         Standard orientation:
 ---------------------------------------------------------------------
 Center     Atomic      Atomic             Coordinates (Angstroms)
 Number     Number       Type             X           Y           Z
 ---------------------------------------------------------------------
      1          6           0        0.000000    0.000000   -0.801532
      2          6           0        0.000000    0.000000    0.801532
      3          1           0        0.000000    0.000000   -1.894616
      4          1           0        0.000000    0.000000    1.894621
 ---------------------------------------------------------------------

 SCF Done:  E(UM062X) =  -76.7779718151     A.U. after   10 cycles

 Unable to determine electronic state:  an orbital has unidentified symmetry.
 Alpha  occ. eigenvalues --  -10.99188 -10.99143  -1.12004  -0.98912  -0.85575
 Alpha  occ. eigenvalues --   -0.64967  -0.62782
 Alpha virt. eigenvalues --   -0.34978  -0.32975  -0.24582  -0.14247  -0.10815
 Alpha virt. eigenvalues --   -0.10782  -0.09273  -0.09033  -0.05268  -0.04937
 Alpha virt. eigenvalues --    0.01680   0.03990   0.08661   0.21914   0.31424

  Beta  occ. eigenvalues --  -10.98944 -10.98912  -1.07962  -0.97184  -0.84811
  Beta  occ. eigenvalues --   -0.60714
  Beta virt. eigenvalues --   -0.41630  -0.31265  -0.27082  -0.22462  -0.15331
  Beta virt. eigenvalues --   -0.11168  -0.11085  -0.09638  -0.09448  -0.05144
  Beta virt. eigenvalues --   -0.04805   0.00889   0.04104   0.09070   0.22740

 Mulliken charges and spin densities:
               1          2
     1  C    0.145538   0.521245
     2  C    0.145539   0.521245
     3  H    0.354460  -0.021245
     4  H    0.354462  -0.021245
 Sum of Mulliken charges =   1.00000   1.00000

 Dipole moment (field-independent basis, Debye):
    X=              0.0000    Y=              0.0000    Z=              0.0000  Tot=              0.0000
 Quadrupole moment (field-independent basis, Debye-Ang):
   XX=            -10.5011   YY=            -12.5430   ZZ=              2.3526
   XY=              0.0000   XZ=              0.0000   YZ=              0.0000

 Normal termination of Gaussian 16 at Tue Nov 19 13:35:56 2024.
