 Gaussian 16, Revision A.03,
 Gaussian 16:  ES64L-G16RevA.03 25-Dec-2016

 ---------------------------------------
 #p UM062X/6-311+G** force int=superfine
 ---------------------------------------

 -------------------
 Title Card Required
 -------------------
 Symbolic Z-matrix:
 Charge =  1 Multiplicity = 2

                         Standard orientation:
 ---------------------------------------------------------------------
 Center     Atomic      Atomic             Coordinates (Angstroms)
 Number     Number       Type             X           Y           Z
 ---------------------------------------------------------------------
      1          6           0        0.203622   -0.545723    1.655317
      2          6           0       -0.203617    0.545728   -1.655315
      3          1           0        0.609736   -0.082064   -2.000728
      4          1           0        0.010363   -1.575241    1.376538
      5          1           0       -0.010681    1.575512   -1.377292
      6          1           0       -1.222358    0.176889   -1.688467
      7          1           0       -0.609597    0.082203    2.000803
      8          1           0        1.222505   -0.177334    1.689136
 ---------------------------------------------------------------------

 SCF Done:  E(UM062X) =  -79.3259933387     A.U. after   10 cycles

 The electronic state is 2-A.
 Alpha  occ. eigenvalues --  -10.84330 -10.84328  -1.02932  -1.02253  -0.73852
 Alpha  occ. eigenvalues --   -0.73852  -0.73568  -0.73567  -0.49701
 Alpha virt. eigenvalues --   -0.36904  -0.13300  -0.10216  -0.09899  -0.09899
 Alpha virt. eigenvalues --   -0.06245  -0.06245  -0.04609  -0.03214  -0.00983
 Alpha virt. eigenvalues --   -0.00981   0.01273   0.01275   0.03669   0.08113

  Beta  occ. eigenvalues --  -10.84122 -10.84122  -1.00235  -0.99783  -0.73346
  Beta  occ. eigenvalues --   -0.73346  -0.73047  -0.73046
  Beta virt. eigenvalues --   -0.32733  -0.26377  -0.15748  -0.11127  -0.11126
  Beta virt. eigenvalues --   -0.10134  -0.06309  -0.06309  -0.05023  -0.02290
  Beta virt. eigenvalues --   -0.01331  -0.01328   0.01557   0.01559   0.03983

 Mulliken charges and spin densities:
               1          2
     1  C   -0.263705   0.560511
     2  C   -0.263705   0.560511
     3  H    0.254594  -0.020162
     4  H    0.254546  -0.020172
     5  H    0.254569  -0.020171
     6  H    0.254542  -0.020178
     7  H    0.254595  -0.020162
     8  H    0.254564  -0.020177
 Sum of Mulliken charges =   1.00000   1.00000

 Dipole moment (field-independent basis, Debye):
    X=             -0.0000    Y=             -0.0001    Z=             -0.0000  Tot=              0.0001
 Quadrupole moment (field-independent basis, Debye-Ang):
   XX=            -10.8873   YY=             -9.6591   ZZ=              2.0460
   XY=             -0.5320   XZ=              1.6140   YZ=             -4.3281

 Normal termination of Gaussian 16 at Wed Nov 13 13:04:07 2024.
