 Gaussian 16, Revision A.03,
 Gaussian 16:  ES64L-G16RevA.03 25-Dec-2016

 ---------------------------------------------------------
 #p opt UM062X/6-311+G** nosymm int=superfine SCF=NoVarAcc
 ---------------------------------------------------------

 -------------------
 Title Card Required
 -------------------
 Symbolic Z-matrix:
 Charge =  0 Multiplicity = 1

 SCF Done:  E(UM062X) =  -76.9390632714     A.U. after   72 cycles
 SCF Done:  E(UM062X) =  -76.9390796868     A.U. after    8 cycles
 Optimization completed.
    -- Stationary point found.

                          Input orientation:
 ---------------------------------------------------------------------
 Center     Atomic      Atomic             Coordinates (Angstroms)
 Number     Number       Type             X           Y           Z
 ---------------------------------------------------------------------
      1          6           0       -8.432625    0.000000    0.000000
      2          6           0        8.432625    0.000000    0.000000
      3          1           0       -9.551774   -0.000006    0.000006
      4          1           0        9.551774    0.000004   -0.000004
 ---------------------------------------------------------------------

 Alpha  occ. eigenvalues --  -10.63969 -10.62997  -0.73301  -0.68743  -0.38725
 Alpha  occ. eigenvalues --   -0.35884  -0.31177
 Alpha virt. eigenvalues --   -0.09355  -0.07301  -0.04694   0.02859   0.03817
 Alpha virt. eigenvalues --    0.08271   0.08359   0.08525   0.08560   0.09139
 Alpha virt. eigenvalues --    0.10757   0.17677   0.19128   0.45381   0.46221

  Beta  occ. eigenvalues --  -10.63969 -10.62997  -0.73301  -0.68743  -0.38725
  Beta  occ. eigenvalues --   -0.35884  -0.31177
  Beta virt. eigenvalues --   -0.09355  -0.07301  -0.04694   0.02859   0.03817
  Beta virt. eigenvalues --    0.08271   0.08359   0.08525   0.08560   0.09139
  Beta virt. eigenvalues --    0.10757   0.17677   0.19128   0.45381   0.46221

 Mulliken charges and spin densities:
               1          2
     1  C   -0.118598  -1.032496
     2  C   -0.118598   1.032496
     3  H    0.118598   0.032496
     4  H    0.118598  -0.032496
 Sum of Mulliken charges =  -0.00000   0.00000

 Dipole moment (field-independent basis, Debye):
    X=              0.0000    Y=             -0.0000    Z=              0.0000  Tot=              0.0000
 Quadrupole moment (field-independent basis, Debye-Ang):
   XX=             40.9265   YY=            -13.5919   ZZ=            -13.6151
   XY=              0.0001   XZ=             -0.0001   YZ=             -2.1110

 Normal termination of Gaussian 16 at Tue Dec  3 20:23:04 2024.
