 Gaussian 16, Revision A.03,
 Gaussian 16:  ES64L-G16RevA.03 25-Dec-2016

 --------------------------------------------
 #p opt UM062X/6-311+G** nosymm int=superfine
 --------------------------------------------

 -------------------
 Title Card Required
 -------------------
 Symbolic Z-matrix:
 Charge =  0 Multiplicity = 1

 SCF Done:  E(UM062X) =  -114.144194601     A.U. after   17 cycles
 SCF Done:  E(UM062X) =  -114.144441226     A.U. after   10 cycles
 SCF Done:  E(UM062X) =  -114.144456535     A.U. after    9 cycles
 SCF Done:  E(UM062X) =  -114.144461254     A.U. after   11 cycles
 Optimization completed.
    -- Stationary point found.

                          Input orientation:
 ---------------------------------------------------------------------
 Center     Atomic      Atomic             Coordinates (Angstroms)
 Number     Number       Type             X           Y           Z
 ---------------------------------------------------------------------
      1          6           0       -1.173311    0.000000    0.000000
      2          8           0        1.173311    0.000000    0.000000
      3          1           0       -1.768731   -0.918168   -0.000183
      4          1           0       -1.768735    0.918166   -0.000183
 ---------------------------------------------------------------------

 Alpha  occ. eigenvalues --  -19.65658 -10.70160  -0.96933  -0.81795  -0.56339
 Alpha  occ. eigenvalues --   -0.37678  -0.35016  -0.34872
 Alpha virt. eigenvalues --   -0.13663  -0.08962   0.00525   0.04732   0.06554
 Alpha virt. eigenvalues --    0.07081   0.15081   0.15844   0.20609   0.23391
 Alpha virt. eigenvalues --    0.26360   0.32574   0.41492   0.42244   0.54059

  Beta  occ. eigenvalues --  -19.65658 -10.70160  -0.96933  -0.81795  -0.56339
  Beta  occ. eigenvalues --   -0.37678  -0.35016  -0.34872
  Beta virt. eigenvalues --   -0.13663  -0.08962   0.00525   0.04732   0.06554
  Beta virt. eigenvalues --    0.07081   0.15081   0.15844   0.20609   0.23391
  Beta virt. eigenvalues --    0.26360   0.32574   0.41492   0.42244   0.54059

 Mulliken charges and spin densities:
               1          2
     1  C   -0.145815  -0.000000
     2  O   -0.235099   0.000000
     3  H    0.190457   0.000000
     4  H    0.190457   0.000000
 Sum of Mulliken charges =  -0.00000   0.00000

 Dipole moment (field-independent basis, Debye):
    X=             -5.0977    Y=             -0.0000    Z=             -0.0005  Tot=              5.0977
 Quadrupole moment (field-independent basis, Debye-Ang):
   XX=             -8.3164   YY=            -12.3476   ZZ=            -12.6012
   XY=             -0.0000   XZ=             -0.0001   YZ=              0.0000

 Normal termination of Gaussian 16 at Mon Apr 21 18:48:43 2025.
