 Gaussian 16, Revision A.03,
 Gaussian 16:  ES64L-G16RevA.03 25-Dec-2016

 ---------------------------------------------------
 #p UM062X/6-311+G** force int=superfine pop=saveNBO
 ---------------------------------------------------

 -------------------
 Title Card Required
 -------------------
 Symbolic Z-matrix:
 Charge =  0 Multiplicity = 1

                         Standard orientation:
 ---------------------------------------------------------------------
 Center     Atomic      Atomic             Coordinates (Angstroms)
 Number     Number       Type             X           Y           Z
 ---------------------------------------------------------------------
      1          6           0        0.000000    0.000000   -1.698379
      2          8           0        0.000000    0.000000    1.273785
 ---------------------------------------------------------------------

 SCF Done:  E(UM062X) =  -112.767175564     A.U. after   34 cycles

 The electronic state is 1-SG.
 Alpha  occ. eigenvalues --  -19.70075 -10.77093  -1.00660  -0.68647  -0.39330
 Alpha  occ. eigenvalues --   -0.39330  -0.32560
 Alpha virt. eigenvalues --   -0.14684  -0.14684  -0.14612   0.03532   0.06642
 Alpha virt. eigenvalues --    0.06642   0.07499   0.18175   0.20938   0.20938
 Alpha virt. eigenvalues --    0.28271   0.53777   0.53777   0.55710   0.63356

  Beta  occ. eigenvalues --  -19.70075 -10.77093  -1.00660  -0.68647  -0.39330
  Beta  occ. eigenvalues --   -0.39330  -0.32560
  Beta virt. eigenvalues --   -0.14684  -0.14684  -0.14612   0.03532   0.06642
  Beta virt. eigenvalues --    0.06642   0.07499   0.18175   0.20938   0.20938
  Beta virt. eigenvalues --    0.28271   0.53777   0.53777   0.55710   0.63356

 Mulliken charges and spin densities:
               1          2
     1  C    0.189894   0.000000
     2  O   -0.189894  -0.000000
 Sum of Mulliken charges =  -0.00000  -0.00000

 Dipole moment (field-independent basis, Debye):
    X=              0.0000    Y=              0.0000    Z=             -2.7642  Tot=              2.7642
 Quadrupole moment (field-independent basis, Debye-Ang):
   XX=            -11.1735   YY=            -11.1735   ZZ=            -11.2810
   XY=              0.0000   XZ=              0.0000   YZ=              0.0000

 Summary of Natural Population Analysis:

                                       Natural Population
                Natural  -----------------------------------------------
    Atom  No    Charge         Core      Valence    Rydberg      Total
 -----------------------------------------------------------------------
      C    1    0.11731      1.00000     1.88232    0.00037     2.88269
      O    2   -0.11731      1.00000     3.11694    0.00037     4.11731
 =======================================================================
   * Total *   -0.00000      2.00000     4.99926    0.00074     7.00000

 Normal termination of Gaussian 16 at Mon Apr 21 19:31:06 2025.
