 Gaussian 16, Revision A.03,
 Gaussian 16:  ES64L-G16RevA.03 25-Dec-2016

 --------------------------------------------
 #p opt UM062X/6-311+G** nosymm int=superfine
 --------------------------------------------

 -------------------
 Title Card Required
 -------------------
 Symbolic Z-matrix:
 Charge =  0 Multiplicity = 4

 SCF Done:  E(UM062X) =  -38.4425322279     A.U. after   10 cycles
 SCF Done:  E(UM062X) =  -38.4427665664     A.U. after    9 cycles
 Optimization completed.
    -- Stationary point found.

                          Input orientation:
 ---------------------------------------------------------------------
 Center     Atomic      Atomic             Coordinates (Angstroms)
 Number     Number       Type             X           Y           Z
 ---------------------------------------------------------------------
      1          6           0       -0.755836    0.000000    0.000000
      2          1           0       -1.848357    0.000000    0.000000
 ---------------------------------------------------------------------

 Alpha  occ. eigenvalues --  -10.60723  -0.75578  -0.45517  -0.32175  -0.32175
 Alpha virt. eigenvalues --    0.04722   0.07435   0.08395   0.08395   0.18084
 Alpha virt. eigenvalues --    0.45640   0.56533   0.56533   0.59256   0.69059
 Alpha virt. eigenvalues --    1.10999   1.10999   1.32504   1.32504   1.56910

  Beta  occ. eigenvalues --  -10.57667  -0.62260
  Beta virt. eigenvalues --   -0.16577  -0.04438  -0.04438   0.04108   0.12837
  Beta virt. eigenvalues --    0.15480   0.15480   0.18252   0.39154   0.52821
  Beta virt. eigenvalues --    0.53698   0.53698   0.74914   1.25102   1.25102

 Mulliken charges and spin densities:
               1          2
     1  C   -0.207758   2.907239
     2  H    0.207758   0.092761
 Sum of Mulliken charges =   0.00000   3.00000

 Dipole moment (field-independent basis, Debye):
    X=             -0.7765    Y=              0.0000    Z=             -0.0000  Tot=              0.7765
 Quadrupole moment (field-independent basis, Debye-Ang):
   XX=             -4.0519   YY=             -7.5496   ZZ=             -7.5496
   XY=             -0.0000   XZ=              0.0000   YZ=             -0.0000

 1\1\GINC-NODE02\FOpt\UM062X\6-311+G(d,p)\C1H1(4)\SZHAO\16-Apr-2025\0\\
 #p opt UM062X/6-311+G** nosymm int=superfine\\Title Card Required\\0,4
 \C,-0.7558362132,0.,0.\H,-1.8483567868,0.,0.\\Version=ES64L-G16RevA.03
 \HF=-38.4427666\S2=3.752177\S2-1=0.\S2A=3.75\RMSD=3.373e-09\RMSF=2.247
 e-05\Dipole=-0.3054972,0.,0.\Quadrupole=1.7336258,-0.8668129,-0.866812
 9,0.,0.,0.\PG=C*V [C*(H1C1)]\\@

 Normal termination of Gaussian 16 at Wed Apr 16 08:38:33 2025.
