 Gaussian 16, Revision A.03,
 Gaussian 16:  ES64L-G16RevA.03 25-Dec-2016

 --------------------------------------------
 #p opt UM062X/6-311+G** nosymm int=superfine
 --------------------------------------------

 -------------------
 Title Card Required
 -------------------
 Symbolic Z-matrix:
 Charge =  0 Multiplicity = 1

 SCF Done:  E(UM062X) =  -76.8832781408     A.U. after   15 cycles
 SCF Done:  E(UM062X) =  -76.8841236032     A.U. after   14 cycles
 SCF Done:  E(UM062X) =  -76.8854124592     A.U. after   16 cycles
 SCF Done:  E(UM062X) =  -76.8857932321     A.U. after   21 cycles
 SCF Done:  E(UM062X) =  -76.8859256389     A.U. after   15 cycles
 SCF Done:  E(UM062X) =  -76.8859382958     A.U. after   15 cycles
 SCF Done:  E(UM062X) =  -76.8859384023     A.U. after   16 cycles
 SCF Done:  E(UM062X) =  -76.8859384097     A.U. after   11 cycles
 Optimization completed.
    -- Stationary point found.

                          Input orientation:
 ---------------------------------------------------------------------
 Center     Atomic      Atomic             Coordinates (Angstroms)
 Number     Number       Type             X           Y           Z
 ---------------------------------------------------------------------
      1          6           0       -1.732625    0.000000    0.000000
      2          6           0        1.732625    0.000000    0.000000
      3          1           0       -1.580475   -0.655870    0.892156
      4          1           0        1.580425    0.656209   -0.891896
 ---------------------------------------------------------------------

 Alpha  occ. eigenvalues --  -10.67611 -10.67609  -0.72992  -0.72212  -0.39103
 Alpha  occ. eigenvalues --   -0.38756  -0.24481
 Alpha virt. eigenvalues --   -0.11746  -0.10449  -0.09272   0.03343   0.04702
 Alpha virt. eigenvalues --    0.07248   0.07377   0.09378   0.09810   0.10963
 Alpha virt. eigenvalues --    0.14123   0.18039   0.19624   0.43555   0.45255

  Beta  occ. eigenvalues --  -10.67611 -10.67609  -0.72992  -0.72212  -0.39103
  Beta  occ. eigenvalues --   -0.38756  -0.24481
  Beta virt. eigenvalues --   -0.11746  -0.10449  -0.09272   0.03343   0.04702
  Beta virt. eigenvalues --    0.07248   0.07377   0.09378   0.09810   0.10963
  Beta virt. eigenvalues --    0.14123   0.18039   0.19624   0.43555   0.45255

 Mulliken charges and spin densities:
               1          2
     1  C   -0.145291  -0.000002
     2  C   -0.145283   0.000002
     3  H    0.145286   0.000000
     4  H    0.145287  -0.000000
 Sum of Mulliken charges =  -0.00000  -0.00000

 Dipole moment (field-independent basis, Debye):
    X=             -0.0000    Y=              0.0005    Z=              0.0004  Tot=              0.0006
 Quadrupole moment (field-independent basis, Debye-Ang):
   XX=            -16.8964   YY=            -12.9093   ZZ=            -13.7068
   XY=              3.4091   XZ=             -4.6353   YZ=              1.2774

 Normal termination of Gaussian 16 at Tue Dec  3 23:33:20 2024.
