 Gaussian 16, Revision A.03,
 Gaussian 16:  ES64L-G16RevA.03 25-Dec-2016

 ---------------------------------------
 #p UM062X/6-311+G** force int=superfine
 ---------------------------------------

 -------------------
 Title Card Required
 -------------------
 Symbolic Z-matrix:
 Charge =  0 Multiplicity = 1

                         Standard orientation:
 ---------------------------------------------------------------------
 Center     Atomic      Atomic             Coordinates (Angstroms)
 Number     Number       Type             X           Y           Z
 ---------------------------------------------------------------------
      1          6           0       -0.113983   -0.291572    0.853036
      2          6           0        0.113983    0.291572   -0.853036
      3          1           0        0.332199   -0.573583   -1.473506
      4          1           0       -0.943168   -0.994089    0.856042
      5          1           0        0.943167    0.994091   -0.856043
      6          1           0       -0.808427    0.774037   -1.165250
      7          1           0       -0.332200    0.573584    1.473505
      8          1           0        0.808426   -0.774039    1.165252
 ---------------------------------------------------------------------

 SCF Done:  E(UM062X) =  -79.7712545395     A.U. after    8 cycles

 The electronic state is 1-A.
 Alpha  occ. eigenvalues --  -10.53718 -10.53703  -0.80742  -0.71608  -0.48840
 Alpha  occ. eigenvalues --   -0.48840  -0.42938  -0.42938  -0.36740
 Alpha virt. eigenvalues --    0.02258   0.03583   0.05632   0.05632   0.08610
 Alpha virt. eigenvalues --    0.08610   0.09241   0.13394   0.17548   0.18357
 Alpha virt. eigenvalues --    0.18358   0.21791   0.21791   0.24243   0.27474

  Beta  occ. eigenvalues --  -10.53718 -10.53703  -0.80742  -0.71608  -0.48840
  Beta  occ. eigenvalues --   -0.48840  -0.42938  -0.42938  -0.36740
  Beta virt. eigenvalues --    0.02258   0.03583   0.05632   0.05632   0.08610
  Beta virt. eigenvalues --    0.08610   0.09241   0.13394   0.17548   0.18357
  Beta virt. eigenvalues --    0.18358   0.21791   0.21791   0.24243   0.27474

 Mulliken charges and spin densities:
               1          2
     1  C   -0.489139  -0.000000
     2  C   -0.489139   0.000000
     3  H    0.163046  -0.000000
     4  H    0.163046   0.000000
     5  H    0.163046  -0.000000
     6  H    0.163047  -0.000000
     7  H    0.163045   0.000000
     8  H    0.163047   0.000000
 Sum of Mulliken charges =  -0.00000   0.00000

 Dipole moment (field-independent basis, Debye):
    X=             -0.0000    Y=              0.0000    Z=             -0.0000  Tot=              0.0000
 Quadrupole moment (field-independent basis, Debye-Ang):
   XX=            -14.9376   YY=            -14.9964   ZZ=            -15.5209
   XY=             -0.0271   XZ=              0.0793   YZ=              0.2030

 Normal termination of Gaussian 16 at Tue Nov 19 12:47:46 2024.
