 Gaussian 16, Revision A.03,
 Gaussian 16:  ES64L-G16RevA.03 25-Dec-2016

 --------------------------------------------
 #p opt UM062X/6-311+G** nosymm int=superfine
 --------------------------------------------

 -------------------
 Title Card Required
 -------------------
 Symbolic Z-matrix:
 Charge =  0 Multiplicity = 1

 SCF Done:  E(UM062X) =  -474.374643436     A.U. after   21 cycles
 SCF Done:  E(UM062X) =  -474.375542357     A.U. after   21 cycles
 SCF Done:  E(UM062X) =  -474.376976470     A.U. after   20 cycles
 SCF Done:  E(UM062X) =  -474.377615942     A.U. after   25 cycles
 SCF Done:  E(UM062X) =  -474.377827047     A.U. after   20 cycles
 SCF Done:  E(UM062X) =  -474.377896806     A.U. after   20 cycles
 SCF Done:  E(UM062X) =  -474.377904469     A.U. after   24 cycles
 SCF Done:  E(UM062X) =  -474.377906405     A.U. after   19 cycles
 SCF Done:  E(UM062X) =  -474.377890368     A.U. after   25 cycles
 SCF Done:  E(UM062X) =  -474.377913950     A.U. after   18 cycles
 SCF Done:  E(UM062X) =  -474.377914966     A.U. after   33 cycles
 SCF Done:  E(UM062X) =  -474.377915851     A.U. after   17 cycles
 SCF Done:  E(UM062X) =  -474.377917456     A.U. after   19 cycles
 SCF Done:  E(UM062X) =  -474.377917497     A.U. after   20 cycles
 Optimization completed.
    -- Stationary point found.

                          Input orientation:
 ---------------------------------------------------------------------
 Center     Atomic      Atomic             Coordinates (Angstroms)
 Number     Number       Type             X           Y           Z
 ---------------------------------------------------------------------
      1          8           0       -1.714392    0.000000    0.000000
      2         16           0        1.714392    0.000000    0.000000
      3          1           0       -1.684083   -0.805985   -0.539257
      4          1           0        1.482104    0.675301    1.142142
 ---------------------------------------------------------------------

 Alpha  occ. eigenvalues --  -89.97851 -19.67272  -8.34005  -6.26217  -6.25850
 Alpha  occ. eigenvalues --   -6.25283  -1.08451  -0.83839  -0.52536  -0.49700
 Alpha  occ. eigenvalues --   -0.39764  -0.35742  -0.34213
 Alpha virt. eigenvalues --   -0.22330   0.01594   0.03885   0.04685   0.05431
 Alpha virt. eigenvalues --    0.06896   0.13482   0.19273   0.19874   0.21159
 Alpha virt. eigenvalues --    0.25358   0.30820   0.33963   0.34454   0.39117

  Beta  occ. eigenvalues --  -89.97851 -19.67272  -8.34005  -6.26217  -6.25850
  Beta  occ. eigenvalues --   -6.25283  -1.08451  -0.83839  -0.52536  -0.49700
  Beta  occ. eigenvalues --   -0.39764  -0.35742  -0.34213
  Beta virt. eigenvalues --   -0.22330   0.01594   0.03885   0.04685   0.05431
  Beta virt. eigenvalues --    0.06896   0.13482   0.19273   0.19874   0.21159
  Beta virt. eigenvalues --    0.25358   0.30820   0.33963   0.34454   0.39117

 Mulliken charges and spin densities:
               1          2
     1  O   -0.395485   0.000000
     2  S    0.039304  -0.000000
     3  H    0.245935  -0.000000
     4  H    0.110247   0.000000
 Sum of Mulliken charges =   0.00000  -0.00000

 Dipole moment (field-independent basis, Debye):
    X=              2.2878    Y=             -0.8513    Z=              0.0541  Tot=              2.4417
 Quadrupole moment (field-independent basis, Debye-Ang):
   XX=            -18.4304   YY=            -19.9365   ZZ=            -18.9012
   XY=              3.5919   XZ=              3.4347   YZ=              2.9594

 Normal termination of Gaussian 16 at Thu May 15 13:18:16 2025.
