 Gaussian 16, Revision A.03,
 Gaussian 16:  ES64L-G16RevA.03 25-Dec-2016

 --------------------------------------------
 #p opt UM062X/6-311+G** nosymm int=superfine
 --------------------------------------------

 -------------------
 Title Card Required
 -------------------
 Symbolic Z-matrix:
 Charge =  0 Multiplicity = 1

 SCF Done:  E(UM062X) =  -438.528853131     A.U. after   12 cycles
 SCF Done:  E(UM062X) =  -438.541102423     A.U. after   11 cycles
 SCF Done:  E(UM062X) =  -438.545587688     A.U. after   11 cycles
 SCF Done:  E(UM062X) =  -438.545628015     A.U. after    9 cycles
 SCF Done:  E(UM062X) =  -438.545644013     A.U. after    9 cycles
 SCF Done:  E(UM062X) =  -438.545651546     A.U. after    9 cycles
 SCF Done:  E(UM062X) =  -438.545652994     A.U. after   11 cycles
 SCF Done:  E(UM062X) =  -438.545653428     A.U. after    8 cycles
 SCF Done:  E(UM062X) =  -438.545653540     A.U. after    8 cycles
 Optimization completed.
    -- Stationary point found.

                          Input orientation:
 ---------------------------------------------------------------------
 Center     Atomic      Atomic             Coordinates (Angstroms)
 Number     Number       Type             X           Y           Z
 ---------------------------------------------------------------------
      1          6           0       -1.585220    0.000000    0.000000
      2         16           0        1.585220    0.000000    0.000000
      3          1           0        1.547148   -1.343849   -0.001275
      4          1           0       -1.640130    1.079425    0.002594
      5          1           0       -1.670670   -0.533034   -0.936471
      6          1           0       -1.670773   -0.537523    0.933893
 ---------------------------------------------------------------------

 Alpha  occ. eigenvalues --  -89.88551 -10.63821  -8.24795  -6.16853  -6.16768
 Alpha  occ. eigenvalues --   -6.16228  -0.82164  -0.76142  -0.54022  -0.53924
 Alpha  occ. eigenvalues --   -0.42703  -0.29444  -0.28629
 Alpha virt. eigenvalues --   -0.12849   0.01516   0.04083   0.04748   0.05575
 Alpha virt. eigenvalues --    0.07571   0.08130   0.08489   0.11033   0.13562
 Alpha virt. eigenvalues --    0.16466   0.17009   0.22146   0.33261   0.36426

  Beta  occ. eigenvalues --  -89.88551 -10.63821  -8.24795  -6.16853  -6.16768
  Beta  occ. eigenvalues --   -6.16228  -0.82164  -0.76142  -0.54022  -0.53924
  Beta  occ. eigenvalues --   -0.42703  -0.29444  -0.28629
  Beta virt. eigenvalues --   -0.12849   0.01516   0.04083   0.04748   0.05575
  Beta virt. eigenvalues --    0.07571   0.08130   0.08489   0.11033   0.13562
  Beta virt. eigenvalues --    0.16466   0.17009   0.22146   0.33261   0.36426

 Mulliken charges and spin densities:
               1          2
     1  C   -0.430962  -0.000006
     2  S   -0.250625   0.000005
     3  H    0.055165  -0.000000
     4  H    0.210084   0.000000
     5  H    0.208184   0.000000
     6  H    0.208155   0.000000
 Sum of Mulliken charges =  -0.00000  -0.00000

 Dipole moment (field-independent basis, Debye):
    X=             -3.8166    Y=             -0.9450    Z=             -0.0009  Tot=              3.9318
 Quadrupole moment (field-independent basis, Debye-Ang):
   XX=            -20.6981   YY=            -19.4963   ZZ=            -23.5416
   XY=             -1.6557   XZ=             -0.0016   YZ=              0.0038

 Normal termination of Gaussian 16 at Mon Apr 21 19:37:11 2025.
