 Gaussian 16, Revision A.03,
 Gaussian 16:  ES64L-G16RevA.03 25-Dec-2016

 --------------------------------------------
 #p opt UM062X/6-311+G** nosymm int=superfine
 --------------------------------------------

 -------------------
 Title Card Required
 -------------------
 Symbolic Z-matrix:
 Charge =  0 Multiplicity = 1

 SCF Done:  E(UM062X) =  -438.481931604     A.U. after   13 cycles
 SCF Done:  E(UM062X) =  -438.495585679     A.U. after   11 cycles
 SCF Done:  E(UM062X) =  -438.502605314     A.U. after   12 cycles
 SCF Done:  E(UM062X) =  -438.502680559     A.U. after   12 cycles
 SCF Done:  E(UM062X) =  -438.502701610     A.U. after   10 cycles
 SCF Done:  E(UM062X) =  -438.502737478     A.U. after   11 cycles
 SCF Done:  E(UM062X) =  -438.502741866     A.U. after    8 cycles
 SCF Done:  E(UM062X) =  -438.502742481     A.U. after   10 cycles
 SCF Done:  E(UM062X) =  -438.502742707     A.U. after    9 cycles
 SCF Done:  E(UM062X) =  -438.502743109     A.U. after   13 cycles
 SCF Done:  E(UM062X) =  -438.502743414     A.U. after   11 cycles
 SCF Done:  E(UM062X) =  -438.502743522     A.U. after    9 cycles
 Optimization completed.
    -- Stationary point found.

                          Input orientation:
 ---------------------------------------------------------------------
 Center     Atomic      Atomic             Coordinates (Angstroms)
 Number     Number       Type             X           Y           Z
 ---------------------------------------------------------------------
      1          6           0       -1.960220    0.000000    0.000000
      2         16           0        1.960220    0.000000    0.000000
      3          1           0        1.915882   -1.343863   -0.004067
      4          1           0       -1.948591    1.081024    0.001910
      5          1           0       -1.998316   -0.536773   -0.937716
      6          1           0       -1.998492   -0.540091    0.935801
 ---------------------------------------------------------------------

 Alpha  occ. eigenvalues --  -89.87638 -10.65088  -8.23938  -6.15982  -6.15920
 Alpha  occ. eigenvalues --   -6.15369  -0.83408  -0.75470  -0.55459  -0.55386
 Alpha  occ. eigenvalues --   -0.42012  -0.27951  -0.26725
 Alpha virt. eigenvalues --   -0.16245   0.00999   0.03722   0.04121   0.05586
 Alpha virt. eigenvalues --    0.07516   0.08428   0.08448   0.10753   0.13486
 Alpha virt. eigenvalues --    0.15554   0.15755   0.20654   0.34403   0.35302

  Beta  occ. eigenvalues --  -89.87638 -10.65088  -8.23938  -6.15982  -6.15920
  Beta  occ. eigenvalues --   -6.15369  -0.83408  -0.75470  -0.55459  -0.55386
  Beta  occ. eigenvalues --   -0.42012  -0.27951  -0.26725
  Beta virt. eigenvalues --   -0.16245   0.00999   0.03722   0.04121   0.05586
  Beta virt. eigenvalues --    0.07516   0.08428   0.08448   0.10753   0.13486
  Beta virt. eigenvalues --    0.15554   0.15755   0.20654   0.34403   0.35302

 Mulliken charges and spin densities:
               1          2
     1  C   -0.381897   0.000002
     2  S   -0.291087  -0.000002
     3  H    0.050674   0.000000
     4  H    0.209322  -0.000000
     5  H    0.206491  -0.000000
     6  H    0.206497  -0.000000
 Sum of Mulliken charges =  -0.00000  -0.00000

 Dipole moment (field-independent basis, Debye):
    X=             -5.0644    Y=             -0.9542    Z=             -0.0029  Tot=              5.1535
 Quadrupole moment (field-independent basis, Debye-Ang):
   XX=            -20.8471   YY=            -19.6205   ZZ=            -23.6739
   XY=             -1.9217   XZ=             -0.0061   YZ=              0.0123

 Normal termination of Gaussian 16 at Mon Apr 21 19:35:06 2025.
