 Gaussian 16, Revision A.03,
 Gaussian 16:  ES64L-G16RevA.03 25-Dec-2016

 --------------------------------------------
 #p opt UM062X/6-311+G** nosymm int=superfine
 --------------------------------------------

 -------------------
 Title Card Required
 -------------------
 Symbolic Z-matrix:
 Charge =  0 Multiplicity = 1

 SCF Done:  E(UM062X) =  -114.104842012     A.U. after   15 cycles
 SCF Done:  E(UM062X) =  -114.106035340     A.U. after   10 cycles
 SCF Done:  E(UM062X) =  -114.106379616     A.U. after    9 cycles
 SCF Done:  E(UM062X) =  -114.106385989     A.U. after    8 cycles
 Optimization completed.
    -- Stationary point found.

                          Input orientation:
 ---------------------------------------------------------------------
 Center     Atomic      Atomic             Coordinates (Angstroms)
 Number     Number       Type             X           Y           Z
 ---------------------------------------------------------------------
      1          6           0       -1.448311    0.000000    0.000000
      2          8           0        1.448311    0.000000    0.000000
      3          1           0       -2.097082   -0.889144   -0.000018
      4          1           0       -2.097087    0.889140   -0.000017
 ---------------------------------------------------------------------

 Alpha  occ. eigenvalues --  -19.70159 -10.66170  -1.00380  -0.79484  -0.52648
 Alpha  occ. eigenvalues --   -0.39164  -0.39153  -0.34991
 Alpha virt. eigenvalues --   -0.13681  -0.11650   0.01048   0.05476   0.07275
 Alpha virt. eigenvalues --    0.07769   0.15518   0.16872   0.18582   0.21489
 Alpha virt. eigenvalues --    0.24246   0.29396   0.42303   0.45043   0.55767

  Beta  occ. eigenvalues --  -19.70159 -10.66170  -1.00380  -0.79484  -0.52648
  Beta  occ. eigenvalues --   -0.39164  -0.39153  -0.34991
  Beta virt. eigenvalues --   -0.13681  -0.11650   0.01048   0.05476   0.07275
  Beta virt. eigenvalues --    0.07769   0.15518   0.16872   0.18582   0.21489
  Beta virt. eigenvalues --    0.24246   0.29396   0.42303   0.45043   0.55767

 Mulliken charges and spin densities:
               1          2
     1  C   -0.225125  -0.000000
     2  O   -0.106291  -0.000000
     3  H    0.165708   0.000000
     4  H    0.165708   0.000000
 Sum of Mulliken charges =  -0.00000  -0.00000

 Dipole moment (field-independent basis, Debye):
    X=             -4.0054    Y=             -0.0000    Z=             -0.0000  Tot=              4.0054
 Quadrupole moment (field-independent basis, Debye-Ang):
   XX=             -6.7495   YY=            -12.7933   ZZ=            -12.5080
   XY=              0.0000   XZ=              0.0000   YZ=             -0.0000

 Normal termination of Gaussian 16 at Mon Apr 21 18:49:54 2025.
