 Gaussian 16, Revision A.03,
 Gaussian 16:  ES64L-G16RevA.03 25-Dec-2016

 --------------------------------------------
 #p opt UM062X/6-311+G** nosymm int=superfine
 --------------------------------------------

 -------------------
 Title Card Required
 -------------------
 Symbolic Z-matrix:
 Charge = -1 Multiplicity = 2

 SCF Done:  E(UM062X) =  -52.0259675987     A.U. after   11 cycles
 SCF Done:  E(UM062X) =  -52.0262881552     A.U. after    9 cycles
 SCF Done:  E(UM062X) =  -52.0263764946     A.U. after    9 cycles
 SCF Done:  E(UM062X) =  -52.0263699732     A.U. after   10 cycles
 SCF Done:  E(UM062X) =  -52.0263739880     A.U. after   10 cycles
 SCF Done:  E(UM062X) =  -52.0263766071     A.U. after    9 cycles
 SCF Done:  E(UM062X) =  -52.0263770217     A.U. after    9 cycles
 Optimization completed.
    -- Stationary point found.

                          Input orientation:
 ---------------------------------------------------------------------
 Center     Atomic      Atomic             Coordinates (Angstroms)
 Number     Number       Type             X           Y           Z
 ---------------------------------------------------------------------
      1          5           0       -0.947274    0.000000    0.000000
      2          5           0        0.947274    0.000000    0.000000
      3          1           0       -1.586693   -1.027711   -0.000227
      4          1           0        1.586693    1.027710   -0.000712
      5          1           0       -1.586693    1.027711    0.000195
      6          1           0        1.586693   -1.027710    0.000681
 ---------------------------------------------------------------------

 Alpha  occ. eigenvalues --   -6.81254  -6.81228  -0.37263  -0.31237  -0.20033
 Alpha  occ. eigenvalues --   -0.15991  -0.10187  -0.00322
 Alpha virt. eigenvalues --    0.15730   0.17021   0.18422   0.19209   0.19412
 Alpha virt. eigenvalues --    0.22567   0.22571   0.26365   0.26849   0.34143
 Alpha virt. eigenvalues --    0.35973   0.37655   0.40631   0.44463   0.52554

  Beta  occ. eigenvalues --   -6.81229  -6.81209  -0.35177  -0.30092  -0.19642
  Beta  occ. eigenvalues --   -0.15926  -0.09379
  Beta virt. eigenvalues --    0.11737   0.14739   0.15387   0.17375   0.17442
  Beta virt. eigenvalues --    0.18707   0.18969   0.22595   0.23753   0.29693
  Beta virt. eigenvalues --    0.33331   0.35948   0.37215   0.40770   0.44528

 Mulliken charges and spin densities:
               1          2
     1  B   -0.357193   0.545109
     2  B   -0.357193   0.545109
     3  H   -0.071404  -0.022555
     4  H   -0.071404  -0.022555
     5  H   -0.071404  -0.022555
     6  H   -0.071404  -0.022555
 Sum of Mulliken charges =  -1.00000   1.00000

 Dipole moment (field-independent basis, Debye):
    X=             -0.0000    Y=              0.0000    Z=              0.0000  Tot=              0.0000
 Quadrupole moment (field-independent basis, Debye-Ang):
   XX=            -29.0775   YY=            -23.1956   ZZ=            -22.4312
   XY=              0.0000   XZ=             -0.0000   YZ=              0.0002

 Normal termination of Gaussian 16 at Mon Apr 21 17:20:45 2025.
