 Gaussian 16, Revision A.03,
 Gaussian 16:  ES64L-G16RevA.03 25-Dec-2016

 --------------------------------------------
 #p opt UM062X/6-311+G** nosymm int=superfine
 --------------------------------------------

 -------------------
 Title Card Required
 -------------------
 Symbolic Z-matrix:
 Charge =  0 Multiplicity = 1

 SCF Done:  E(UM062X) =  -579.898267144     A.U. after   10 cycles
 SCF Done:  E(UM062X) =  -579.903932886     A.U. after    9 cycles
 SCF Done:  E(UM062X) =  -579.904018551     A.U. after   10 cycles
 SCF Done:  E(UM062X) =  -579.904019859     A.U. after    8 cycles
 SCF Done:  E(UM062X) =  -579.924172849     A.U. after   13 cycles
 SCF Done:  E(UM062X) =  -579.954712778     A.U. after   11 cycles
 SCF Done:  E(UM062X) =  -579.987806279     A.U. after   10 cycles
 SCF Done:  E(UM062X) =  -579.989204546     A.U. after    9 cycles
 SCF Done:  E(UM062X) =  -579.989258189     A.U. after    8 cycles
 SCF Done:  E(UM062X) =  -579.989292388     A.U. after    8 cycles
 SCF Done:  E(UM062X) =  -579.989292434     A.U. after    6 cycles
 Optimization completed.
    -- Stationary point found.

                          Input orientation:
 ---------------------------------------------------------------------
 Center     Atomic      Atomic             Coordinates (Angstroms)
 Number     Number       Type             X           Y           Z
 ---------------------------------------------------------------------
      1         14           0       -1.378705    0.000000    0.000000
      2         14           0        1.378705    0.000000    0.000000
      3          1           0       -1.461627    1.516540    0.000010
      4          1           0        1.461537    1.516546   -0.000001
 ---------------------------------------------------------------------

 Alpha  occ. eigenvalues --  -67.02326 -67.02325  -5.56867  -5.56867  -3.88066
 Alpha  occ. eigenvalues --   -3.88066  -3.87540  -3.87534  -3.87420  -3.87417
 Alpha  occ. eigenvalues --   -0.57523  -0.51469  -0.35424  -0.29277  -0.23625
 Alpha virt. eigenvalues --   -0.11249  -0.05357  -0.00007   0.02146   0.03714
 Alpha virt. eigenvalues --    0.04015   0.05382   0.05869   0.06399   0.06760
 Alpha virt. eigenvalues --    0.07542   0.10437   0.13174   0.27690   0.29358

  Beta  occ. eigenvalues --  -67.02326 -67.02325  -5.56867  -5.56867  -3.88066
  Beta  occ. eigenvalues --   -3.88066  -3.87540  -3.87534  -3.87420  -3.87417
  Beta  occ. eigenvalues --   -0.57523  -0.51469  -0.35424  -0.29277  -0.23625
  Beta virt. eigenvalues --   -0.11249  -0.05357  -0.00007   0.02146   0.03714
  Beta virt. eigenvalues --    0.04015   0.05382   0.05869   0.06399   0.06760
  Beta virt. eigenvalues --    0.07542   0.10437   0.13174   0.27690   0.29358

 Mulliken charges and spin densities:
               1          2
     1  Si   0.152215   0.000000
     2  Si   0.152226  -0.000000
     3  H   -0.152220   0.000000
     4  H   -0.152221  -0.000000
 Sum of Mulliken charges =  -0.00000   0.00000

 Dipole moment (field-independent basis, Debye):
    X=              0.0001    Y=              0.5745    Z=              0.0000  Tot=              0.5745
 Quadrupole moment (field-independent basis, Debye-Ang):
   XX=            -35.4733   YY=            -33.0599   ZZ=            -22.9419
   XY=             -0.0002   XZ=             -0.0000   YZ=             -0.0000

 Normal termination of Gaussian 16 at Mon Apr 21 21:25:49 2025.
