 Gaussian 16, Revision A.03,
 Gaussian 16:  ES64L-G16RevA.03 25-Dec-2016

 --------------------------------------------
 #p opt UM062X/6-311+G** nosymm int=superfine
 --------------------------------------------

 -------------------
 Title Card Required
 -------------------
 Symbolic Z-matrix:
 Charge =  1 Multiplicity = 2

 SCF Done:  E(UM062X) =  -80.1642025405     A.U. after   18 cycles
 SCF Done:  E(UM062X) =  -80.1649912178     A.U. after   10 cycles
 SCF Done:  E(UM062X) =  -80.1649936513     A.U. after    9 cycles
 Optimization completed.
    -- Stationary point found.

                          Input orientation:
 ---------------------------------------------------------------------
 Center     Atomic      Atomic             Coordinates (Angstroms)
 Number     Number       Type             X           Y           Z
 ---------------------------------------------------------------------
      1          5           0       -1.477734    0.000000    0.000000
      2          7           0        1.477734    0.000000    0.000000
      3          1           0       -2.681129   -0.000393    0.000000
      4          1           0        2.513884   -0.000224    0.000000
 ---------------------------------------------------------------------

 Alpha  occ. eigenvalues --  -14.99057  -7.52173  -1.11799  -0.85044  -0.66159
 Alpha  occ. eigenvalues --   -0.58403  -0.58403
 Alpha virt. eigenvalues --   -0.40210  -0.32795  -0.32795  -0.14538  -0.10842
 Alpha virt. eigenvalues --   -0.09662  -0.09662  -0.06861  -0.00801   0.00007
 Alpha virt. eigenvalues --    0.00007   0.05668   0.08335   0.14234   0.14234

  Beta  occ. eigenvalues --  -14.96672  -7.53431  -0.99126  -0.88583  -0.67837
  Beta  occ. eigenvalues --   -0.59480
  Beta virt. eigenvalues --   -0.35070  -0.35070  -0.22887  -0.22887  -0.14216
  Beta virt. eigenvalues --   -0.10836  -0.09310  -0.09310  -0.07197  -0.01275
  Beta virt. eigenvalues --    0.01652   0.01652   0.04894   0.09477   0.16336

 Mulliken charges and spin densities:
               1          2
     1  B    0.718372  -0.824559
     2  N   -0.236793   2.042479
     3  H    0.217473  -0.141597
     4  H    0.300948  -0.076322
 Sum of Mulliken charges =   1.00000   1.00000

 Dipole moment (field-independent basis, Debye):
    X=             -5.0434    Y=             -0.0007    Z=              0.0000  Tot=              5.0434
 Quadrupole moment (field-independent basis, Debye-Ang):
   XX=             10.2048   YY=            -10.2708   ZZ=            -10.2708
   XY=             -0.0003   XZ=              0.0000   YZ=             -0.0000

 Normal termination of Gaussian 16 at Mon Apr 21 17:58:17 2025.
