 Gaussian 16, Revision A.03,
 Gaussian 16:  ES64L-G16RevA.03 25-Dec-2016

 --------------------------------------------
 #p opt UM062X/6-311+G** nosymm int=superfine
 --------------------------------------------

 -------------------
 Title Card Required
 -------------------
 Symbolic Z-matrix:
 Charge = -1 Multiplicity = 2

 SCF Done:  E(UM062X) =  -53.2074703518     A.U. after   11 cycles
 SCF Done:  E(UM062X) =  -53.2107872907     A.U. after   10 cycles
 SCF Done:  E(UM062X) =  -53.2115089134     A.U. after   10 cycles
 SCF Done:  E(UM062X) =  -53.2115106611     A.U. after    8 cycles
 Optimization completed.
    -- Stationary point found.

                          Input orientation:
 ---------------------------------------------------------------------
 Center     Atomic      Atomic             Coordinates (Angstroms)
 Number     Number       Type             X           Y           Z
 ---------------------------------------------------------------------
      1          5           0       -1.840672    0.000000    0.000000
      2          5           0        1.840672    0.000000    0.000000
      3          1           0        1.920026   -1.196530   -0.000014
      4          1           0       -1.919844   -0.598266    1.036241
      5          1           0        1.919995    0.598285   -1.036220
      6          1           0        1.919789    0.598252    1.036252
      7          1           0       -1.920033    1.196529   -0.000000
      8          1           0       -1.919932   -0.598272   -1.036231
 ---------------------------------------------------------------------

 Alpha  occ. eigenvalues --   -6.83949  -6.83948  -0.39581  -0.38721  -0.21317
 Alpha  occ. eigenvalues --   -0.21317  -0.20872  -0.20872   0.00750
 Alpha virt. eigenvalues --    0.12821   0.17035   0.17745   0.17745   0.18549
 Alpha virt. eigenvalues --    0.18549   0.19992   0.22759   0.23539   0.32920
 Alpha virt. eigenvalues --    0.32921   0.35127   0.35127   0.37827   0.39187

  Beta  occ. eigenvalues --   -6.83910  -6.83910  -0.37720  -0.37173  -0.21114
  Beta  occ. eigenvalues --   -0.21114  -0.20706  -0.20706
  Beta virt. eigenvalues --    0.12491   0.13910   0.14653   0.15713   0.15713
  Beta virt. eigenvalues --    0.18111   0.18111   0.22189   0.22803   0.25892
  Beta virt. eigenvalues --    0.31962   0.31962   0.34561   0.34561   0.37322

 Mulliken charges and spin densities:
               1          2
     1  B   -0.328304   0.574209
     2  B   -0.328304   0.574208
     3  H   -0.057234  -0.024734
     4  H   -0.057229  -0.024737
     5  H   -0.057235  -0.024737
     6  H   -0.057227  -0.024738
     7  H   -0.057235  -0.024734
     8  H   -0.057232  -0.024737
 Sum of Mulliken charges =  -1.00000   1.00000

 Dipole moment (field-independent basis, Debye):
    X=              0.0000    Y=             -0.0000    Z=              0.0001  Tot=              0.0001
 Quadrupole moment (field-independent basis, Debye-Ang):
   XX=            -40.7200   YY=            -24.2490   ZZ=            -24.2490
   XY=              0.0000   XZ=              0.0000   YZ=              0.0000

 Normal termination of Gaussian 16 at Mon Apr 21 16:54:08 2025.
