 Gaussian 16, Revision A.03,
 Gaussian 16:  ES64L-G16RevA.03 25-Dec-2016

 -------------------------------------------------------------------
 #p opt UM062X/6-311+G** nosymm int=superfine SCF=NoVarAcc SCF=tight
 -------------------------------------------------------------------

 -------------------
 Title Card Required
 -------------------
 Symbolic Z-matrix:
 Charge =  1 Multiplicity = 2

 SCF Done:  E(UM062X) =  -77.8895482847     A.U. after   12 cycles
 SCF Done:  E(UM062X) =  -77.8934929406     A.U. after   10 cycles
 SCF Done:  E(UM062X) =  -77.8962912451     A.U. after   10 cycles
 SCF Done:  E(UM062X) =  -77.8962957037     A.U. after    8 cycles
 Optimization completed.
    -- Stationary point found.

                          Input orientation:
 ---------------------------------------------------------------------
 Center     Atomic      Atomic             Coordinates (Angstroms)
 Number     Number       Type             X           Y           Z
 ---------------------------------------------------------------------
      1          6           0       -8.606027    0.000000    0.000000
      2          6           0        8.606027    0.000000    0.000000
      3          1           0       -9.168912   -0.941514    0.000000
      4          1           0       -9.168846    0.941552    0.000000
      5          1           0        9.168912    0.941514    0.000000
      6          1           0        9.168846   -0.941552    0.000000
 ---------------------------------------------------------------------

 Alpha  occ. eigenvalues --  -10.84372 -10.84372  -0.95990  -0.95990  -0.70628
 Alpha  occ. eigenvalues --   -0.70628  -0.53352  -0.53352
 Alpha virt. eigenvalues --   -0.27656  -0.27656  -0.08545  -0.08545  -0.04186
 Alpha virt. eigenvalues --   -0.04186  -0.02398  -0.02398  -0.02167  -0.02167
 Alpha virt. eigenvalues --    0.03857   0.03857   0.04574   0.04574   0.30969

  Beta  occ. eigenvalues --  -10.83645 -10.83645  -0.93863  -0.93861  -0.69627
  Beta  occ. eigenvalues --   -0.69627  -0.38575
  Beta virt. eigenvalues --   -0.36859  -0.26068  -0.26068  -0.08846  -0.08845
  Beta virt. eigenvalues --   -0.04691  -0.04691  -0.02886  -0.02886  -0.02468
  Beta virt. eigenvalues --   -0.02468   0.03914   0.03914   0.05050   0.05051

 Mulliken charges and spin densities:
               1          2
     1  C    0.042934   0.486275
     2  C    0.042934   0.486275
     3  H    0.228533   0.006862
     4  H    0.228533   0.006862
     5  H    0.228533   0.006862
     6  H    0.228533   0.006862
 Sum of Mulliken charges =   1.00000   1.00000

 Dipole moment (field-independent basis, Debye):
    X=             -0.0000    Y=              0.0000    Z=              0.0000  Tot=              0.0000
 Quadrupole moment (field-independent basis, Debye-Ang):
   XX=            400.2525   YY=             -9.5139   ZZ=            -10.6509
   XY=             -0.0008   XZ=             -0.0000   YZ=             -0.0000

 Normal termination of Gaussian 16 at Tue Dec  3 15:48:46 2024.
