 Gaussian 16, Revision A.03,
 Gaussian 16:  ES64L-G16RevA.03 25-Dec-2016

 --------------------------------------------
 #p opt UM062X/6-311+G** nosymm int=superfine
 --------------------------------------------

 -------------------
 Title Card Required
 -------------------
 Symbolic Z-matrix:
 Charge =  0 Multiplicity = 1

 SCF Done:  E(UM062X) =  -77.1944077742     A.U. after    9 cycles
 SCF Done:  E(UM062X) =  -77.2346126574     A.U. after    9 cycles
 SCF Done:  E(UM062X) =  -77.2363821706     A.U. after    8 cycles
 SCF Done:  E(UM062X) =  -77.2363848948     A.U. after    7 cycles
 Optimization completed.
    -- Stationary point found.

                          Input orientation:
 ---------------------------------------------------------------------
 Center     Atomic      Atomic             Coordinates (Angstroms)
 Number     Number       Type             X           Y           Z
 ---------------------------------------------------------------------
      1          6           0       -0.514723    0.000000    0.000000
      2          6           0        0.514723    0.000000    0.000000
      3          1           0       -1.575790   -0.000000    0.000000
      4          1           0        1.575789   -0.000000    0.000000
 ---------------------------------------------------------------------

 Alpha  occ. eigenvalues --  -10.50119 -10.49063  -0.88673  -0.62250  -0.56670
 Alpha  occ. eigenvalues --   -0.39175  -0.39175
 Alpha virt. eigenvalues --    0.02781   0.03260   0.06840   0.06840   0.07279
 Alpha virt. eigenvalues --    0.07279   0.09409   0.16661   0.18896   0.18896
 Alpha virt. eigenvalues --    0.21517   0.24899   0.44115   0.44640   0.54705

  Beta  occ. eigenvalues --  -10.50119 -10.49063  -0.88673  -0.62250  -0.56670
  Beta  occ. eigenvalues --   -0.39175  -0.39175
  Beta virt. eigenvalues --    0.02781   0.03260   0.06840   0.06840   0.07279
  Beta virt. eigenvalues --    0.07279   0.09409   0.16661   0.18896   0.18896
  Beta virt. eigenvalues --    0.21517   0.24899   0.44115   0.44640   0.54705

 Mulliken charges and spin densities:
               1          2
     1  C   -0.140164  -0.000000
     2  C   -0.140163   0.000000
     3  H    0.140164   0.000000
     4  H    0.140163   0.000000
 Sum of Mulliken charges =  -0.00000  -0.00000

 Dipole moment (field-independent basis, Debye):
    X=             -0.0000    Y=             -0.0000    Z=              0.0000  Tot=              0.0000
 Quadrupole moment (field-independent basis, Debye-Ang):
   XX=             -7.4006   YY=            -12.9260   ZZ=            -12.9260
   XY=              0.0000   XZ=             -0.0000   YZ=              0.0000

 Normal termination of Gaussian 16 at Tue Dec  3 20:00:05 2024.
