 Gaussian 16, Revision A.03,
 Gaussian 16:  ES64L-G16RevA.03 25-Dec-2016

 --------------------------------------------
 #p opt UM062X/6-311+G** nosymm int=superfine
 --------------------------------------------

 -------------------
 Title Card Required
 -------------------
 Symbolic Z-matrix:
 Charge =  0 Multiplicity = 1

 SCF Done:  E(UM062X) =  -683.566831656     A.U. after   11 cycles
 SCF Done:  E(UM062X) =  -683.566944630     A.U. after   10 cycles
 SCF Done:  E(UM062X) =  -683.567229799     A.U. after   12 cycles
 SCF Done:  E(UM062X) =  -683.567367044     A.U. after   16 cycles
 SCF Done:  E(UM062X) =  -683.567398172     A.U. after   13 cycles
 SCF Done:  E(UM062X) =  -683.567401801     A.U. after   11 cycles
 SCF Done:  E(UM062X) =  -683.567402059     A.U. after   15 cycles
 Optimization completed.
    -- Stationary point found.

                          Input orientation:
 ---------------------------------------------------------------------
 Center     Atomic      Atomic             Coordinates (Angstroms)
 Number     Number       Type             X           Y           Z
 ---------------------------------------------------------------------
      1         15           0       -2.459490    0.000000    0.000000
      2         15           0        2.459490    0.000000    0.000000
      3          1           0       -2.288691   -1.413658   -0.000000
      4          1           0        2.288691    1.413658   -0.000000
 ---------------------------------------------------------------------

 Alpha  occ. eigenvalues --  -78.08111 -78.08111  -6.90203  -6.90203  -5.01607
 Alpha  occ. eigenvalues --   -5.01607  -5.01592  -5.01592  -5.01422  -5.01422
 Alpha  occ. eigenvalues --   -0.68481  -0.68191  -0.40522  -0.40489  -0.24236
 Alpha  occ. eigenvalues --   -0.23487
 Alpha virt. eigenvalues --   -0.17614  -0.16735   0.01801   0.03009   0.03712
 Alpha virt. eigenvalues --    0.04376   0.05492   0.06018   0.06311   0.07288
 Alpha virt. eigenvalues --    0.07993   0.11141   0.28995   0.29090   0.30552

  Beta  occ. eigenvalues --  -78.08111 -78.08111  -6.90203  -6.90203  -5.01607
  Beta  occ. eigenvalues --   -5.01607  -5.01592  -5.01592  -5.01422  -5.01422
  Beta  occ. eigenvalues --   -0.68481  -0.68191  -0.40522  -0.40489  -0.24236
  Beta  occ. eigenvalues --   -0.23487
  Beta virt. eigenvalues --   -0.17614  -0.16735   0.01801   0.03009   0.03712
  Beta virt. eigenvalues --    0.04376   0.05492   0.06018   0.06311   0.07288
  Beta virt. eigenvalues --    0.07993   0.11141   0.28995   0.29090   0.30552

 Mulliken charges and spin densities:
               1          2
     1  P    0.013942  -0.000000
     2  P    0.013942   0.000000
     3  H   -0.013942   0.000000
     4  H   -0.013942  -0.000000
 Sum of Mulliken charges =   0.00000  -0.00000

 Dipole moment (field-independent basis, Debye):
    X=             -0.0000    Y=             -0.0000    Z=             -0.0000  Tot=              0.0000
 Quadrupole moment (field-independent basis, Debye-Ang):
   XX=            -27.7974   YY=            -28.5208   ZZ=            -30.7005
   XY=              3.6310   XZ=             -0.0000   YZ=             -0.0000

 Normal termination of Gaussian 16 at Mon Apr 21 21:12:42 2025.
