 Gaussian 16, Revision A.03,
 Gaussian 16:  ES64L-G16RevA.03 25-Dec-2016

 --------------------------------------------
 #p opt UM062X/6-311+G** nosymm int=superfine
 --------------------------------------------

 -------------------
 Title Card Required
 -------------------
 Symbolic Z-matrix:
 Charge =  1 Multiplicity = 2

 SCF Done:  E(UM062X) =  -379.343061744     A.U. after   32 cycles
 SCF Done:  E(UM062X) =  -379.343547356     A.U. after   35 cycles
 SCF Done:  E(UM062X) =  -379.343547853     A.U. after   17 cycles
 Optimization completed.
    -- Stationary point found.

                          Input orientation:
 ---------------------------------------------------------------------
 Center     Atomic      Atomic             Coordinates (Angstroms)
 Number     Number       Type             X           Y           Z
 ---------------------------------------------------------------------
      1          6           0       -1.344427    0.000000    0.000000
      2         15           0        1.344427    0.000000    0.000000
      3          1           0       -2.457724   -0.000000   -0.000000
 ---------------------------------------------------------------------

 Alpha  occ. eigenvalues --  -78.38426 -10.97680  -7.19655  -5.31564  -5.31236
 Alpha  occ. eigenvalues --   -5.30381  -1.00736  -0.89624  -0.67805  -0.53013
 Alpha  occ. eigenvalues --   -0.51284
 Alpha virt. eigenvalues --   -0.39805  -0.37283  -0.34964  -0.13310  -0.10446
 Alpha virt. eigenvalues --   -0.08779  -0.08615  -0.07989  -0.05486  -0.05429
 Alpha virt. eigenvalues --   -0.01052   0.02593   0.13211   0.14657   0.14770

  Beta  occ. eigenvalues --  -78.37977 -10.97474  -7.19554  -5.31127  -5.30361
  Beta  occ. eigenvalues --   -5.30175  -0.98662  -0.86461  -0.66656  -0.49950
  Beta virt. eigenvalues --   -0.36025  -0.35786  -0.33655  -0.32087  -0.14339
  Beta virt. eigenvalues --   -0.11096  -0.08882  -0.08752  -0.08304  -0.05569
  Beta virt. eigenvalues --   -0.05485  -0.02146   0.03153   0.12095   0.12441

 Mulliken charges and spin densities:
               1          2
     1  C    0.048501   0.408881
     2  P    0.654545   0.605706
     3  H    0.296954  -0.014588
 Sum of Mulliken charges =   1.00000   1.00000

 Dipole moment (field-independent basis, Debye):
    X=             -0.4280    Y=             -0.0000    Z=             -0.0000  Tot=              0.4280
 Quadrupole moment (field-independent basis, Debye-Ang):
   XX=              1.9292   YY=            -19.7349   ZZ=            -16.3545
   XY=              0.0000   XZ=              0.0000   YZ=              0.0272

 Normal termination of Gaussian 16 at Mon Apr 21 19:25:21 2025.
