 Gaussian 16, Revision A.03,
 Gaussian 16:  ES64L-G16RevA.03 25-Dec-2016

 ---------------------------------------------------
 #p UM062X/6-311+G** force int=superfine pop=saveNBO
 ---------------------------------------------------

 -------------------
 Title Card Required
 -------------------
 Symbolic Z-matrix:
 Charge =  0 Multiplicity = 1

                         Standard orientation:
 ---------------------------------------------------------------------
 Center     Atomic      Atomic             Coordinates (Angstroms)
 Number     Number       Type             X           Y           Z
 ---------------------------------------------------------------------
      1          6           0        0.000000    0.000000   -3.075340
      2         16           0        0.000000    0.000000    1.153252
 ---------------------------------------------------------------------

 SCF Done:  E(UM062X) =  -435.727870497     A.U. after   18 cycles

 The electronic state is 1-SG.
 Alpha  occ. eigenvalues --  -89.93048 -10.82491  -8.28903  -6.20684  -6.20684
 Alpha  occ. eigenvalues --   -6.20652  -0.72760  -0.71263  -0.28686  -0.27835
 Alpha  occ. eigenvalues --   -0.27835
 Alpha virt. eigenvalues --   -0.20944  -0.20944  -0.19820   0.02434   0.05606
 Alpha virt. eigenvalues --    0.05606   0.05613   0.08257   0.08300   0.08300
 Alpha virt. eigenvalues --    0.13191   0.35859   0.36647   0.36647   0.51138

  Beta  occ. eigenvalues --  -89.93048 -10.82491  -8.28903  -6.20684  -6.20684
  Beta  occ. eigenvalues --   -6.20652  -0.72760  -0.71263  -0.28686  -0.27835
  Beta  occ. eigenvalues --   -0.27835
  Beta virt. eigenvalues --   -0.20944  -0.20944  -0.19820   0.02434   0.05606
  Beta virt. eigenvalues --    0.05606   0.05613   0.08257   0.08300   0.08300
  Beta virt. eigenvalues --    0.13191   0.35859   0.36647   0.36647   0.51138

 Mulliken charges and spin densities:
               1          2
     1  C    0.219124   0.000000
     2  S   -0.219124  -0.000000
 Sum of Mulliken charges =   0.00000  -0.00000

 Dipole moment (field-independent basis, Debye):
    X=              0.0000    Y=              0.0000    Z=             -4.4760  Tot=              4.4760
 Quadrupole moment (field-independent basis, Debye-Ang):
   XX=            -20.9031   YY=            -20.9031   ZZ=             -9.8319
   XY=              0.0000   XZ=              0.0000   YZ=              0.0000

 Summary of Natural Population Analysis:

                                       Natural Population
                Natural  -----------------------------------------------
    Atom  No    Charge         Core      Valence    Rydberg      Total
 -----------------------------------------------------------------------
      C    1    0.12190      1.00000     1.87770    0.00040     2.87810
      S    2   -0.12190      5.00000     3.12170    0.00021     8.12190
 =======================================================================
   * Total *    0.00000      6.00000     4.99939    0.00061    11.00000

 Normal termination of Gaussian 16 at Mon Apr 21 19:47:05 2025.
