 Gaussian 16, Revision A.03,
 Gaussian 16:  ES64L-G16RevA.03 25-Dec-2016

 --------------------------------------------
 #p opt UM062X/6-311+G** nosymm int=superfine
 --------------------------------------------

 -------------------
 Title Card Required
 -------------------
 Symbolic Z-matrix:
 Charge =  0 Multiplicity = 1

 SCF Done:  E(UM062X) =  -79.6455567734     A.U. after    8 cycles
 SCF Done:  E(UM062X) =  -79.6785979888     A.U. after    9 cycles
 SCF Done:  E(UM062X) =  -79.7052234480     A.U. after   10 cycles
 SCF Done:  E(UM062X) =  -79.7125995333     A.U. after    8 cycles
 SCF Done:  E(UM062X) =  -79.7126509464     A.U. after    7 cycles
 SCF Done:  E(UM062X) =  -79.7126521412     A.U. after    6 cycles
 Optimization completed.
    -- Stationary point found.

                          Input orientation:
 ---------------------------------------------------------------------
 Center     Atomic      Atomic             Coordinates (Angstroms)
 Number     Number       Type             X           Y           Z
 ---------------------------------------------------------------------
      1          6           0       -1.107143    0.000000    0.000000
      2          6           0        1.107256    0.000000    0.000000
      3          1           0        1.358820   -0.911969    0.527711
      4          1           0       -1.358701   -0.913000   -0.525930
      5          1           0        1.358817    0.913000    0.525928
      6          1           0        1.358825   -0.001027   -1.053642
      7          1           0       -1.358706    0.911969   -0.527712
      8          1           0       -1.358715    0.001026    1.053641
 ---------------------------------------------------------------------

 Alpha  occ. eigenvalues --  -10.55165 -10.55159  -0.78109  -0.73373  -0.48271
 Alpha  occ. eigenvalues --   -0.48271  -0.45373  -0.45373  -0.30679
 Alpha virt. eigenvalues --    0.00909   0.02423   0.05595   0.05595   0.08375
 Alpha virt. eigenvalues --    0.08375   0.08449   0.09781   0.13291   0.18168
 Alpha virt. eigenvalues --    0.18168   0.22103   0.22103   0.24354   0.26596

  Beta  occ. eigenvalues --  -10.55165 -10.55159  -0.78109  -0.73373  -0.48271
  Beta  occ. eigenvalues --   -0.48271  -0.45373  -0.45373  -0.30679
  Beta virt. eigenvalues --    0.00909   0.02423   0.05595   0.05595   0.08375
  Beta virt. eigenvalues --    0.08375   0.08449   0.09781   0.13291   0.18168
  Beta virt. eigenvalues --    0.18168   0.22103   0.22103   0.24354   0.26596

 Mulliken charges and spin densities:
               1          2
     1  C   -0.504189  -0.000000
     2  C   -0.504191   0.000000
     3  H    0.168063  -0.000000
     4  H    0.168063   0.000000
     5  H    0.168063  -0.000000
     6  H    0.168063  -0.000000
     7  H    0.168063   0.000000
     8  H    0.168063   0.000000
 Sum of Mulliken charges =  -0.00000   0.00000

 Dipole moment (field-independent basis, Debye):
    X=             -0.0000    Y=             -0.0000    Z=             -0.0000  Tot=              0.0000
 Quadrupole moment (field-independent basis, Debye-Ang):
   XX=            -15.5541   YY=            -14.8384   ZZ=            -14.8385
   XY=             -0.0000   XZ=             -0.0000   YZ=             -0.0000

 Normal termination of Gaussian 16 at Tue Nov 19 12:13:32 2024.
