 Gaussian 16, Revision A.03,
 Gaussian 16:  ES64L-G16RevA.03 25-Dec-2016

 --------------------------------------------
 #p opt UM062X/6-311+G** nosymm int=superfine
 --------------------------------------------

 -------------------
 Title Card Required
 -------------------
 Symbolic Z-matrix:
 Charge =  0 Multiplicity = 1

 SCF Done:  E(UM062X) =  -115.430224100     A.U. after   65 cycles
 SCF Done:  E(UM062X) =  -115.446380965     A.U. after   12 cycles
 SCF Done:  E(UM062X) =  -115.456445987     A.U. after   14 cycles
 SCF Done:  E(UM062X) =  -115.456544535     A.U. after   12 cycles
 SCF Done:  E(UM062X) =  -115.456566479     A.U. after   13 cycles
 SCF Done:  E(UM062X) =  -115.456689861     A.U. after   16 cycles
 SCF Done:  E(UM062X) =  -115.456698837     A.U. after   14 cycles
 SCF Done:  E(UM062X) =  -115.456699561     A.U. after    9 cycles
 SCF Done:  E(UM062X) =  -115.456699714     A.U. after    9 cycles
 SCF Done:  E(UM062X) =  -115.456700093     A.U. after    9 cycles
 SCF Done:  E(UM062X) =  -115.456700496     A.U. after   16 cycles
 SCF Done:  E(UM062X) =  -115.456700945     A.U. after   12 cycles
 SCF Done:  E(UM062X) =  -115.456701226     A.U. after   14 cycles
 SCF Done:  E(UM062X) =  -115.456701376     A.U. after    8 cycles
 Optimization completed.
    -- Stationary point found.

                          Input orientation:
 ---------------------------------------------------------------------
 Center     Atomic      Atomic             Coordinates (Angstroms)
 Number     Number       Type             X           Y           Z
 ---------------------------------------------------------------------
      1          6           0       -2.082203    0.000000    0.000000
      2          8           0        2.082203    0.000000    0.000000
      3          1           0        2.190303   -0.959792   -0.000570
      4          1           0       -2.156338   -0.533897    0.937758
      5          1           0       -1.950041    1.073622   -0.001045
      6          1           0       -2.156396   -0.535722   -0.936712
 ---------------------------------------------------------------------

 Alpha  occ. eigenvalues --  -19.58173 -10.67235  -1.00661  -0.85288  -0.57350
 Alpha  occ. eigenvalues --   -0.57212  -0.45193  -0.32156  -0.26737
 Alpha virt. eigenvalues --   -0.18443   0.00223   0.03477   0.03656   0.06956
 Alpha virt. eigenvalues --    0.12937   0.14335   0.14496   0.17891   0.22612
 Alpha virt. eigenvalues --    0.23093   0.25035   0.29071   0.38742   0.38932

  Beta  occ. eigenvalues --  -19.58173 -10.67235  -1.00661  -0.85288  -0.57350
  Beta  occ. eigenvalues --   -0.57212  -0.45193  -0.32156  -0.26737
  Beta virt. eigenvalues --   -0.18443   0.00223   0.03477   0.03656   0.06956
  Beta virt. eigenvalues --    0.12937   0.14335   0.14496   0.17891   0.22612
  Beta virt. eigenvalues --    0.23093   0.25035   0.29071   0.38742   0.38932

 Mulliken charges and spin densities:
               1          2
     1  C   -0.289737   0.000000
     2  O   -0.559620  -0.000000
     3  H    0.214842  -0.000000
     4  H    0.208170  -0.000000
     5  H    0.218184  -0.000000
     6  H    0.208159   0.000000
 Sum of Mulliken charges =  -0.00000   0.00000

 Dipole moment (field-independent basis, Debye):
    X=             -6.8436    Y=             -1.5888    Z=             -0.0010  Tot=              7.0256
 Quadrupole moment (field-independent basis, Debye-Ang):
   XX=            -12.8953   YY=            -11.5287   ZZ=            -13.9256
   XY=             -3.5239   XZ=             -0.0024   YZ=              0.0014

 Normal termination of Gaussian 16 at Mon Apr 21 18:48:41 2025.
