 Gaussian 16, Revision A.03,
 Gaussian 16:  ES64L-G16RevA.03 25-Dec-2016

 --------------------------------------------
 #p opt UM062X/6-311+G** nosymm int=superfine
 --------------------------------------------

 -------------------
 Title Card Required
 -------------------
 Symbolic Z-matrix:
 Charge =  0 Multiplicity = 1

 SCF Done:  E(UM062X) =  -51.7863479789     A.U. after   10 cycles
 SCF Done:  E(UM062X) =  -51.7917933923     A.U. after    9 cycles
 SCF Done:  E(UM062X) =  -51.7950919763     A.U. after   11 cycles
 SCF Done:  E(UM062X) =  -51.7950952404     A.U. after    9 cycles
 SCF Done:  E(UM062X) =  -51.7950939598     A.U. after   10 cycles
 SCF Done:  E(UM062X) =  -51.7950943735     A.U. after    9 cycles
 SCF Done:  E(UM062X) =  -51.7950951560     A.U. after   10 cycles
 Optimization completed.
    -- Stationary point found.

                          Input orientation:
 ---------------------------------------------------------------------
 Center     Atomic      Atomic             Coordinates (Angstroms)
 Number     Number       Type             X           Y           Z
 ---------------------------------------------------------------------
      1          5           0       -2.120607    0.000000    0.000000
      2          5           0        2.120607    0.000000    0.000000
      3          1           0       -2.576338   -1.087916   -0.000900
      4          1           0        2.576338    1.087896   -0.006747
      5          1           0       -2.576340    1.087916   -0.000803
      6          1           0        2.576340   -1.087904    0.005047
 ---------------------------------------------------------------------

 Alpha  occ. eigenvalues --   -7.11581  -7.11580  -0.57992  -0.57754  -0.45334
 Alpha  occ. eigenvalues --   -0.45276  -0.19601
 Alpha virt. eigenvalues --   -0.07965  -0.05165  -0.04250   0.02253   0.03128
 Alpha virt. eigenvalues --    0.03845   0.05375   0.06173   0.07175   0.08407
 Alpha virt. eigenvalues --    0.09982   0.15221   0.15804   0.17171   0.23664

  Beta  occ. eigenvalues --   -7.11581  -7.11580  -0.57992  -0.57754  -0.45334
  Beta  occ. eigenvalues --   -0.45276  -0.19601
  Beta virt. eigenvalues --   -0.07965  -0.05165  -0.04250   0.02253   0.03128
  Beta virt. eigenvalues --    0.03845   0.05375   0.06173   0.07175   0.08407
  Beta virt. eigenvalues --    0.09982   0.15221   0.15804   0.17171   0.23664

 Mulliken charges and spin densities:
               1          2
     1  B   -0.061685   0.000000
     2  B   -0.061685  -0.000000
     3  H    0.030842   0.000000
     4  H    0.030842  -0.000000
     5  H    0.030842   0.000000
     6  H    0.030842  -0.000000
 Sum of Mulliken charges =  -0.00000  -0.00000

 Dipole moment (field-independent basis, Debye):
    X=              0.0000    Y=             -0.0000    Z=             -0.0020  Tot=              0.0020
 Quadrupole moment (field-independent basis, Debye-Ang):
   XX=            -10.5180   YY=            -16.9664   ZZ=            -14.6198
   XY=              0.0000   XZ=             -0.0000   YZ=              0.0063

 Normal termination of Gaussian 16 at Mon Apr 21 17:13:59 2025.
