 Gaussian 16, Revision A.03,
 Gaussian 16:  ES64L-G16RevA.03 25-Dec-2016

 ---------------------------------------------------
 #p UM062X/6-311+G** force int=superfine pop=saveNBO
 ---------------------------------------------------

 -------------------
 Title Card Required
 -------------------
 Symbolic Z-matrix:
 Charge =  0 Multiplicity = 1

                         Standard orientation:
 ---------------------------------------------------------------------
 Center     Atomic      Atomic             Coordinates (Angstroms)
 Number     Number       Type             X           Y           Z
 ---------------------------------------------------------------------
      1          6           0        0.000000    0.000000   -2.202612
      2         16           0        0.000000    0.000000    0.825980
 ---------------------------------------------------------------------

 SCF Done:  E(UM062X) =  -435.856805218     A.U. after   18 cycles

 The electronic state is 1-SG.
 Alpha  occ. eigenvalues --  -89.92608 -10.79498  -8.28533  -6.21090  -6.19875
 Alpha  occ. eigenvalues --   -6.19875  -0.73557  -0.69756  -0.34046  -0.30205
 Alpha  occ. eigenvalues --   -0.30205
 Alpha virt. eigenvalues --   -0.16266  -0.16266  -0.14415   0.03081   0.05350
 Alpha virt. eigenvalues --    0.05884   0.05884   0.08761   0.08761   0.08797
 Alpha virt. eigenvalues --    0.14430   0.36437   0.36437   0.37290   0.51319

  Beta  occ. eigenvalues --  -89.92608 -10.79498  -8.28533  -6.21090  -6.19875
  Beta  occ. eigenvalues --   -6.19875  -0.73557  -0.69756  -0.34046  -0.30205
  Beta  occ. eigenvalues --   -0.30205
  Beta virt. eigenvalues --   -0.16266  -0.16266  -0.14415   0.03081   0.05350
  Beta virt. eigenvalues --    0.05884   0.05884   0.08761   0.08761   0.08797
  Beta virt. eigenvalues --    0.14430   0.36437   0.36437   0.37290   0.51319

 Mulliken charges and spin densities:
               1          2
     1  C    0.187773  -0.000000
     2  S   -0.187773   0.000000
 Sum of Mulliken charges =   0.00000   0.00000

 Dipole moment (field-independent basis, Debye):
    X=              0.0000    Y=              0.0000    Z=             -2.7117  Tot=              2.7117
 Quadrupole moment (field-independent basis, Debye-Ang):
   XX=            -20.8275   YY=            -20.8275   ZZ=            -14.5345
   XY=              0.0000   XZ=              0.0000   YZ=              0.0000

 Summary of Natural Population Analysis:

                                       Natural Population
                Natural  -----------------------------------------------
    Atom  No    Charge         Core      Valence    Rydberg      Total
 -----------------------------------------------------------------------
      C    1    0.13805      1.00000     1.86149    0.00046     2.86195
      S    2   -0.13805      4.99999     3.13746    0.00060     8.13805
 =======================================================================
   * Total *   -0.00000      5.99999     4.99895    0.00106    11.00000

 Normal termination of Gaussian 16 at Mon Apr 21 19:46:47 2025.
