 Gaussian 16, Revision A.03,
 Gaussian 16:  ES64L-G16RevA.03 25-Dec-2016

 --------------------------------------------
 #p opt UM062X/6-311+G** nosymm int=superfine
 --------------------------------------------

 -------------------
 Title Card Required
 -------------------
 Symbolic Z-matrix:
 Charge =  1 Multiplicity = 2

 SCF Done:  E(UM062X) =  -80.3593061364     A.U. after   13 cycles
 SCF Done:  E(UM062X) =  -80.3593164521     A.U. after   10 cycles
 SCF Done:  E(UM062X) =  -80.3593157053     A.U. after    8 cycles
 SCF Done:  E(UM062X) =  -80.3593164932     A.U. after    8 cycles
 Optimization completed.
    -- Stationary point found.

                          Input orientation:
 ---------------------------------------------------------------------
 Center     Atomic      Atomic             Coordinates (Angstroms)
 Number     Number       Type             X           Y           Z
 ---------------------------------------------------------------------
      1          5           0       -0.727734    0.000000    0.000000
      2          7           0        0.727734    0.000000    0.000000
      3          1           0       -1.899495   -0.000114    0.000000
      4          1           0        1.748167    0.000195    0.000000
 ---------------------------------------------------------------------

 Alpha  occ. eigenvalues --  -15.11295  -7.47317  -1.26245  -0.93986  -0.81789
 Alpha  occ. eigenvalues --   -0.72343  -0.68114
 Alpha virt. eigenvalues --   -0.28185  -0.26900  -0.19357  -0.13620  -0.10924
 Alpha virt. eigenvalues --   -0.10529  -0.10088  -0.08246  -0.01832  -0.01458
 Alpha virt. eigenvalues --    0.02899   0.06267   0.12306   0.17869   0.18052

  Beta  occ. eigenvalues --  -15.10320  -7.47357  -1.19672  -0.91901  -0.81532
  Beta  occ. eigenvalues --   -0.65088
  Beta virt. eigenvalues --   -0.42310  -0.26257  -0.23189  -0.18905  -0.13399
  Beta virt. eigenvalues --   -0.10881  -0.10095  -0.09867  -0.08000  -0.01609
  Beta virt. eigenvalues --   -0.01420   0.01508   0.06561   0.12757   0.16751

 Mulliken charges and spin densities:
               1          2
     1  B    0.536021   0.075526
     2  N   -0.133403   0.965113
     3  H    0.191867  -0.010184
     4  H    0.405516  -0.030456
 Sum of Mulliken charges =   1.00000   1.00000

 Dipole moment (field-independent basis, Debye):
    X=             -0.6197    Y=              0.0003    Z=             -0.0000  Tot=              0.6197
 Quadrupole moment (field-independent basis, Debye-Ang):
   XX=             -0.2746   YY=             -9.4481   ZZ=            -11.2288
   XY=              0.0007   XZ=             -0.0000   YZ=              0.0013

 Normal termination of Gaussian 16 at Mon Apr 21 17:50:01 2025.
