 Gaussian 16, Revision A.03,
 Gaussian 16:  ES64L-G16RevA.03 25-Dec-2016

 ---------------------------------------
 #p UM062X/6-311+G** force int=superfine
 ---------------------------------------

 -------------------
 Title Card Required
 -------------------
 Symbolic Z-matrix:
 Charge =  1 Multiplicity = 2

                         Standard orientation:
 ---------------------------------------------------------------------
 Center     Atomic      Atomic             Coordinates (Angstroms)
 Number     Number       Type             X           Y           Z
 ---------------------------------------------------------------------
      1          6           0        1.312538   -0.000054   -0.000014
      2          6           0       -1.312538    0.000057   -0.000002
      3          1           0       -1.385463   -1.050613   -0.256342
      4          1           0        1.384365   -0.747322    0.781885
      5          1           0       -1.384971    0.747466   -0.781710
      6          1           0       -1.384488    0.303413    1.038133
      7          1           0        1.385495    1.050650    0.256179
      8          1           0        1.385062   -0.303614   -1.038050
 ---------------------------------------------------------------------

 SCF Done:  E(UM062X) =  -79.3527947921     A.U. after   10 cycles

 The electronic state is 2-A.
 Alpha  occ. eigenvalues --  -10.85551 -10.85547  -1.05789  -1.02588  -0.75925
 Alpha  occ. eigenvalues --   -0.75925  -0.74253  -0.74253  -0.55997
 Alpha virt. eigenvalues --   -0.32728  -0.14981  -0.10528  -0.10527  -0.10028
 Alpha virt. eigenvalues --   -0.06207  -0.06207  -0.06095  -0.03511  -0.03508
 Alpha virt. eigenvalues --   -0.02949   0.01551   0.01553   0.05446   0.07425

  Beta  occ. eigenvalues --  -10.85355 -10.85355  -1.02600  -1.00172  -0.75235
  Beta  occ. eigenvalues --   -0.75235  -0.73710  -0.73709
  Beta virt. eigenvalues --   -0.33854  -0.23632  -0.15556  -0.11108  -0.11108
  Beta virt. eigenvalues --   -0.09623  -0.06548  -0.06547  -0.06068  -0.03453
  Beta virt. eigenvalues --   -0.03451  -0.02191   0.01944   0.01946   0.05958

 Mulliken charges and spin densities:
               1          2
     1  C   -0.281843   0.574165
     2  C   -0.281843   0.574165
     3  H    0.260627  -0.024735
     4  H    0.260603  -0.024699
     5  H    0.260627  -0.024707
     6  H    0.260589  -0.024724
     7  H    0.260629  -0.024735
     8  H    0.260612  -0.024731
 Sum of Mulliken charges =   1.00000   1.00000

 Dipole moment (field-independent basis, Debye):
    X=              0.0000    Y=             -0.0000    Z=              0.0000  Tot=              0.0000
 Quadrupole moment (field-independent basis, Debye-Ang):
   XX=             -2.9913   YY=            -10.9578   ZZ=            -10.9580
   XY=              0.0008   XZ=              0.0002   YZ=             -0.0000

 Normal termination of Gaussian 16 at Wed Nov 13 13:01:40 2024.
