 Gaussian 16, Revision A.03,
 Gaussian 16:  ES64L-G16RevA.03 25-Dec-2016

 --------------------------------------------
 #p opt UM062X/6-311+G** nosymm int=superfine
 --------------------------------------------

 -------------------
 Title Card Required
 -------------------
 Symbolic Z-matrix:
 Charge =  0 Multiplicity = 1

 SCF Done:  E(UM062X) =  -83.1248419039     A.U. after   10 cycles
 SCF Done:  E(UM062X) =  -83.1399722433     A.U. after    9 cycles
 SCF Done:  E(UM062X) =  -83.1431185819     A.U. after    9 cycles
 SCF Done:  E(UM062X) =  -83.1431391784     A.U. after    7 cycles
 Optimization completed.
    -- Stationary point found.

                          Input orientation:
 ---------------------------------------------------------------------
 Center     Atomic      Atomic             Coordinates (Angstroms)
 Number     Number       Type             X           Y           Z
 ---------------------------------------------------------------------
      1          5           0       -1.727429    0.000000    0.000000
      2          7           0        1.727429    0.000000    0.000000
      3          1           0        2.090234   -0.945726    0.000001
      4          1           0       -1.745897   -0.594083    1.028943
      5          1           0        2.090132    0.472913   -0.819043
      6          1           0        2.090119    0.472909    0.819051
      7          1           0       -1.745930    1.188129    0.000015
      8          1           0       -1.745914   -0.594059   -1.028956
 ---------------------------------------------------------------------

 Alpha  occ. eigenvalues --  -14.73302  -7.03884  -0.96479  -0.57067  -0.54325
 Alpha  occ. eigenvalues --   -0.54325  -0.39501  -0.39501  -0.34664
 Alpha virt. eigenvalues --   -0.01690   0.02345   0.04811   0.04811   0.05452
 Alpha virt. eigenvalues --    0.08462   0.10855   0.10855   0.17703   0.17704
 Alpha virt. eigenvalues --    0.17844   0.19517   0.19517   0.23003   0.27876

  Beta  occ. eigenvalues --  -14.73302  -7.03884  -0.96479  -0.57067  -0.54325
  Beta  occ. eigenvalues --   -0.54325  -0.39501  -0.39501  -0.34664
  Beta virt. eigenvalues --   -0.01690   0.02345   0.04811   0.04811   0.05452
  Beta virt. eigenvalues --    0.08462   0.10855   0.10855   0.17703   0.17704
  Beta virt. eigenvalues --    0.17844   0.19517   0.19517   0.23003   0.27876

 Mulliken charges and spin densities:
               1          2
     1  B    0.013972  -0.000000
     2  N   -0.736378   0.000000
     3  H    0.248374  -0.000000
     4  H   -0.007571   0.000000
     5  H    0.248374  -0.000000
     6  H    0.248374  -0.000000
     7  H   -0.007573   0.000000
     8  H   -0.007571   0.000000
 Sum of Mulliken charges =  -0.00000   0.00000

 Dipole moment (field-independent basis, Debye):
    X=              2.0830    Y=              0.0002    Z=              0.0000  Tot=              2.0830
 Quadrupole moment (field-independent basis, Debye-Ang):
   XX=            -10.8241   YY=            -15.6845   ZZ=            -15.6846
   XY=              0.0001   XZ=             -0.0000   YZ=              0.0000

 Normal termination of Gaussian 16 at Mon Apr 21 17:37:13 2025.
