 Gaussian 16, Revision A.03,
 Gaussian 16:  ES64L-G16RevA.03 25-Dec-2016

 ---------------------------------------
 #p UM062X/6-311+G** force int=superfine
 ---------------------------------------

 -------------------
 Title Card Required
 -------------------
 Symbolic Z-matrix:
 Charge =  0 Multiplicity = 1

                         Standard orientation:
 ---------------------------------------------------------------------
 Center     Atomic      Atomic             Coordinates (Angstroms)
 Number     Number       Type             X           Y           Z
 ---------------------------------------------------------------------
      1          6           0       -0.000000    0.649615    0.000000
      2          6           0       -0.000000   -0.649615    0.000000
      3          1           0        0.921538    1.222153    0.000000
      4          1           0       -0.921388    1.222282    0.000000
      5          1           0       -0.921538   -1.222153    0.000000
      6          1           0        0.921388   -1.222282    0.000000
 ---------------------------------------------------------------------

 SCF Done:  E(UM062X) =  -78.5627057188     A.U. after    8 cycles

 The electronic state is 1-AG.
 Alpha  occ. eigenvalues --  -10.53427 -10.53291  -0.86799  -0.66022  -0.54548
 Alpha  occ. eigenvalues --   -0.49073  -0.41314  -0.34080
 Alpha virt. eigenvalues --    0.03200   0.03401   0.04107   0.05073   0.07636
 Alpha virt. eigenvalues --    0.08249   0.09731   0.13745   0.16060   0.17417
 Alpha virt. eigenvalues --    0.19903   0.23321   0.31603   0.36785   0.44274

  Beta  occ. eigenvalues --  -10.53427 -10.53291  -0.86799  -0.66022  -0.54548
  Beta  occ. eigenvalues --   -0.49073  -0.41314  -0.34080
  Beta virt. eigenvalues --    0.03200   0.03401   0.04107   0.05073   0.07636
  Beta virt. eigenvalues --    0.08249   0.09731   0.13745   0.16060   0.17417
  Beta virt. eigenvalues --    0.19903   0.23321   0.31603   0.36785   0.44274

 Mulliken charges and spin densities:
               1          2
     1  C   -0.292783  -0.000000
     2  C   -0.292783  -0.000000
     3  H    0.146383   0.000000
     4  H    0.146400   0.000000
     5  H    0.146383   0.000000
     6  H    0.146400   0.000000
 Sum of Mulliken charges =  -0.00000  -0.00000

 Dipole moment (field-independent basis, Debye):
    X=             -0.0000    Y=              0.0000    Z=             -0.0000  Tot=              0.0000
 Quadrupole moment (field-independent basis, Debye-Ang):
   XX=            -12.3125   YY=            -12.2920   ZZ=            -15.7773
   XY=             -0.0004   XZ=              0.0000   YZ=              0.0000

 Normal termination of Gaussian 16 at Tue Nov 19 11:44:00 2024.
