 Gaussian 16, Revision A.03,
 Gaussian 16:  ES64L-G16RevA.03 25-Dec-2016

 ---------------------------------------------------
 #p UM062X/6-311+G** force int=superfine pop=saveNBO
 ---------------------------------------------------

 -------------------
 Title Card Required
 -------------------
 Symbolic Z-matrix:
 Charge =  0 Multiplicity = 1

                         Standard orientation:
 ---------------------------------------------------------------------
 Center     Atomic      Atomic             Coordinates (Angstroms)
 Number     Number       Type             X           Y           Z
 ---------------------------------------------------------------------
      1          8           0        0.000000    0.000000    0.643562
      2          8           0        0.000000    0.000000   -0.643562
 ---------------------------------------------------------------------

 SCF Done:  E(UM062X) =  -150.235601724     A.U. after    9 cycles

 Unable to determine electronic state:  an orbital has unidentified symmetry.
 Alpha  occ. eigenvalues --  -19.80330 -19.80287  -1.37025  -0.94772  -0.61311
 Alpha  occ. eigenvalues --   -0.60070  -0.57080  -0.37576
 Alpha virt. eigenvalues --   -0.15338   0.09368   0.10733   0.14418   0.15198
 Alpha virt. eigenvalues --    0.20684   0.21694   0.22034   0.23866   0.35082
 Alpha virt. eigenvalues --    0.98744   0.99785   1.00031   1.01662   1.06416

  Beta  occ. eigenvalues --  -19.80330 -19.80287  -1.37025  -0.94772  -0.61311
  Beta  occ. eigenvalues --   -0.60070  -0.57080  -0.37576
  Beta virt. eigenvalues --   -0.15338   0.09368   0.10733   0.14418   0.15198
  Beta virt. eigenvalues --    0.20684   0.21694   0.22034   0.23866   0.35082
  Beta virt. eigenvalues --    0.98744   0.99785   1.00031   1.01662   1.06416

 Mulliken charges and spin densities:
               1          2
     1  O   -0.000000   0.000000
     2  O   -0.000000   0.000000
 Sum of Mulliken charges =  -0.00000   0.00000

 Dipole moment (field-independent basis, Debye):
    X=             -0.0000    Y=              0.0000    Z=             -0.0000  Tot=              0.0000
 Quadrupole moment (field-independent basis, Debye-Ang):
   XX=            -11.2045   YY=             -9.3900   ZZ=            -10.7275
   XY=              0.0000   XZ=              0.0000   YZ=             -0.0000

 Summary of Natural Population Analysis:

                                       Natural Population
                Natural  -----------------------------------------------
    Atom  No    Charge         Core      Valence    Rydberg      Total
 -----------------------------------------------------------------------
      O    1   -0.00000      0.99997     2.98723    0.01280     4.00000
      O    2   -0.00000      0.99997     2.98723    0.01280     4.00000
 =======================================================================
   * Total *   -0.00000      1.99994     5.97446    0.02561     8.00000

 Normal termination of Gaussian 16 at Mon Apr 21 19:53:01 2025.
