 Gaussian 16, Revision A.03,
 Gaussian 16:  ES64L-G16RevA.03 25-Dec-2016

 --------------------------------------------
 #p opt UM062X/6-311+G** nosymm int=superfine
 --------------------------------------------

 -------------------
 Title Card Required
 -------------------
 Symbolic Z-matrix:
 Charge =  0 Multiplicity = 1

 SCF Done:  E(UM062X) =  -78.3327128444     A.U. after    8 cycles
 SCF Done:  E(UM062X) =  -78.3725943044     A.U. after    8 cycles
 SCF Done:  E(UM062X) =  -78.4032081173     A.U. after   10 cycles
 SCF Done:  E(UM062X) =  -78.4110791822     A.U. after    8 cycles
 SCF Done:  E(UM062X) =  -78.4117502682     A.U. after    8 cycles
 SCF Done:  E(UM062X) =  -78.4117564136     A.U. after    7 cycles
 Optimization completed.
    -- Stationary point found.

                          Input orientation:
 ---------------------------------------------------------------------
 Center     Atomic      Atomic             Coordinates (Angstroms)
 Number     Number       Type             X           Y           Z
 ---------------------------------------------------------------------
      1          6           0       -0.947907    0.000000    0.000000
      2          6           0        0.947907    0.000000    0.000000
      3          1           0       -1.427980   -0.965810    0.000000
      4          1           0       -1.427976    0.965805   -0.000000
      5          1           0        1.427980    0.965810    0.000000
      6          1           0        1.427976   -0.965805   -0.000000
 ---------------------------------------------------------------------

 Alpha  occ. eigenvalues --  -10.60332 -10.60315  -0.78193  -0.70792  -0.52944
 Alpha  occ. eigenvalues --   -0.48911  -0.39592  -0.26915
 Alpha virt. eigenvalues --   -0.05377   0.02701   0.03363   0.05394   0.07439
 Alpha virt. eigenvalues --    0.08939   0.09821   0.11508   0.12385   0.15533
 Alpha virt. eigenvalues --    0.16541   0.21155   0.21325   0.28483   0.40109

  Beta  occ. eigenvalues --  -10.60332 -10.60315  -0.78193  -0.70792  -0.52944
  Beta  occ. eigenvalues --   -0.48911  -0.39592  -0.26915
  Beta virt. eigenvalues --   -0.05377   0.02701   0.03363   0.05394   0.07439
  Beta virt. eigenvalues --    0.08939   0.09821   0.11508   0.12385   0.15533
  Beta virt. eigenvalues --    0.16541   0.21155   0.21325   0.28483   0.40109

 Mulliken charges and spin densities:
               1          2
     1  C   -0.352552  -0.000000
     2  C   -0.352552   0.000000
     3  H    0.176276  -0.000000
     4  H    0.176276  -0.000000
     5  H    0.176276  -0.000000
     6  H    0.176276   0.000000
 Sum of Mulliken charges =  -0.00000   0.00000

 Dipole moment (field-independent basis, Debye):
    X=             -0.0000    Y=             -0.0000    Z=             -0.0000  Tot=              0.0000
 Quadrupole moment (field-independent basis, Debye-Ang):
   XX=            -11.4514   YY=            -12.1366   ZZ=            -17.8887
   XY=              0.0000   XZ=             -0.0000   YZ=              0.0000

 Normal termination of Gaussian 16 at Tue Nov 19 10:57:57 2024.
