 Gaussian 16, Revision A.03,
 Gaussian 16:  ES64L-G16RevA.03 25-Dec-2016

 ---------------------------------------
 #p UM062X/6-311+G** force int=superfine
 ---------------------------------------

 -------------------
 Title Card Required
 -------------------
 Symbolic Z-matrix:
 Charge =  0 Multiplicity = 1

                         Standard orientation:
 ---------------------------------------------------------------------
 Center     Atomic      Atomic             Coordinates (Angstroms)
 Number     Number       Type             X           Y           Z
 ---------------------------------------------------------------------
      1          6           0       -0.000000    0.517040    0.000000
      2          6           0       -0.000000   -0.517040    0.000000
      3          1           0       -0.893047    1.148419    0.000000
      4          1           0        0.893121    1.148383    0.000000
      5          1           0        0.893047   -1.148419    0.000000
      6          1           0       -0.893121   -1.148383    0.000000
 ---------------------------------------------------------------------

 SCF Done:  E(UM062X) =  -78.3902272790     A.U. after    9 cycles

 The electronic state is 1-AG.
 Alpha  occ. eigenvalues --  -10.49495 -10.48498  -0.93397  -0.63301  -0.57459
 Alpha  occ. eigenvalues --   -0.52494  -0.40585  -0.35697
 Alpha virt. eigenvalues --    0.03336   0.04256   0.04492   0.06649   0.06847
 Alpha virt. eigenvalues --    0.08742   0.09815   0.16118   0.18081   0.18110
 Alpha virt. eigenvalues --    0.18297   0.24709   0.33971   0.41175   0.43367

  Beta  occ. eigenvalues --  -10.49495 -10.48498  -0.93397  -0.63301  -0.57459
  Beta  occ. eigenvalues --   -0.52494  -0.40585  -0.35697
  Beta virt. eigenvalues --    0.03336   0.04256   0.04492   0.06649   0.06847
  Beta virt. eigenvalues --    0.08742   0.09815   0.16118   0.18081   0.18110
  Beta virt. eigenvalues --    0.18297   0.24709   0.33971   0.41175   0.43367

 Mulliken charges and spin densities:
               1          2
     1  C   -0.261237  -0.000000
     2  C   -0.261237  -0.000000
     3  H    0.130624   0.000000
     4  H    0.130614   0.000000
     5  H    0.130624   0.000000
     6  H    0.130614   0.000000
 Sum of Mulliken charges =  -0.00000   0.00000

 Dipole moment (field-independent basis, Debye):
    X=             -0.0000    Y=              0.0000    Z=              0.0000  Tot=              0.0000
 Quadrupole moment (field-independent basis, Debye-Ang):
   XX=            -12.3705   YY=            -12.4944   ZZ=            -14.5216
   XY=             -0.0002   XZ=              0.0000   YZ=              0.0000

 Normal termination of Gaussian 16 at Tue Nov 19 11:41:49 2024.
