 Gaussian 16, Revision A.03,
 Gaussian 16:  ES64L-G16RevA.03 25-Dec-2016

 --------------------------------------------
 #p opt UM062X/6-311+G** nosymm int=superfine
 --------------------------------------------

 -------------------
 Title Card Required
 -------------------
 Symbolic Z-matrix:
 Charge =  0 Multiplicity = 1

 SCF Done:  E(UM062X) =  -685.017554092     A.U. after   11 cycles
 SCF Done:  E(UM062X) =  -685.019336308     A.U. after   10 cycles
 SCF Done:  E(UM062X) =  -685.019780048     A.U. after   10 cycles
 SCF Done:  E(UM062X) =  -685.019801586     A.U. after    9 cycles
 SCF Done:  E(UM062X) =  -685.019808714     A.U. after    9 cycles
 SCF Done:  E(UM062X) =  -685.019814851     A.U. after    9 cycles
 SCF Done:  E(UM062X) =  -685.019822741     A.U. after    9 cycles
 SCF Done:  E(UM062X) =  -685.019833281     A.U. after   10 cycles
 SCF Done:  E(UM062X) =  -685.019842499     A.U. after   10 cycles
 SCF Done:  E(UM062X) =  -685.018118932     A.U. after   11 cycles
 SCF Done:  E(UM062X) =  -685.019935783     A.U. after   10 cycles
 SCF Done:  E(UM062X) =  -685.020058579     A.U. after   11 cycles
 SCF Done:  E(UM062X) =  -685.020078938     A.U. after    9 cycles
 SCF Done:  E(UM062X) =  -685.020083533     A.U. after    9 cycles
 SCF Done:  E(UM062X) =  -685.020077602     A.U. after    9 cycles
 SCF Done:  E(UM062X) =  -685.020087891     A.U. after    9 cycles
 SCF Done:  E(UM062X) =  -685.020088202     A.U. after    8 cycles
 SCF Done:  E(UM062X) =  -685.020088337     A.U. after    8 cycles
 Optimization completed.
    -- Stationary point found.

                          Input orientation:
 ---------------------------------------------------------------------
 Center     Atomic      Atomic             Coordinates (Angstroms)
 Number     Number       Type             X           Y           Z
 ---------------------------------------------------------------------
      1         15           0       -1.417217    0.000000    0.000000
      2         15           0        1.417217    0.000000    0.000000
      3          1           0        1.424312   -0.945935    1.055781
      4          1           0       -1.423814    1.018973    0.985577
      5          1           0        1.423890   -1.019626   -0.984890
      6          1           0       -1.424286    0.946623   -1.055170
 ---------------------------------------------------------------------

 Alpha  occ. eigenvalues --  -78.04068 -78.04068  -6.86444  -6.86443  -4.97986
 Alpha  occ. eigenvalues --   -4.97985  -4.97915  -4.97915  -4.97718  -4.97718
 Alpha  occ. eigenvalues --   -0.72709  -0.68859  -0.45649  -0.43716  -0.36687
 Alpha  occ. eigenvalues --   -0.35940  -0.29353
 Alpha virt. eigenvalues --   -0.06476   0.01386   0.03342   0.03374   0.04210
 Alpha virt. eigenvalues --    0.04641   0.05203   0.06269   0.06463   0.06849
 Alpha virt. eigenvalues --    0.09350   0.16598   0.18830   0.28546   0.28982

  Beta  occ. eigenvalues --  -78.04068 -78.04068  -6.86444  -6.86443  -4.97986
  Beta  occ. eigenvalues --   -4.97985  -4.97915  -4.97915  -4.97718  -4.97718
  Beta  occ. eigenvalues --   -0.72709  -0.68859  -0.45649  -0.43716  -0.36687
  Beta  occ. eigenvalues --   -0.35940  -0.29353
  Beta virt. eigenvalues --   -0.06476   0.01386   0.03342   0.03374   0.04210
  Beta virt. eigenvalues --    0.04641   0.05203   0.06269   0.06463   0.06849
  Beta virt. eigenvalues --    0.09350   0.16598   0.18830   0.28546   0.28982

 Mulliken charges and spin densities:
               1          2
     1  P   -0.046463   0.000000
     2  P   -0.046478  -0.000000
     3  H    0.023236   0.000000
     4  H    0.023227   0.000000
     5  H    0.023234   0.000000
     6  H    0.023244  -0.000000
 Sum of Mulliken charges =   0.00000   0.00000

 Dipole moment (field-independent basis, Debye):
    X=             -0.0000    Y=              0.0000    Z=              0.0005  Tot=              0.0005
 Quadrupole moment (field-independent basis, Debye-Ang):
   XX=            -30.4815   YY=            -30.9002   ZZ=            -28.0766
   XY=             -3.5514   XZ=              0.1284   YZ=              0.1012

 Normal termination of Gaussian 16 at Mon Apr 21 20:49:38 2025.
