 Gaussian 16, Revision A.03,
 Gaussian 16:  ES64L-G16RevA.03 25-Dec-2016

 ----------------------------------------------------------------------
 #p opt UM062X/6-311+G** nosymm int=superfine SCF=(MaxCycle=200,NoVarAc
 c,noincfock) guess=read
 ----------------------------------------------------------------------

 -------------------
 Title Card Required
 -------------------
 Symbolic Z-matrix:
 Charge =  0 Multiplicity = 1

 SCF Done:  E(UM062X) =  -474.350725408     A.U. after   24 cycles
 SCF Done:  E(UM062X) =  -474.377158035     A.U. after   23 cycles
 SCF Done:  E(UM062X) =  -474.380841414     A.U. after   18 cycles
 SCF Done:  E(UM062X) =  -474.380946796     A.U. after   20 cycles
 SCF Done:  E(UM062X) =  -474.381046772     A.U. after   25 cycles
 SCF Done:  E(UM062X) =  -474.381103951     A.U. after   19 cycles
 SCF Done:  E(UM062X) =  -474.381103126     A.U. after   20 cycles
 SCF Done:  E(UM062X) =  -474.381106752     A.U. after   30 cycles
 SCF Done:  E(UM062X) =  -474.381108608     A.U. after   17 cycles
 SCF Done:  E(UM062X) =  -474.381109599     A.U. after   16 cycles
 SCF Done:  E(UM062X) =  -474.381109851     A.U. after   22 cycles
 Optimization completed.
    -- Stationary point found.

                          Input orientation:
 ---------------------------------------------------------------------
 Center     Atomic      Atomic             Coordinates (Angstroms)
 Number     Number       Type             X           Y           Z
 ---------------------------------------------------------------------
      1          8           0       -1.686007    0.000000   -0.000007
      2         16           0        1.686007    0.000000    0.000007
      3          1           0       -1.663970   -0.083519    0.966261
      4          1           0        1.452507   -0.005059   -1.326390
 ---------------------------------------------------------------------

 Alpha  occ. eigenvalues --  -89.97843 -19.67288  -8.33991  -6.26206  -6.25836
 Alpha  occ. eigenvalues --   -6.25269  -1.08458  -0.83801  -0.52554  -0.49667
 Alpha  occ. eigenvalues --   -0.39771  -0.35688  -0.34412
 Alpha virt. eigenvalues --   -0.22113   0.01619   0.03833   0.04731   0.05457
 Alpha virt. eigenvalues --    0.06975   0.13486   0.19266   0.19943   0.21097
 Alpha virt. eigenvalues --    0.25799   0.30807   0.34029   0.34499   0.39077

  Beta  occ. eigenvalues --  -89.97843 -19.67288  -8.33991  -6.26206  -6.25836
  Beta  occ. eigenvalues --   -6.25269  -1.08458  -0.83801  -0.52554  -0.49667
  Beta  occ. eigenvalues --   -0.39771  -0.35688  -0.34412
  Beta virt. eigenvalues --   -0.22113   0.01619   0.03833   0.04731   0.05457
  Beta virt. eigenvalues --    0.06975   0.13486   0.19266   0.19943   0.21097
  Beta virt. eigenvalues --    0.25799   0.30807   0.34029   0.34499   0.39077

 Mulliken charges and spin densities:
               1          2
     1  O   -0.396842  -0.000000
     2  S    0.039836   0.000000
     3  H    0.245160  -0.000000
     4  H    0.111846  -0.000000
 Sum of Mulliken charges =  -0.00000   0.00000

 Dipole moment (field-independent basis, Debye):
    X=              2.2520    Y=             -0.1558    Z=              0.5507  Tot=              2.3236
 Quadrupole moment (field-independent basis, Debye-Ang):
   XX=            -18.3747   YY=            -22.7080   ZZ=            -16.1142
   XY=              0.2576   XZ=             -5.0237   YZ=             -0.1984

 Normal termination of Gaussian 16 at Tue Apr 22 05:24:11 2025.
