 Gaussian 16, Revision A.03,
 Gaussian 16:  ES64L-G16RevA.03 25-Dec-2016

 --------------------------------------------
 #p opt UM062X/6-311+G** nosymm int=superfine
 --------------------------------------------

 -------------------
 Title Card Required
 -------------------
 Symbolic Z-matrix:
 Charge =  0 Multiplicity = 1

 SCF Done:  E(UM062X) =  -76.9684347025     A.U. after    9 cycles

 Alpha  occ. eigenvalues --  -10.68316 -10.68296  -0.76330  -0.70949  -0.50330
 Alpha  occ. eigenvalues --   -0.28832  -0.28832
 Alpha virt. eigenvalues --   -0.07646  -0.07646  -0.05954   0.02253   0.03496
 Alpha virt. eigenvalues --    0.08643   0.08643   0.09800   0.10684   0.10684
 Alpha virt. eigenvalues --    0.17112   0.21719   0.24962   0.46836   0.56994

  Beta  occ. eigenvalues --  -10.68316 -10.68296  -0.76330  -0.70949  -0.50330
  Beta  occ. eigenvalues --   -0.28832  -0.28832
  Beta virt. eigenvalues --   -0.07646  -0.07646  -0.05954   0.02253   0.03496
  Beta virt. eigenvalues --    0.08643   0.08643   0.09800   0.10684   0.10684
  Beta virt. eigenvalues --    0.17112   0.21719   0.24962   0.46836   0.56994

 Mulliken charges and spin densities:
               1          2
     1  C   -0.264313   0.000000
     2  C   -0.264312  -0.000000
     3  H    0.264318   0.000000
     4  H    0.264307  -0.000000
 Sum of Mulliken charges =  -0.00000   0.00000

 Dipole moment (field-independent basis, Debye):
    X=             -0.0001    Y=             -0.0000    Z=              0.0000  Tot=              0.0001
 Quadrupole moment (field-independent basis, Debye-Ang):
   XX=             -4.0808   YY=            -16.3506   ZZ=            -16.3506
   XY=              0.0000   XZ=             -0.0000   YZ=             -0.0000

 Optimization completed.
    -- Stationary point found.

                          Input orientation:
 ---------------------------------------------------------------------
 Center     Atomic      Atomic             Coordinates (Angstroms)
 Number     Number       Type             X           Y           Z
 ---------------------------------------------------------------------
      1          6           0       -0.957625    0.000000    0.000000
      2          6           0        0.957625    0.000000    0.000000
      3          1           0       -2.040545   -0.000001    0.000001
      4          1           0        2.040505    0.000000    0.000000
 ---------------------------------------------------------------------

 Normal termination of Gaussian 16 at Tue Dec  3 20:12:53 2024.
