 Gaussian 16, Revision A.03,
 Gaussian 16:  ES64L-G16RevA.03 25-Dec-2016

 --------------------------------------------
 #p opt UM062X/6-311+G** nosymm int=superfine
 --------------------------------------------

 -------------------
 Title Card Required
 -------------------
 Symbolic Z-matrix:
 Charge =  0 Multiplicity = 1

 SCF Done:  E(UM062X) =  -151.334573113     A.U. after   21 cycles
 SCF Done:  E(UM062X) =  -151.336237953     A.U. after   22 cycles
 SCF Done:  E(UM062X) =  -151.339349606     A.U. after   24 cycles
 SCF Done:  E(UM062X) =  -151.339947066     A.U. after   25 cycles
 SCF Done:  E(UM062X) =  -151.340075459     A.U. after   27 cycles
 SCF Done:  E(UM062X) =  -151.340088389     A.U. after   19 cycles
 SCF Done:  E(UM062X) =  -151.340088546     A.U. after   15 cycles
 Optimization completed.
    -- Stationary point found.

                          Input orientation:
 ---------------------------------------------------------------------
 Center     Atomic      Atomic             Coordinates (Angstroms)
 Number     Number       Type             X           Y           Z
 ---------------------------------------------------------------------
      1          8           0       -1.511938    0.000000    0.000000
      2          8           0        1.511938    0.000000    0.000000
      3          1           0       -1.318397   -0.772092   -0.561488
      4          1           0        1.318399    0.770820    0.563236
 ---------------------------------------------------------------------

 Alpha  occ. eigenvalues --  -19.72714 -19.72713  -1.13259  -1.12616  -0.57052
 Alpha  occ. eigenvalues --   -0.56531  -0.44484  -0.43925  -0.38134
 Alpha virt. eigenvalues --   -0.25235   0.05284   0.08315   0.14751   0.15087
 Alpha virt. eigenvalues --    0.17681   0.18976   0.20688   0.21420   0.23019
 Alpha virt. eigenvalues --    0.31490   0.48598   0.52596   0.99019   0.99417

  Beta  occ. eigenvalues --  -19.72714 -19.72713  -1.13259  -1.12616  -0.57052
  Beta  occ. eigenvalues --   -0.56531  -0.44484  -0.43925  -0.38134
  Beta virt. eigenvalues --   -0.25235   0.05284   0.08315   0.14751   0.15087
  Beta virt. eigenvalues --    0.17681   0.18976   0.20688   0.21420   0.23019
  Beta virt. eigenvalues --    0.31490   0.48598   0.52596   0.99019   0.99417

 Mulliken charges and spin densities:
               1          2
     1  O   -0.269252   0.000000
     2  O   -0.269252  -0.000000
     3  H    0.269252  -0.000000
     4  H    0.269252   0.000000
 Sum of Mulliken charges =  -0.00000  -0.00000

 Dipole moment (field-independent basis, Debye):
    X=              0.0000    Y=             -0.0025    Z=              0.0035  Tot=              0.0043
 Quadrupole moment (field-independent basis, Debye-Ang):
   XX=            -12.8289   YY=            -10.4374   ZZ=            -11.9884
   XY=              4.2065   XZ=              3.0664   YZ=              2.4127

 Normal termination of Gaussian 16 at Mon Apr 21 21:32:42 2025.
