 Gaussian 16, Revision A.03,
 Gaussian 16:  ES64L-G16RevA.03 25-Dec-2016

 --------------------------------------------
 #p opt UM062X/6-311+G** nosymm int=superfine
 --------------------------------------------

 -------------------
 Title Card Required
 -------------------
 Symbolic Z-matrix:
 Charge =  0 Multiplicity = 1

 SCF Done:  E(UM062X) =  -110.149032161     A.U. after   13 cycles
 SCF Done:  E(UM062X) =  -110.149654257     A.U. after   17 cycles
 SCF Done:  E(UM062X) =  -110.151351837     A.U. after   20 cycles
 SCF Done:  E(UM062X) =  -110.152652185     A.U. after   20 cycles
 SCF Done:  E(UM062X) =  -110.152872148     A.U. after   25 cycles
 SCF Done:  E(UM062X) =  -110.152959869     A.U. after   22 cycles
 SCF Done:  E(UM062X) =  -110.152960279     A.U. after   13 cycles
 Optimization completed.
    -- Stationary point found.

                          Input orientation:
 ---------------------------------------------------------------------
 Center     Atomic      Atomic             Coordinates (Angstroms)
 Number     Number       Type             X           Y           Z
 ---------------------------------------------------------------------
      1          7           0       -2.015428    0.000000    0.000000
      2          7           0        2.015428    0.000000    0.000000
      3          1           0       -1.778999   -1.012134   -0.000000
      4          1           0        1.778999    1.012134   -0.000000
 ---------------------------------------------------------------------

 Alpha  occ. eigenvalues --  -14.88167 -14.88166  -0.92642  -0.92367  -0.48926
 Alpha  occ. eigenvalues --   -0.48822  -0.29983  -0.29351
 Alpha virt. eigenvalues --   -0.22180  -0.21428   0.04656   0.06761   0.10885
 Alpha virt. eigenvalues --    0.11344   0.12749   0.14084   0.14950   0.17041
 Alpha virt. eigenvalues --    0.18193   0.22843   0.53908   0.54138   0.74475

  Beta  occ. eigenvalues --  -14.88167 -14.88166  -0.92642  -0.92367  -0.48926
  Beta  occ. eigenvalues --   -0.48822  -0.29983  -0.29351
  Beta virt. eigenvalues --   -0.22180  -0.21428   0.04656   0.06761   0.10885
  Beta virt. eigenvalues --    0.11344   0.12749   0.14084   0.14950   0.17041
  Beta virt. eigenvalues --    0.18193   0.22843   0.53908   0.54138   0.74475

 Mulliken charges and spin densities:
               1          2
     1  N   -0.232208  -0.000000
     2  N   -0.232208   0.000000
     3  H    0.232208  -0.000000
     4  H    0.232208   0.000000
 Sum of Mulliken charges =   0.00000  -0.00000

 Dipole moment (field-independent basis, Debye):
    X=              0.0000    Y=             -0.0000    Z=             -0.0000  Tot=              0.0000
 Quadrupole moment (field-independent basis, Debye-Ang):
   XX=            -15.6365   YY=            -11.3358   ZZ=            -14.1594
   XY=              6.6463   XZ=             -0.0000   YZ=             -0.0000

 Normal termination of Gaussian 16 at Thu May 15 15:47:53 2025.
