 Gaussian 16, Revision A.03,
 Gaussian 16:  ES64L-G16RevA.03 25-Dec-2016

 ---------------------------------------
 #p UM062X/6-311+G** force int=superfine
 ---------------------------------------

 -------------------
 Title Card Required
 -------------------
 Symbolic Z-matrix:
 Charge =  0 Multiplicity = 1

                         Standard orientation:
 ---------------------------------------------------------------------
 Center     Atomic      Atomic             Coordinates (Angstroms)
 Number     Number       Type             X           Y           Z
 ---------------------------------------------------------------------
      1          6           0       -0.801765    0.000000    0.000000
      2          6           0        0.801765    0.000000   -0.000000
      3          1           0        1.179932   -0.885093    0.512150
      4          1           0       -1.179930   -0.886091   -0.510421
      5          1           0        1.179930    0.886091    0.510421
      6          1           0        1.179894   -0.000996   -1.022600
      7          1           0       -1.179932    0.885093   -0.512150
      8          1           0       -1.179894    0.000996    1.022600
 ---------------------------------------------------------------------

 SCF Done:  E(UM062X) =  -79.7945437570     A.U. after    8 cycles

 The electronic state is 1-AG.
 Alpha  occ. eigenvalues --  -10.52625 -10.52597  -0.83512  -0.70454  -0.49756
 Alpha  occ. eigenvalues --   -0.49756  -0.41075  -0.41075  -0.41031
 Alpha virt. eigenvalues --    0.02200   0.04015   0.05541   0.05541   0.08732
 Alpha virt. eigenvalues --    0.08732   0.09000   0.13825   0.18611   0.18612
 Alpha virt. eigenvalues --    0.21317   0.21317   0.24160   0.25207   0.28077

  Beta  occ. eigenvalues --  -10.52625 -10.52597  -0.83512  -0.70454  -0.49756
  Beta  occ. eigenvalues --   -0.49756  -0.41075  -0.41075  -0.41031
  Beta virt. eigenvalues --    0.02200   0.04015   0.05541   0.05541   0.08732
  Beta virt. eigenvalues --    0.08732   0.09000   0.13825   0.18611   0.18612
  Beta virt. eigenvalues --    0.21317   0.21317   0.24160   0.25207   0.28077

 Mulliken charges and spin densities:
               1          2
     1  C   -0.476119  -0.000000
     2  C   -0.476119  -0.000000
     3  H    0.158706   0.000000
     4  H    0.158706   0.000000
     5  H    0.158706   0.000000
     6  H    0.158706   0.000000
     7  H    0.158706   0.000000
     8  H    0.158706   0.000000
 Sum of Mulliken charges =  -0.00000   0.00000

 Dipole moment (field-independent basis, Debye):
    X=              0.0000    Y=              0.0000    Z=              0.0000  Tot=              0.0000
 Quadrupole moment (field-independent basis, Debye-Ang):
   XX=            -15.6277   YY=            -14.9611   ZZ=            -14.9611
   XY=             -0.0000   XZ=              0.0001   YZ=             -0.0000

 Normal termination of Gaussian 16 at Tue Nov 19 12:44:44 2024.
