 Gaussian 16, Revision A.03,
 Gaussian 16:  ES64L-G16RevA.03 25-Dec-2016

 --------------------------------------------
 #p opt UM062X/6-311+G** nosymm int=superfine
 --------------------------------------------

 -------------------
 Title Card Required
 -------------------
 Symbolic Z-matrix:
 Charge =  0 Multiplicity = 1

 SCF Done:  E(UM062X) =  -79.6129703233     A.U. after   10 cycles
 SCF Done:  E(UM062X) =  -79.6149130801     A.U. after    9 cycles
 SCF Done:  E(UM062X) =  -79.6154801313     A.U. after    8 cycles
 Optimization completed.
    -- Stationary point found.

                          Input orientation:
 ---------------------------------------------------------------------
 Center     Atomic      Atomic             Coordinates (Angstroms)
 Number     Number       Type             X           Y           Z
 ---------------------------------------------------------------------
      1          6           0       -1.571675    0.000000    0.000000
      2          6           0        1.571800    0.000000    0.000000
      3          1           0        1.688550   -0.929316    0.537738
      4          1           0       -1.688413   -0.930364   -0.535924
      5          1           0        1.688541    0.930364    0.535923
      6          1           0        1.688542   -0.001047   -1.073683
      7          1           0       -1.688425    0.929316   -0.537738
      8          1           0       -1.688420    0.001047    1.073682
 ---------------------------------------------------------------------

 Alpha  occ. eigenvalues --  -10.56848 -10.56845  -0.76956  -0.75917  -0.48773
 Alpha  occ. eigenvalues --   -0.48772  -0.48230  -0.48230  -0.24013
 Alpha virt. eigenvalues --   -0.07992   0.02933   0.05374   0.05374   0.05597
 Alpha virt. eigenvalues --    0.07796   0.07796   0.11079   0.12494   0.18403
 Alpha virt. eigenvalues --    0.18403   0.21166   0.21166   0.23999   0.25180

  Beta  occ. eigenvalues --  -10.56848 -10.56845  -0.76956  -0.75917  -0.48773
  Beta  occ. eigenvalues --   -0.48772  -0.48230  -0.48230  -0.24013
  Beta virt. eigenvalues --   -0.07992   0.02933   0.05374   0.05374   0.05597
  Beta virt. eigenvalues --    0.07796   0.07796   0.11079   0.12494   0.18403
  Beta virt. eigenvalues --    0.18403   0.21166   0.21166   0.23999   0.25180

 Mulliken charges and spin densities:
               1          2
     1  C   -0.524451   0.000000
     2  C   -0.524452  -0.000000
     3  H    0.174817   0.000000
     4  H    0.174818  -0.000000
     5  H    0.174818   0.000000
     6  H    0.174817   0.000000
     7  H    0.174817  -0.000000
     8  H    0.174817  -0.000000
 Sum of Mulliken charges =  -0.00000   0.00000

 Dipole moment (field-independent basis, Debye):
    X=             -0.0000    Y=             -0.0000    Z=             -0.0000  Tot=              0.0000
 Quadrupole moment (field-independent basis, Debye-Ang):
   XX=            -15.3834   YY=            -14.8127   ZZ=            -14.8129
   XY=             -0.0000   XZ=             -0.0000   YZ=              0.0000

 Normal termination of Gaussian 16 at Tue Dec  3 10:01:24 2024.
