 Gaussian 16, Revision A.03,
 Gaussian 16:  ES64L-G16RevA.03 25-Dec-2016

 --------------------------------------------
 #p opt UM062X/6-311+G** nosymm int=superfine
 --------------------------------------------

 -------------------
 Title Card Required
 -------------------
 Symbolic Z-matrix:
 Charge =  0 Multiplicity = 1

 SCF Done:  E(UM062X) =  -797.381680396     A.U. after   14 cycles
 SCF Done:  E(UM062X) =  -797.381772149     A.U. after   13 cycles
 SCF Done:  E(UM062X) =  -797.381918167     A.U. after   14 cycles
 SCF Done:  E(UM062X) =  -797.382053079     A.U. after   16 cycles
 SCF Done:  E(UM062X) =  -797.382305842     A.U. after   16 cycles
 SCF Done:  E(UM062X) =  -797.382415539     A.U. after   17 cycles
 SCF Done:  E(UM062X) =  -797.382438558     A.U. after   18 cycles
 SCF Done:  E(UM062X) =  -797.382437863     A.U. after   13 cycles
 SCF Done:  E(UM062X) =  -797.382438861     A.U. after   13 cycles
 SCF Done:  E(UM062X) =  -797.382438889     A.U. after   12 cycles
 SCF Done:  E(UM062X) =  -797.382439072     A.U. after   12 cycles
 SCF Done:  E(UM062X) =  -797.382439113     A.U. after   16 cycles
 Optimization completed.
    -- Stationary point found.

                          Input orientation:
 ---------------------------------------------------------------------
 Center     Atomic      Atomic             Coordinates (Angstroms)
 Number     Number       Type             X           Y           Z
 ---------------------------------------------------------------------
      1         16           0       -2.343191    0.000000    0.000000
      2         16           0        2.343191    0.000000    0.000000
      3          1           0       -2.180743   -1.227435   -0.528664
      4          1           0        2.193608    0.557826    1.216180
 ---------------------------------------------------------------------

 Alpha  occ. eigenvalues --  -89.94339 -89.94336  -8.30601  -8.30597  -6.22743
 Alpha  occ. eigenvalues --   -6.22739  -6.22499  -6.22496  -6.21930  -6.21927
 Alpha  occ. eigenvalues --   -0.81362  -0.81155  -0.47356  -0.47323  -0.33401
 Alpha  occ. eigenvalues --   -0.33282  -0.30031
 Alpha virt. eigenvalues --   -0.22524   0.01860   0.02933   0.04347   0.04930
 Alpha virt. eigenvalues --    0.06457   0.06515   0.07299   0.07442   0.08345
 Alpha virt. eigenvalues --    0.12948   0.31219   0.31482   0.32752   0.34936

  Beta  occ. eigenvalues --  -89.94339 -89.94336  -8.30601  -8.30597  -6.22743
  Beta  occ. eigenvalues --   -6.22739  -6.22499  -6.22496  -6.21930  -6.21927
  Beta  occ. eigenvalues --   -0.81362  -0.81155  -0.47356  -0.47323  -0.33401
  Beta  occ. eigenvalues --   -0.33282  -0.30031
  Beta virt. eigenvalues --   -0.22524   0.01860   0.02933   0.04347   0.04930
  Beta virt. eigenvalues --    0.06457   0.06515   0.07299   0.07442   0.08345
  Beta virt. eigenvalues --    0.12948   0.31219   0.31482   0.32752   0.34936

 Mulliken charges and spin densities:
               1          2
     1  S   -0.080954   0.000000
     2  S   -0.081484   0.000000
     3  H    0.081238   0.000000
     4  H    0.081200   0.000000
 Sum of Mulliken charges =  -0.00000   0.00000

 Dipole moment (field-independent basis, Debye):
    X=              0.0070    Y=             -0.5571    Z=              0.5702  Tot=              0.7972
 Quadrupole moment (field-independent basis, Debye-Ang):
   XX=            -25.9834   YY=            -28.0341   ZZ=            -28.1727
   XY=              3.3441   XZ=              3.2791   YZ=              2.9958

 Normal termination of Gaussian 16 at Mon Apr 21 21:20:28 2025.
