 Gaussian 16, Revision A.03,
 Gaussian 16:  ES64L-G16RevA.03 25-Dec-2016

 --------------------------------------------
 #p opt UM062X/6-311+G** nosymm int=superfine
 --------------------------------------------

 -------------------
 Title Card Required
 -------------------
 Symbolic Z-matrix:
 Charge =  0 Multiplicity = 1

 SCF Done:  E(UM062X) =  -77.6631216842     A.U. after   10 cycles
 SCF Done:  E(UM062X) =  -77.7233428615     A.U. after    8 cycles
 SCF Done:  E(UM062X) =  -77.7815205150     A.U. after    9 cycles
 SCF Done:  E(UM062X) =  -77.7871813353     A.U. after    8 cycles
 SCF Done:  E(UM062X) =  -77.7872021885     A.U. after    7 cycles
 Optimization completed.
    -- Stationary point found.

                          Input orientation:
 ---------------------------------------------------------------------
 Center     Atomic      Atomic             Coordinates (Angstroms)
 Number     Number       Type             X           Y           Z
 ---------------------------------------------------------------------
      1          6           0       -0.417609    0.000000    0.000000
      2          6           0        0.417609    0.000000    0.000000
      3          1           0       -1.116075   -0.860848    0.000000
      4          1           0       -1.116060    0.860859    0.000000
      5          1           0        1.116075    0.860848   -0.000000
      6          1           0        1.116060   -0.860859    0.000000
 ---------------------------------------------------------------------

 Alpha  occ. eigenvalues --  -10.51551 -10.45940  -0.95030  -0.61479  -0.61150
 Alpha  occ. eigenvalues --   -0.53603  -0.48304  -0.30484
 Alpha virt. eigenvalues --    0.03099   0.03569   0.04239   0.06118   0.07865
 Alpha virt. eigenvalues --    0.09166   0.09854   0.16034   0.16037   0.18595
 Alpha virt. eigenvalues --    0.23288   0.25291   0.36044   0.42110   0.43155

  Beta  occ. eigenvalues --  -10.51551 -10.45940  -0.95030  -0.61479  -0.61150
  Beta  occ. eigenvalues --   -0.53603  -0.48304  -0.30484
  Beta virt. eigenvalues --    0.03099   0.03569   0.04239   0.06118   0.07865
  Beta virt. eigenvalues --    0.09166   0.09854   0.16034   0.16037   0.18595
  Beta virt. eigenvalues --    0.23288   0.25291   0.36044   0.42110   0.43155

 Mulliken charges and spin densities:
               1          2
     1  C   -0.244603  -0.000000
     2  C   -0.244603   0.000000
     3  H    0.122303   0.000000
     4  H    0.122301   0.000000
     5  H    0.122303  -0.000000
     6  H    0.122301   0.000000
 Sum of Mulliken charges =  -0.00000  -0.00000

 Dipole moment (field-independent basis, Debye):
    X=              0.0000    Y=             -0.0000    Z=              0.0000  Tot=              0.0000
 Quadrupole moment (field-independent basis, Debye-Ang):
   XX=            -12.6352   YY=            -12.5000   ZZ=            -13.5273
   XY=              0.0000   XZ=             -0.0000   YZ=             -0.0000

 Normal termination of Gaussian 16 at Tue Nov 19 10:18:06 2024.
