 Gaussian 16, Revision A.03,
 Gaussian 16:  ES64L-G16RevA.03 25-Dec-2016

 --------------------------------------------
 #p opt UM062X/6-311+G** nosymm int=superfine
 --------------------------------------------

 -------------------
 Title Card Required
 -------------------
 Symbolic Z-matrix:
 Charge =  0 Multiplicity = 1

 SCF Done:  E(UM062X) =  -79.5788827000     A.U. after    9 cycles
 SCF Done:  E(UM062X) =  -79.6208812034     A.U. after    8 cycles
 SCF Done:  E(UM062X) =  -79.6671254151     A.U. after   10 cycles
 SCF Done:  E(UM062X) =  -79.6831158316     A.U. after   10 cycles
 SCF Done:  E(UM062X) =  -79.6841696985     A.U. after    8 cycles
 SCF Done:  E(UM062X) =  -79.6841715959     A.U. after    7 cycles
 Optimization completed.
    -- Stationary point found.

                          Input orientation:
 ---------------------------------------------------------------------
 Center     Atomic      Atomic             Coordinates (Angstroms)
 Number     Number       Type             X           Y           Z
 ---------------------------------------------------------------------
      1          6           0       -1.214040    0.000000    0.000000
      2          6           0        1.214164    0.000000    0.000000
      3          1           0        1.426865   -0.918373    0.531415
      4          1           0       -1.426728   -0.919413   -0.529623
      5          1           0        1.426855    0.919413    0.529621
      6          1           0        1.426838   -0.001034   -1.061052
      7          1           0       -1.426740    0.918373   -0.531415
      8          1           0       -1.426719    0.001033    1.061051
 ---------------------------------------------------------------------

 Alpha  occ. eigenvalues --  -10.55712 -10.55707  -0.77471  -0.74137  -0.48282
 Alpha  occ. eigenvalues --   -0.48282  -0.46303  -0.46302  -0.28397
 Alpha virt. eigenvalues --   -0.01587   0.02539   0.05526   0.05526   0.07007
 Alpha virt. eigenvalues --    0.08240   0.08240   0.10109   0.12992   0.18166
 Alpha virt. eigenvalues --    0.18166   0.22028   0.22028   0.24363   0.26155

  Beta  occ. eigenvalues --  -10.55712 -10.55707  -0.77471  -0.74137  -0.48282
  Beta  occ. eigenvalues --   -0.48282  -0.46303  -0.46302  -0.28397
  Beta virt. eigenvalues --   -0.01587   0.02539   0.05526   0.05526   0.07007
  Beta virt. eigenvalues --    0.08240   0.08240   0.10109   0.12992   0.18166
  Beta virt. eigenvalues --    0.18166   0.22028   0.22028   0.24363   0.26155

 Mulliken charges and spin densities:
               1          2
     1  C   -0.510348   0.000000
     2  C   -0.510348  -0.000000
     3  H    0.170116  -0.000000
     4  H    0.170116   0.000000
     5  H    0.170116  -0.000000
     6  H    0.170116  -0.000000
     7  H    0.170116   0.000000
     8  H    0.170116  -0.000000
 Sum of Mulliken charges =  -0.00000  -0.00000

 Dipole moment (field-independent basis, Debye):
    X=              0.0000    Y=             -0.0000    Z=             -0.0000  Tot=              0.0000
 Quadrupole moment (field-independent basis, Debye-Ang):
   XX=            -15.5310   YY=            -14.8061   ZZ=            -14.8061
   XY=             -0.0000   XZ=              0.0000   YZ=             -0.0000

 Normal termination of Gaussian 16 at Tue Nov 19 12:23:29 2024.
