 Gaussian 16, Revision A.03,
 Gaussian 16:  ES64L-G16RevA.03 25-Dec-2016

 --------------------------------------------
 #p opt UM062X/6-311+G** nosymm int=superfine
 --------------------------------------------

 -------------------
 Title Card Required
 -------------------
 Symbolic Z-matrix:
 Charge =  0 Multiplicity = 1

 SCF Done:  E(UM062X) =  -581.142914485     A.U. after    9 cycles
 SCF Done:  E(UM062X) =  -581.162521069     A.U. after    8 cycles
 SCF Done:  E(UM062X) =  -581.174450240     A.U. after    8 cycles
 SCF Done:  E(UM062X) =  -581.174470210     A.U. after    7 cycles
 Optimization completed.
    -- Stationary point found.

                          Input orientation:
 ---------------------------------------------------------------------
 Center     Atomic      Atomic             Coordinates (Angstroms)
 Number     Number       Type             X           Y           Z
 ---------------------------------------------------------------------
      1         14           0       -2.437518    0.000000    0.000000
      2         14           0        2.437518    0.000000    0.000000
      3          1           0       -3.500229   -1.084335    0.000046
      4          1           0        3.500229    1.084335   -0.000540
      5          1           0       -3.500234    1.084331    0.000263
      6          1           0        3.500234   -1.084331    0.000849
 ---------------------------------------------------------------------

 Alpha  occ. eigenvalues --  -67.01309 -67.01309  -5.56031  -5.56031  -3.87279
 Alpha  occ. eigenvalues --   -3.87279  -3.86737  -3.86737  -3.86594  -3.86594
 Alpha  occ. eigenvalues --   -0.57279  -0.57227  -0.37867  -0.37848  -0.28894
 Alpha  occ. eigenvalues --   -0.27435
 Alpha virt. eigenvalues --   -0.08122  -0.07616   0.02079   0.02490   0.02974
 Alpha virt. eigenvalues --    0.04548   0.05563   0.06052   0.06191   0.07360
 Alpha virt. eigenvalues --    0.07905   0.09006   0.11357   0.13961   0.28682

  Beta  occ. eigenvalues --  -67.01309 -67.01309  -5.56031  -5.56031  -3.87279
  Beta  occ. eigenvalues --   -3.87279  -3.86737  -3.86737  -3.86594  -3.86594
  Beta  occ. eigenvalues --   -0.57279  -0.57227  -0.37867  -0.37848  -0.28894
  Beta  occ. eigenvalues --   -0.27435
  Beta virt. eigenvalues --   -0.08122  -0.07616   0.02079   0.02490   0.02974
  Beta virt. eigenvalues --    0.04548   0.05563   0.06052   0.06191   0.07360
  Beta virt. eigenvalues --    0.07905   0.09006   0.11357   0.13961   0.28682

 Mulliken charges and spin densities:
               1          2
     1  Si   0.323077   0.000000
     2  Si   0.323077  -0.000000
     3  H   -0.161538   0.000000
     4  H   -0.161538   0.000000
     5  H   -0.161538   0.000000
     6  H   -0.161538   0.000000
 Sum of Mulliken charges =  -0.00000  -0.00000

 Dipole moment (field-independent basis, Debye):
    X=              0.0000    Y=              0.0000    Z=              0.0001  Tot=              0.0001
 Quadrupole moment (field-independent basis, Debye-Ang):
   XX=            -35.1496   YY=            -32.7170   ZZ=            -24.3721
   XY=             -0.0000   XZ=              0.0000   YZ=              0.0023

 Normal termination of Gaussian 16 at Mon Apr 21 20:36:02 2025.
