 Gaussian 16, Revision A.03,
 Gaussian 16:  ES64L-G16RevA.03 25-Dec-2016

 --------------------------------------------
 #p opt UM062X/6-311+G** nosymm int=superfine
 --------------------------------------------

 -------------------
 Title Card Required
 -------------------
 Symbolic Z-matrix:
 Charge =  1 Multiplicity = 2

 SCF Done:  E(UM062X) =  -80.1630291733     A.U. after   18 cycles
 SCF Done:  E(UM062X) =  -80.1638242910     A.U. after   10 cycles
 SCF Done:  E(UM062X) =  -80.1638267503     A.U. after    8 cycles
 Optimization completed.
    -- Stationary point found.

                          Input orientation:
 ---------------------------------------------------------------------
 Center     Atomic      Atomic             Coordinates (Angstroms)
 Number     Number       Type             X           Y           Z
 ---------------------------------------------------------------------
      1          5           0       -1.527734    0.000000    0.000000
      2          7           0        1.527734    0.000000    0.000000
      3          1           0       -2.731539   -0.000340    0.000000
      4          1           0        2.563635   -0.000130   -0.000000
 ---------------------------------------------------------------------

 Alpha  occ. eigenvalues --  -14.98453  -7.52490  -1.11256  -0.85269  -0.65519
 Alpha  occ. eigenvalues --   -0.57832  -0.57832
 Alpha virt. eigenvalues --   -0.41050  -0.33219  -0.33219  -0.14652  -0.10937
 Alpha virt. eigenvalues --   -0.09723  -0.09723  -0.06748  -0.01287   0.00176
 Alpha virt. eigenvalues --    0.00176   0.05312   0.08177   0.13892   0.13892

  Beta  occ. eigenvalues --  -14.96047  -7.53744  -0.98540  -0.88820  -0.67738
  Beta  occ. eigenvalues --   -0.59243
  Beta virt. eigenvalues --   -0.35225  -0.35225  -0.22373  -0.22373  -0.14280
  Beta virt. eigenvalues --   -0.10785  -0.09368  -0.09368  -0.07185  -0.01536
  Beta virt. eigenvalues --    0.01897   0.01897   0.05149   0.09252   0.16337

 Mulliken charges and spin densities:
               1          2
     1  B    0.725605  -0.828231
     2  N   -0.240854   2.044201
     3  H    0.219331  -0.142120
     4  H    0.295918  -0.073850
 Sum of Mulliken charges =   1.00000   1.00000

 Dipole moment (field-independent basis, Debye):
    X=             -5.3786    Y=             -0.0005    Z=              0.0000  Tot=              5.3786
 Quadrupole moment (field-independent basis, Debye-Ang):
   XX=             11.2244   YY=            -10.2748   ZZ=            -10.2748
   XY=             -0.0000   XZ=             -0.0000   YZ=              0.0000

 Normal termination of Gaussian 16 at Mon Apr 21 17:58:25 2025.
