 Gaussian 16, Revision A.03,
 Gaussian 16:  ES64L-G16RevA.03 25-Dec-2016

 --------------------------------------------
 #p opt UM062X/6-311+G** nosymm int=superfine
 --------------------------------------------

 -------------------
 Title Card Required
 -------------------
 Symbolic Z-matrix:
 Charge =  0 Multiplicity = 1

 SCF Done:  E(UM062X) =  -380.930085066     A.U. after   18 cycles
 SCF Done:  E(UM062X) =  -380.932823563     A.U. after   16 cycles
 SCF Done:  E(UM062X) =  -380.933778310     A.U. after   14 cycles
 SCF Done:  E(UM062X) =  -380.933828542     A.U. after   16 cycles
 SCF Done:  E(UM062X) =  -380.934104931     A.U. after   15 cycles
 SCF Done:  E(UM062X) =  -380.934125674     A.U. after   21 cycles
 SCF Done:  E(UM062X) =  -380.934128156     A.U. after   19 cycles
 SCF Done:  E(UM062X) =  -380.934129733     A.U. after   13 cycles
 SCF Done:  E(UM062X) =  -380.934130054     A.U. after   16 cycles
 SCF Done:  E(UM062X) =  -380.934132663     A.U. after   23 cycles
 SCF Done:  E(UM062X) =  -380.934135759     A.U. after   17 cycles
 SCF Done:  E(UM062X) =  -380.934136059     A.U. after   13 cycles
 SCF Done:  E(UM062X) =  -380.934136076     A.U. after   16 cycles
 Optimization completed on the basis of negligible forces.
    -- Stationary point found.

                          Input orientation:
 ---------------------------------------------------------------------
 Center     Atomic      Atomic             Coordinates (Angstroms)
 Number     Number       Type             X           Y           Z
 ---------------------------------------------------------------------
      1          6           0       -2.005452    0.000000    0.000000
      2         15           0        2.005452    0.000000    0.000000
      3          1           0       -2.727905   -0.838259   -0.005533
      4          1           0        1.742958   -1.396745    0.009595
      5          1           0       -2.657167    0.894245    0.004425
 ---------------------------------------------------------------------

 Alpha  occ. eigenvalues --  -78.04401 -10.62524  -6.86654  -4.98663  -4.97894
 Alpha  occ. eigenvalues --   -4.97436  -0.77089  -0.65466  -0.49265  -0.38156
 Alpha  occ. eigenvalues --   -0.33071  -0.24291
 Alpha virt. eigenvalues --   -0.11134  -0.09593   0.01378   0.03821   0.04659
 Alpha virt. eigenvalues --    0.06107   0.06933   0.07414   0.08777   0.10672
 Alpha virt. eigenvalues --    0.13529   0.17269   0.18735   0.31272   0.33404

  Beta  occ. eigenvalues --  -78.04401 -10.62524  -6.86654  -4.98663  -4.97894
  Beta  occ. eigenvalues --   -4.97436  -0.77089  -0.65466  -0.49265  -0.38156
  Beta  occ. eigenvalues --   -0.33071  -0.24291
  Beta virt. eigenvalues --   -0.11134  -0.09593   0.01378   0.03821   0.04659
  Beta virt. eigenvalues --    0.06107   0.06933   0.07414   0.08777   0.10672
  Beta virt. eigenvalues --    0.13529   0.17269   0.18735   0.31272   0.33404

 Mulliken charges and spin densities:
               1          2
     1  C   -0.289506   0.000000
     2  P    0.039823  -0.000000
     3  H    0.141358   0.000000
     4  H   -0.032915  -0.000000
     5  H    0.141240  -0.000000
 Sum of Mulliken charges =  -0.00000  -0.00000

 Dipole moment (field-independent basis, Debye):
    X=             -2.6195    Y=             -0.5836    Z=              0.0029  Tot=              2.6838
 Quadrupole moment (field-independent basis, Debye-Ang):
   XX=            -12.6873   YY=            -21.3496   ZZ=            -25.3172
   XY=             -2.0237   XZ=              0.0094   YZ=             -0.0341

 Normal termination of Gaussian 16 at Mon Apr 21 19:19:41 2025.
