 Gaussian 16, Revision A.03,
 Gaussian 16:  ES64L-G16RevA.03 25-Dec-2016

 --------------------------------------------
 #p opt UM062X/6-311+G** nosymm int=superfine
 --------------------------------------------

 -------------------
 Title Card Required
 -------------------
 Symbolic Z-matrix:
 Charge =  1 Multiplicity = 2

 SCF Done:  E(UM062X) =  -76.5840826010     A.U. after   11 cycles
 SCF Done:  E(UM062X) =  -76.5844153534     A.U. after   22 cycles
 Optimization completed.
    -- Stationary point found.

                          Input orientation:
 ---------------------------------------------------------------------
 Center     Atomic      Atomic             Coordinates (Angstroms)
 Number     Number       Type             X           Y           Z
 ---------------------------------------------------------------------
      1          6           0       -2.057160    0.000000    0.000000
      2          6           0        2.057160    0.000000    0.000000
      3          1           0       -3.174690    0.000000    0.000000
      4          1           0        3.174689   -0.000000    0.000000
 ---------------------------------------------------------------------

 Alpha  occ. eigenvalues --  -10.94157 -10.94156  -0.97850  -0.97762  -0.63454
 Alpha  occ. eigenvalues --   -0.62693  -0.47476
 Alpha virt. eigenvalues --   -0.40614  -0.32969  -0.32749  -0.12052  -0.11212
 Alpha virt. eigenvalues --   -0.07544  -0.07159  -0.05639  -0.04658  -0.04337
 Alpha virt. eigenvalues --   -0.01599  -0.00352   0.05634   0.27430   0.28925

  Beta  occ. eigenvalues --  -10.93743 -10.93743  -0.95457  -0.95429  -0.62106
  Beta  occ. eigenvalues --   -0.61285
  Beta virt. eigenvalues --   -0.31116  -0.30832  -0.29513  -0.29181  -0.12504
  Beta virt. eigenvalues --   -0.11143  -0.06859  -0.06179  -0.06032  -0.03889
  Beta virt. eigenvalues --   -0.02945  -0.01968   0.01219   0.07348   0.26545

 Mulliken charges and spin densities:
               1          2
     1  C    0.273826   0.516375
     2  C    0.273825   0.516375
     3  H    0.226174  -0.016375
     4  H    0.226174  -0.016375
 Sum of Mulliken charges =   1.00000   1.00000

 Dipole moment (field-independent basis, Debye):
    X=             -0.0000    Y=              0.0000    Z=             -0.0000  Tot=              0.0000
 Quadrupole moment (field-independent basis, Debye-Ang):
   XX=             26.3944   YY=            -11.0414   ZZ=             -9.9145
   XY=              0.0000   XZ=              0.0000   YZ=             -0.8253

 Normal termination of Gaussian 16 at Tue Dec  3 11:34:30 2024.
