 Gaussian 16, Revision A.03,
 Gaussian 16:  ES64L-G16RevA.03 25-Dec-2016

 --------------------------------------------
 #p opt UM062X/6-311+G** nosymm int=superfine
 --------------------------------------------

 -------------------
 Title Card Required
 -------------------
 Symbolic Z-matrix:
 Charge =  0 Multiplicity = 1

 SCF Done:  E(UM062X) =  -81.6933016276     A.U. after   26 cycles
 SCF Done:  E(UM062X) =  -81.7086389814     A.U. after   16 cycles
 SCF Done:  E(UM062X) =  -81.7151001233     A.U. after   16 cycles
 SCF Done:  E(UM062X) =  -81.7169680798     A.U. after   16 cycles
 SCF Done:  E(UM062X) =  -81.7203270615     A.U. after   13 cycles
 SCF Done:  E(UM062X) =  -81.7220482097     A.U. after   20 cycles
 SCF Done:  E(UM062X) =  -81.7222639289     A.U. after   14 cycles
 SCF Done:  E(UM062X) =  -81.7225035835     A.U. after   12 cycles
 SCF Done:  E(UM062X) =  -81.7226772650     A.U. after   14 cycles
 SCF Done:  E(UM062X) =  -81.7227399902     A.U. after   13 cycles
 SCF Done:  E(UM062X) =  -81.7227557870     A.U. after   13 cycles
 SCF Done:  E(UM062X) =  -81.7227563025     A.U. after   11 cycles
 Optimization completed.
    -- Stationary point found.

                          Input orientation:
 ---------------------------------------------------------------------
 Center     Atomic      Atomic             Coordinates (Angstroms)
 Number     Number       Type             X           Y           Z
 ---------------------------------------------------------------------
      1          5           0       -1.995399    0.000000    0.000000
      2          7           0        1.995399    0.000000    0.000000
      3          1           0       -2.315627   -1.126795   -0.026861
      4          1           0        1.971189    0.802349    0.637962
      5          1           0       -2.315629    1.126788   -0.027144
      6          1           0        1.971191   -0.802178    0.638177
 ---------------------------------------------------------------------

 Alpha  occ. eigenvalues --  -14.71547  -7.18628  -0.87302  -0.63397  -0.52147
 Alpha  occ. eigenvalues --   -0.47961  -0.33219  -0.22679
 Alpha virt. eigenvalues --   -0.11997  -0.09261   0.00529   0.02556   0.04158
 Alpha virt. eigenvalues --    0.04985   0.09014   0.11275   0.13538   0.17393
 Alpha virt. eigenvalues --    0.19816   0.20153   0.21744   0.26565   0.32189

  Beta  occ. eigenvalues --  -14.71547  -7.18628  -0.87302  -0.63397  -0.52147
  Beta  occ. eigenvalues --   -0.47961  -0.33219  -0.22679
  Beta virt. eigenvalues --   -0.11997  -0.09261   0.00529   0.02556   0.04158
  Beta virt. eigenvalues --    0.04985   0.09014   0.11275   0.13538   0.17393
  Beta virt. eigenvalues --    0.19816   0.20153   0.21744   0.26565   0.32189

 Mulliken charges and spin densities:
               1          2
     1  B    0.140664   0.000002
     2  N   -0.684275  -0.000002
     3  H    0.070982   0.000000
     4  H    0.200824   0.000000
     5  H    0.070982   0.000000
     6  H    0.200824   0.000000
 Sum of Mulliken charges =  -0.00000   0.00000

 Dipole moment (field-independent basis, Debye):
    X=             -5.7723    Y=              0.0003    Z=              1.8910  Tot=              6.0741
 Quadrupole moment (field-independent basis, Debye-Ang):
   XX=            -13.8337   YY=            -13.4649   ZZ=            -14.6336
   XY=              0.0005   XZ=              3.9979   YZ=             -0.0002

 Normal termination of Gaussian 16 at Mon Apr 21 17:55:38 2025.
