 Gaussian 16, Revision A.03,
 Gaussian 16:  ES64L-G16RevA.03 25-Dec-2016

 --------------------------------------------
 #p opt UM062X/6-311+G** nosymm int=superfine
 --------------------------------------------

 -------------------
 Title Card Required
 -------------------
 Symbolic Z-matrix:
 Charge =  0 Multiplicity = 1

 SCF Done:  E(UM062X) =  -114.085563339     A.U. after   18 cycles
 SCF Done:  E(UM062X) =  -114.088201877     A.U. after   10 cycles
 SCF Done:  E(UM062X) =  -114.089031398     A.U. after    9 cycles
 SCF Done:  E(UM062X) =  -114.089035281     A.U. after    8 cycles
 Optimization completed.
    -- Stationary point found.

                          Input orientation:
 ---------------------------------------------------------------------
 Center     Atomic      Atomic             Coordinates (Angstroms)
 Number     Number       Type             X           Y           Z
 ---------------------------------------------------------------------
      1          6           0       -1.848311    0.000000    0.000000
      2          8           0        1.848311    0.000000    0.000000
      3          1           0       -2.533881   -0.868505    0.000002
      4          1           0       -2.533886    0.868501    0.000002
 ---------------------------------------------------------------------

 Alpha  occ. eigenvalues --  -19.74699 -10.62513  -1.04451  -0.77016  -0.49242
 Alpha  occ. eigenvalues --   -0.43351  -0.43347  -0.32733
 Alpha virt. eigenvalues --   -0.17437  -0.09474   0.01752   0.06035   0.07936
 Alpha virt. eigenvalues --    0.08326   0.15862   0.16482   0.18597   0.19426
 Alpha virt. eigenvalues --    0.21492   0.25334   0.43719   0.47446   0.57778

  Beta  occ. eigenvalues --  -19.74699 -10.62513  -1.04451  -0.77016  -0.49242
  Beta  occ. eigenvalues --   -0.43351  -0.43347  -0.32733
  Beta virt. eigenvalues --   -0.17437  -0.09474   0.01752   0.06035   0.07936
  Beta virt. eigenvalues --    0.08326   0.15862   0.16482   0.18597   0.19426
  Beta virt. eigenvalues --    0.21492   0.25334   0.43719   0.47446   0.57778

 Mulliken charges and spin densities:
               1          2
     1  C   -0.265833  -0.000000
     2  O   -0.016626  -0.000000
     3  H    0.141229  -0.000000
     4  H    0.141229   0.000000
 Sum of Mulliken charges =  -0.00000  -0.00000

 Dipole moment (field-independent basis, Debye):
    X=             -2.6595    Y=             -0.0000    Z=              0.0000  Tot=              2.6595
 Quadrupole moment (field-independent basis, Debye-Ang):
   XX=             -5.0825   YY=            -13.1312   ZZ=            -12.4913
   XY=              0.0000   XZ=             -0.0000   YZ=             -0.0000

 Normal termination of Gaussian 16 at Mon Apr 21 18:56:25 2025.
