 Gaussian 16, Revision A.03,
 Gaussian 16:  ES64L-G16RevA.03 25-Dec-2016

 --------------------------------
 #p UM062X/6-311+G** Pop=NBO Read
 --------------------------------

 ------------
 NBO Analysis
 ------------
 Symbolic Z-matrix:
 Charge =  0 Multiplicity = 1

                         Standard orientation:
 ---------------------------------------------------------------------
 Center     Atomic      Atomic             Coordinates (Angstroms)
 Number     Number       Type             X           Y           Z
 ---------------------------------------------------------------------
      1          8           0        0.000000    0.000000    0.593562
      2          8           0        0.000000    0.000000   -0.593562
 ---------------------------------------------------------------------

 SCF Done:  E(UM062X) =  -150.205620514     A.U. after   10 cycles

 Unable to determine electronic state:  an orbital has unidentified symmetry.
 Alpha  occ. eigenvalues --  -19.80728 -19.80668  -1.44862  -0.91766  -0.63100
 Alpha  occ. eigenvalues --   -0.63089  -0.60982  -0.34138
 Alpha virt. eigenvalues --   -0.11942   0.10999   0.11004   0.14244   0.15270
 Alpha virt. eigenvalues --    0.20673   0.22248   0.22710   0.35513   0.36146
 Alpha virt. eigenvalues --    1.10961   1.11907   1.12860   1.14491   1.18953

  Beta  occ. eigenvalues --  -19.80728 -19.80668  -1.44862  -0.91766  -0.63100
  Beta  occ. eigenvalues --   -0.63089  -0.60982  -0.34138
  Beta virt. eigenvalues --   -0.11942   0.10999   0.11004   0.14244   0.15270
  Beta virt. eigenvalues --    0.20673   0.22248   0.22710   0.35513   0.36146
  Beta virt. eigenvalues --    1.10961   1.11907   1.12860   1.14491   1.18953

 Mulliken charges and spin densities:
               1          2
     1  O   -0.000000   0.000000
     2  O   -0.000000   0.000000
 Sum of Mulliken charges =  -0.00000   0.00000

 Dipole moment (field-independent basis, Debye):
    X=             -0.0000    Y=              0.0000    Z=              0.0000  Tot=              0.0000
 Quadrupole moment (field-independent basis, Debye-Ang):
   XX=            -11.0883   YY=             -9.2009   ZZ=            -10.9073
   XY=              0.0000   XZ=              0.0000   YZ=             -0.0000

 Summary of Natural Population Analysis:

                                       Natural Population
                Natural  -----------------------------------------------
    Atom  No    Charge         Core      Valence    Rydberg      Total
 -----------------------------------------------------------------------
      O    1    0.00000      0.99995     2.98143    0.01862     4.00000
      O    2    0.00000      0.99995     2.98143    0.01862     4.00000
 =======================================================================
   * Total *    0.00000      1.99990     5.96285    0.03724     8.00000

 Normal termination of Gaussian 16 at Wed Apr 16 04:52:17 2025.
