 Gaussian 16, Revision A.03,
 Gaussian 16:  ES64L-G16RevA.03 25-Dec-2016

 --------------------------------------------
 #p opt UM062X/6-311+G** nosymm int=superfine
 --------------------------------------------

 -------------------
 Title Card Required
 -------------------
 Symbolic Z-matrix:
 Charge =  0 Multiplicity = 1

 SCF Done:  E(UM062X) =  -379.550332334     A.U. after   15 cycles
 SCF Done:  E(UM062X) =  -379.551780879     A.U. after   10 cycles
 SCF Done:  E(UM062X) =  -379.551787329     A.U. after   10 cycles
 Optimization completed.
    -- Stationary point found.

                          Input orientation:
 ---------------------------------------------------------------------
 Center     Atomic      Atomic             Coordinates (Angstroms)
 Number     Number       Type             X           Y           Z
 ---------------------------------------------------------------------
      1          6           0       -2.140377    0.000000    0.000000
      2         15           0        2.140377    0.000000    0.000000
      3          1           0       -3.263583   -0.000000    0.000000
 ---------------------------------------------------------------------

 Alpha  occ. eigenvalues --  -78.06281 -10.72316  -6.88229  -5.00156  -4.99202
 Alpha  occ. eigenvalues --   -4.99202  -0.77102  -0.59870  -0.42714  -0.22959
 Alpha  occ. eigenvalues --   -0.22959
 Alpha virt. eigenvalues --   -0.16100  -0.16100  -0.11413   0.01004   0.04297
 Alpha virt. eigenvalues --    0.05940   0.05940   0.07578   0.08224   0.08224
 Alpha virt. eigenvalues --    0.12592   0.15528   0.33008   0.33857   0.33857

  Beta  occ. eigenvalues --  -78.06281 -10.72316  -6.88229  -5.00156  -4.99202
  Beta  occ. eigenvalues --   -4.99202  -0.77102  -0.59870  -0.42714  -0.22959
  Beta  occ. eigenvalues --   -0.22959
  Beta virt. eigenvalues --   -0.16100  -0.16100  -0.11413   0.01004   0.04297
  Beta virt. eigenvalues --    0.05940   0.05940   0.07578   0.08224   0.08224
  Beta virt. eigenvalues --    0.12592   0.15528   0.33008   0.33857   0.33857

 Mulliken charges and spin densities:
               1          2
     1  C   -0.056155  -0.000000
     2  P   -0.101176   0.000000
     3  H    0.157331   0.000000
 Sum of Mulliken charges =  -0.00000  -0.00000

 Dipole moment (field-independent basis, Debye):
    X=             -4.0002    Y=             -0.0000    Z=             -0.0000  Tot=              4.0002
 Quadrupole moment (field-independent basis, Debye-Ang):
   XX=             -9.7116   YY=            -24.1404   ZZ=            -24.1404
   XY=              0.0000   XZ=             -0.0000   YZ=             -0.0000

 Normal termination of Gaussian 16 at Mon Apr 21 19:30:31 2025.
