 Gaussian 16, Revision A.03,
 Gaussian 16:  ES64L-G16RevA.03 25-Dec-2016

 --------------------------------------------
 #p opt UM062X/6-311+G** nosymm int=superfine
 --------------------------------------------

 -------------------
 Title Card Required
 -------------------
 Symbolic Z-matrix:
 Charge =  0 Multiplicity = 1

 SCF Done:  E(UM062X) =  -114.093042608     A.U. after   13 cycles
 SCF Done:  E(UM062X) =  -114.094882061     A.U. after   10 cycles
 SCF Done:  E(UM062X) =  -114.095456906     A.U. after    9 cycles
 SCF Done:  E(UM062X) =  -114.095461925     A.U. after    8 cycles
 Optimization completed.
    -- Stationary point found.

                          Input orientation:
 ---------------------------------------------------------------------
 Center     Atomic      Atomic             Coordinates (Angstroms)
 Number     Number       Type             X           Y           Z
 ---------------------------------------------------------------------
      1          6           0       -1.623311    0.000000    0.000000
      2          8           0        1.623311    0.000000    0.000000
      3          1           0       -2.291370   -0.878448   -0.000001
      4          1           0       -2.291375    0.878445   -0.000000
 ---------------------------------------------------------------------

 Alpha  occ. eigenvalues --  -19.72514 -10.64301  -1.02452  -0.78242  -0.50920
 Alpha  occ. eigenvalues --   -0.41318  -0.41310  -0.33816
 Alpha virt. eigenvalues --   -0.15771  -0.10564   0.01393   0.05777   0.07620
 Alpha virt. eigenvalues --    0.08108   0.15626   0.17369   0.17929   0.20492
 Alpha virt. eigenvalues --    0.22948   0.27314   0.43016   0.46095   0.56773

  Beta  occ. eigenvalues --  -19.72514 -10.64301  -1.02452  -0.78242  -0.50920
  Beta  occ. eigenvalues --   -0.41318  -0.41310  -0.33816
  Beta virt. eigenvalues --   -0.15771  -0.10564   0.01393   0.05777   0.07620
  Beta virt. eigenvalues --    0.08108   0.15626   0.17369   0.17929   0.20492
  Beta virt. eigenvalues --    0.22948   0.27314   0.43016   0.46095   0.56773

 Mulliken charges and spin densities:
               1          2
     1  C   -0.251867   0.000000
     2  O   -0.055955   0.000000
     3  H    0.153911   0.000000
     4  H    0.153911  -0.000000
 Sum of Mulliken charges =  -0.00000   0.00000

 Dipole moment (field-independent basis, Debye):
    X=             -3.3536    Y=             -0.0000    Z=             -0.0000  Tot=              3.3536
 Quadrupole moment (field-independent basis, Debye-Ang):
   XX=             -5.9683   YY=            -12.9717   ZZ=            -12.5042
   XY=              0.0000   XZ=              0.0000   YZ=             -0.0000

 Normal termination of Gaussian 16 at Mon Apr 21 18:45:20 2025.
