 Gaussian 16, Revision A.03,
 Gaussian 16:  ES64L-G16RevA.03 25-Dec-2016

 --------------------------------------------
 #p opt UM062X/6-311+G** nosymm int=superfine
 --------------------------------------------

 -------------------
 Title Card Required
 -------------------
 Symbolic Z-matrix:
 Charge =  0 Multiplicity = 1

 SCF Done:  E(UM062X) =  -581.255193458     A.U. after   10 cycles
 SCF Done:  E(UM062X) =  -581.255289405     A.U. after    7 cycles
 SCF Done:  E(UM062X) =  -581.255290028     A.U. after    9 cycles
 SCF Done:  E(UM062X) =  -581.255133877     A.U. after    9 cycles
 SCF Done:  E(UM062X) =  -581.255236452     A.U. after    9 cycles
 SCF Done:  E(UM062X) =  -581.255302807     A.U. after    5 cycles
 SCF Done:  E(UM062X) =  -581.255317309     A.U. after    8 cycles
 Optimization completed.
    -- Stationary point found.

                          Input orientation:
 ---------------------------------------------------------------------
 Center     Atomic      Atomic             Coordinates (Angstroms)
 Number     Number       Type             X           Y           Z
 ---------------------------------------------------------------------
      1         14           0       -1.187518    0.000000    0.000000
      2         14           0        1.187518    0.000000    0.000000
      3          1           0       -1.948034   -1.259265    0.000659
      4          1           0        1.948035    1.259265   -0.000273
      5          1           0       -1.948104    1.259225   -0.000171
      6          1           0        1.948103   -1.259226    0.000509
 ---------------------------------------------------------------------

 Alpha  occ. eigenvalues --  -67.01597 -67.01597  -5.56443  -5.56437  -3.87666
 Alpha  occ. eigenvalues --   -3.87660  -3.87501  -3.87458  -3.87458  -3.87453
 Alpha  occ. eigenvalues --   -0.62502  -0.56656  -0.43884  -0.42080  -0.36680
 Alpha  occ. eigenvalues --   -0.23394
 Alpha virt. eigenvalues --   -0.05546   0.00004   0.02230   0.03285   0.03788
 Alpha virt. eigenvalues --    0.04851   0.05033   0.05066   0.05693   0.07200
 Alpha virt. eigenvalues --    0.07542   0.08619   0.12738   0.23638   0.24548

  Beta  occ. eigenvalues --  -67.01597 -67.01597  -5.56443  -5.56437  -3.87666
  Beta  occ. eigenvalues --   -3.87660  -3.87501  -3.87458  -3.87458  -3.87453
  Beta  occ. eigenvalues --   -0.62502  -0.56656  -0.43884  -0.42080  -0.36680
  Beta  occ. eigenvalues --   -0.23394
  Beta virt. eigenvalues --   -0.05546   0.00004   0.02230   0.03285   0.03788
  Beta virt. eigenvalues --    0.04851   0.05033   0.05066   0.05693   0.07200
  Beta virt. eigenvalues --    0.07542   0.08619   0.12738   0.23638   0.24548

 Mulliken charges and spin densities:
               1          2
     1  Si   0.123328  -0.000000
     2  Si   0.123328   0.000000
     3  H   -0.061666   0.000000
     4  H   -0.061666  -0.000000
     5  H   -0.061662   0.000000
     6  H   -0.061662  -0.000000
 Sum of Mulliken charges =  -0.00000   0.00000

 Dipole moment (field-independent basis, Debye):
    X=              0.0000    Y=              0.0000    Z=             -0.0000  Tot=              0.0000
 Quadrupole moment (field-independent basis, Debye-Ang):
   XX=            -27.1792   YY=            -29.2902   ZZ=            -33.0353
   XY=             -0.0002   XZ=             -0.0000   YZ=             -0.0012

 Normal termination of Gaussian 16 at Mon Apr 21 20:30:17 2025.
