 Gaussian 16, Revision A.03,
 Gaussian 16:  ES64L-G16RevA.03 25-Dec-2016

 --------------------------------------------
 #p opt UM062X/6-311+G** nosymm int=superfine
 --------------------------------------------

 -------------------
 Title Card Required
 -------------------
 Symbolic Z-matrix:
 Charge =  1 Multiplicity = 2

 SCF Done:  E(UM062X) =  -77.9699384478     A.U. after    9 cycles
 SCF Done:  E(UM062X) =  -78.0098766843     A.U. after    9 cycles
 SCF Done:  E(UM062X) =  -78.0439706017     A.U. after   11 cycles
 SCF Done:  E(UM062X) =  -78.0522203613     A.U. after    8 cycles
 SCF Done:  E(UM062X) =  -78.0528679179     A.U. after    9 cycles
 SCF Done:  E(UM062X) =  -78.0528739371     A.U. after    7 cycles
 Optimization completed.
    -- Stationary point found.

                          Input orientation:
 ---------------------------------------------------------------------
 Center     Atomic      Atomic             Coordinates (Angstroms)
 Number     Number       Type             X           Y           Z
 ---------------------------------------------------------------------
      1          6           0       -1.032062    0.000000    0.000000
      2          6           0        1.032062    0.000000    0.000000
      3          1           0       -1.488714   -0.984117    0.000000
      4          1           0       -1.488681    0.984163    0.000000
      5          1           0        1.488714    0.984117   -0.000000
      6          1           0        1.488681   -0.984163   -0.000000
 ---------------------------------------------------------------------

 Alpha  occ. eigenvalues --  -10.92245 -10.92231  -1.06493  -1.00148  -0.80627
 Alpha  occ. eigenvalues --   -0.77606  -0.66662  -0.56002
 Alpha virt. eigenvalues --   -0.36689  -0.25053  -0.14093  -0.11010  -0.10151
 Alpha virt. eigenvalues --   -0.08353  -0.07482  -0.07157  -0.04756  -0.04101
 Alpha virt. eigenvalues --   -0.02851  -0.00447   0.02083   0.09340   0.17941

  Beta  occ. eigenvalues --  -10.92008 -10.91999  -1.03431  -0.97906  -0.80103
  Beta  occ. eigenvalues --   -0.77252  -0.65091
  Beta virt. eigenvalues --   -0.35248  -0.27916  -0.22692  -0.15399  -0.11332
  Beta virt. eigenvalues --   -0.10220  -0.07796  -0.07550  -0.07382  -0.04173
  Beta virt. eigenvalues --   -0.03897  -0.02376   0.00121   0.01257   0.10091

 Mulliken charges and spin densities:
               1          2
     1  C   -0.067486   0.541323
     2  C   -0.067486   0.541323
     3  H    0.283742  -0.020661
     4  H    0.283744  -0.020662
     5  H    0.283742  -0.020661
     6  H    0.283744  -0.020662
 Sum of Mulliken charges =   1.00000   1.00000

 Dipole moment (field-independent basis, Debye):
    X=              0.0000    Y=             -0.0000    Z=              0.0000  Tot=              0.0000
 Quadrupole moment (field-independent basis, Debye-Ang):
   XX=             -1.7812   YY=             -8.1205   ZZ=            -12.5467
   XY=             -0.0000   XZ=             -0.0000   YZ=             -0.0000

 Normal termination of Gaussian 16 at Tue Nov 19 11:23:09 2024.
