 Gaussian 16, Revision A.03,
 Gaussian 16:  ES64L-G16RevA.03 25-Dec-2016

 --------------------------------------------
 #p opt UM062X/6-311+G** nosymm int=superfine
 --------------------------------------------

 -------------------
 Title Card Required
 -------------------
 Symbolic Z-matrix:
 Charge =  0 Multiplicity = 1

 SCF Done:  E(UM062X) =  -78.3698721567     A.U. after    8 cycles
 SCF Done:  E(UM062X) =  -78.4054543847     A.U. after    8 cycles
 SCF Done:  E(UM062X) =  -78.4308822037     A.U. after    9 cycles
 SCF Done:  E(UM062X) =  -78.4334939715     A.U. after    8 cycles
 SCF Done:  E(UM062X) =  -78.4336186040     A.U. after    8 cycles
 Optimization completed.
    -- Stationary point found.

                          Input orientation:
 ---------------------------------------------------------------------
 Center     Atomic      Atomic             Coordinates (Angstroms)
 Number     Number       Type             X           Y           Z
 ---------------------------------------------------------------------
      1          6           0       -0.914763    0.000000    0.000000
      2          6           0        0.914763    0.000000    0.000000
      3          1           0       -1.403195   -0.961339    0.000000
      4          1           0       -1.403243    0.961221   -0.000000
      5          1           0        1.403195    0.961339    0.000000
      6          1           0        1.403243   -0.961221   -0.000000
 ---------------------------------------------------------------------

 Alpha  occ. eigenvalues --  -10.59836 -10.59816  -0.78696  -0.70387  -0.52970
 Alpha  occ. eigenvalues --   -0.48353  -0.40591  -0.27423
 Alpha virt. eigenvalues --   -0.04635   0.03054   0.03365   0.05389   0.07507
 Alpha virt. eigenvalues --    0.08833   0.09793   0.11590   0.14425   0.15685
 Alpha virt. eigenvalues --    0.16609   0.21102   0.21818   0.28714   0.40400

  Beta  occ. eigenvalues --  -10.59836 -10.59816  -0.78696  -0.70387  -0.52970
  Beta  occ. eigenvalues --   -0.48353  -0.40591  -0.27423
  Beta virt. eigenvalues --   -0.04635   0.03054   0.03365   0.05389   0.07507
  Beta virt. eigenvalues --    0.08833   0.09793   0.11590   0.14425   0.15685
  Beta virt. eigenvalues --    0.16609   0.21102   0.21818   0.28714   0.40400

 Mulliken charges and spin densities:
               1          2
     1  C   -0.347408  -0.000000
     2  C   -0.347408   0.000000
     3  H    0.173703  -0.000000
     4  H    0.173705  -0.000000
     5  H    0.173703  -0.000000
     6  H    0.173705   0.000000
 Sum of Mulliken charges =  -0.00000   0.00000

 Dipole moment (field-independent basis, Debye):
    X=             -0.0000    Y=             -0.0000    Z=             -0.0000  Tot=              0.0000
 Quadrupole moment (field-independent basis, Debye-Ang):
   XX=            -11.5698   YY=            -12.1611   ZZ=            -17.7093
   XY=             -0.0001   XZ=              0.0000   YZ=             -0.0000

 Normal termination of Gaussian 16 at Tue Nov 19 10:54:39 2024.
