 Gaussian 16, Revision A.03,
 Gaussian 16:  ES64L-G16RevA.03 25-Dec-2016

 --------------------------------------------
 #p opt UM062X/6-311+G** nosymm int=superfine
 --------------------------------------------

 -------------------
 Title Card Required
 -------------------
 Symbolic Z-matrix:
 Charge =  0 Multiplicity = 1

 SCF Done:  E(UM062X) =  -683.590367892     A.U. after   11 cycles
 SCF Done:  E(UM062X) =  -683.590681755     A.U. after   10 cycles
 SCF Done:  E(UM062X) =  -683.591178166     A.U. after   11 cycles
 SCF Done:  E(UM062X) =  -683.591266701     A.U. after   13 cycles
 SCF Done:  E(UM062X) =  -683.591266853     A.U. after   15 cycles
 Optimization completed.
    -- Stationary point found.

                          Input orientation:
 ---------------------------------------------------------------------
 Center     Atomic      Atomic             Coordinates (Angstroms)
 Number     Number       Type             X           Y           Z
 ---------------------------------------------------------------------
      1         15           0       -2.159490    0.000000    0.000000
      2         15           0        2.159490    0.000000    0.000000
      3          1           0       -2.019124   -1.416729    0.000000
      4          1           0        2.019124    1.416729    0.000000
 ---------------------------------------------------------------------

 Alpha  occ. eigenvalues --  -78.08387 -78.08387  -6.90432  -6.90432  -5.01841
 Alpha  occ. eigenvalues --   -5.01841  -5.01823  -5.01823  -5.01645  -5.01645
 Alpha  occ. eigenvalues --   -0.68641  -0.68098  -0.40573  -0.40461  -0.25406
 Alpha  occ. eigenvalues --   -0.23994
 Alpha virt. eigenvalues --   -0.17111  -0.15605   0.01915   0.03037   0.03705
 Alpha virt. eigenvalues --    0.04485   0.05559   0.05965   0.06414   0.07525
 Alpha virt. eigenvalues --    0.08361   0.11498   0.28432   0.29249   0.30474

  Beta  occ. eigenvalues --  -78.08387 -78.08387  -6.90432  -6.90432  -5.01841
  Beta  occ. eigenvalues --   -5.01841  -5.01823  -5.01823  -5.01645  -5.01645
  Beta  occ. eigenvalues --   -0.68641  -0.68098  -0.40573  -0.40461  -0.25406
  Beta  occ. eigenvalues --   -0.23994
  Beta virt. eigenvalues --   -0.17111  -0.15605   0.01915   0.03037   0.03705
  Beta virt. eigenvalues --    0.04485   0.05559   0.05965   0.06414   0.07525
  Beta virt. eigenvalues --    0.08361   0.11498   0.28432   0.29249   0.30474

 Mulliken charges and spin densities:
               1          2
     1  P    0.010506   0.000000
     2  P    0.010506  -0.000000
     3  H   -0.010506   0.000000
     4  H   -0.010506  -0.000000
 Sum of Mulliken charges =  -0.00000  -0.00000

 Dipole moment (field-independent basis, Debye):
    X=              0.0000    Y=              0.0000    Z=              0.0000  Tot=              0.0000
 Quadrupole moment (field-independent basis, Debye-Ang):
   XX=            -26.9230   YY=            -28.5034   ZZ=            -30.7979
   XY=              3.3296   XZ=              0.0000   YZ=              0.0000

 Normal termination of Gaussian 16 at Mon Apr 21 21:14:27 2025.
