 Gaussian 16, Revision A.03,
 Gaussian 16:  ES64L-G16RevA.03 25-Dec-2016

 --------------------------------------------
 #p opt UM062X/6-311+G** nosymm int=superfine
 --------------------------------------------

 -------------------
 Title Card Required
 -------------------
 Symbolic Z-matrix:
 Charge =  0 Multiplicity = 1

 SCF Done:  E(UM062X) =  -81.6900184175     A.U. after   25 cycles
 SCF Done:  E(UM062X) =  -81.7030989116     A.U. after   16 cycles
 SCF Done:  E(UM062X) =  -81.7088507087     A.U. after   16 cycles
 SCF Done:  E(UM062X) =  -81.7105089815     A.U. after   16 cycles
 SCF Done:  E(UM062X) =  -81.7133322849     A.U. after   14 cycles
 SCF Done:  E(UM062X) =  -81.7149726643     A.U. after   16 cycles
 SCF Done:  E(UM062X) =  -81.7152077383     A.U. after   14 cycles
 SCF Done:  E(UM062X) =  -81.7154874278     A.U. after   14 cycles
 SCF Done:  E(UM062X) =  -81.7157377298     A.U. after   14 cycles
 SCF Done:  E(UM062X) =  -81.7158389465     A.U. after   12 cycles
 SCF Done:  E(UM062X) =  -81.7158741988     A.U. after   13 cycles
 SCF Done:  E(UM062X) =  -81.7158774078     A.U. after   13 cycles
 SCF Done:  E(UM062X) =  -81.7158776384     A.U. after   12 cycles
 Optimization completed.
    -- Stationary point found.

                          Input orientation:
 ---------------------------------------------------------------------
 Center     Atomic      Atomic             Coordinates (Angstroms)
 Number     Number       Type             X           Y           Z
 ---------------------------------------------------------------------
      1          5           0       -2.095399    0.000000    0.000000
      2          7           0        2.095399    0.000000    0.000000
      3          1           0       -2.409882   -1.128370   -0.027675
      4          1           0        2.068122    0.802274    0.638133
      5          1           0       -2.409882    1.128358   -0.028190
      6          1           0        2.068124   -0.802013    0.638462
 ---------------------------------------------------------------------

 Alpha  occ. eigenvalues --  -14.71440  -7.18686  -0.87244  -0.63533  -0.52329
 Alpha  occ. eigenvalues --   -0.47899  -0.33163  -0.22257
 Alpha virt. eigenvalues --   -0.12507  -0.09424   0.00454   0.02483   0.04140
 Alpha virt. eigenvalues --    0.04989   0.08839   0.11099   0.13534   0.17377
 Alpha virt. eigenvalues --    0.19649   0.19953   0.21789   0.26078   0.31918

  Beta  occ. eigenvalues --  -14.71440  -7.18686  -0.87244  -0.63533  -0.52329
  Beta  occ. eigenvalues --   -0.47899  -0.33163  -0.22257
  Beta virt. eigenvalues --   -0.12507  -0.09424   0.00454   0.02483   0.04140
  Beta virt. eigenvalues --    0.04989   0.08839   0.11099   0.13534   0.17377
  Beta virt. eigenvalues --    0.19649   0.19953   0.21789   0.26078   0.31918

 Mulliken charges and spin densities:
               1          2
     1  B    0.134479   0.000000
     2  N   -0.678328  -0.000000
     3  H    0.072419   0.000000
     4  H    0.199506   0.000000
     5  H    0.072419   0.000000
     6  H    0.199506   0.000000
 Sum of Mulliken charges =  -0.00000  -0.00000

 Dipole moment (field-independent basis, Debye):
    X=             -6.0282    Y=              0.0004    Z=              1.8976  Tot=              6.3198
 Quadrupole moment (field-independent basis, Debye-Ang):
   XX=            -13.8042   YY=            -13.4682   ZZ=            -14.6463
   XY=              0.0008   XZ=              4.1835   YZ=             -0.0002

 Normal termination of Gaussian 16 at Mon Apr 21 17:56:01 2025.
