 Gaussian 16, Revision A.03,
 Gaussian 16:  ES64L-G16RevA.03 25-Dec-2016

 --------------------------------
 #p UM062X/6-311+G** Pop=NBO Read
 --------------------------------

 ------------
 NBO Analysis
 ------------
 Symbolic Z-matrix:
 Charge =  0 Multiplicity = 1

                         Standard orientation:
 ---------------------------------------------------------------------
 Center     Atomic      Atomic             Coordinates (Angstroms)
 Number     Number       Type             X           Y           Z
 ---------------------------------------------------------------------
      1          6           0        0.000000    0.000000   -0.994903
      2         15           0        0.000000    0.000000    0.535851
      3          1           0        0.000000    0.000000   -2.068342
 ---------------------------------------------------------------------

 SCF Done:  E(UM062X) =  -379.938929626     A.U. after   10 cycles

 The electronic state is 1-SG.
 Alpha  occ. eigenvalues --  -78.05571 -10.58803  -6.86629  -4.97943  -4.97943
 Alpha  occ. eigenvalues --   -4.97860  -0.80953  -0.61462  -0.41699  -0.33947
 Alpha  occ. eigenvalues --   -0.33947
 Alpha virt. eigenvalues --   -0.01956  -0.01956   0.01430   0.04024   0.06081
 Alpha virt. eigenvalues --    0.06081   0.07377   0.12090   0.12090   0.17055
 Alpha virt. eigenvalues --    0.17788   0.27882   0.46002   0.46002   0.46676

  Beta  occ. eigenvalues --  -78.05571 -10.58803  -6.86629  -4.97943  -4.97943
  Beta  occ. eigenvalues --   -4.97860  -0.80953  -0.61462  -0.41699  -0.33947
  Beta  occ. eigenvalues --   -0.33947
  Beta virt. eigenvalues --   -0.01956  -0.01956   0.01430   0.04024   0.06081
  Beta virt. eigenvalues --    0.06081   0.07377   0.12090   0.12090   0.17055
  Beta virt. eigenvalues --    0.17788   0.27882   0.46002   0.46002   0.46676

 Mulliken charges and spin densities:
               1          2
     1  C   -0.264451  -0.000000
     2  P    0.109537   0.000000
     3  H    0.154914   0.000000
 Sum of Mulliken charges =  -0.00000   0.00000

 Dipole moment (field-independent basis, Debye):
    X=              0.0000    Y=              0.0000    Z=             -0.3682  Tot=              0.3682
 Quadrupole moment (field-independent basis, Debye-Ang):
   XX=            -19.8685   YY=            -19.8685   ZZ=            -15.8706
   XY=              0.0000   XZ=              0.0000   YZ=              0.0000

 Summary of Natural Population Analysis:

                                       Natural Population
                Natural  -----------------------------------------------
    Atom  No    Charge         Core      Valence    Rydberg      Total
 -----------------------------------------------------------------------
      C    1   -0.39913      0.99980     2.39385    0.00548     3.39913
      P    2    0.27148      4.99904     2.21045    0.01902     7.22852
      H    3    0.12765      0.00000     0.37120    0.00116     0.37235
 =======================================================================
   * Total *    0.00000      5.99885     4.97550    0.02565    11.00000

 Normal termination of Gaussian 16 at Wed Apr 16 03:43:55 2025.
