 Gaussian 16, Revision A.03,
 Gaussian 16:  ES64L-G16RevA.03 25-Dec-2016

 --------------------------------------------
 #p opt UM062X/6-311+G** nosymm int=superfine
 --------------------------------------------

 -------------------
 Title Card Required
 -------------------
 Symbolic Z-matrix:
 Charge =  0 Multiplicity = 1

 SCF Done:  E(UM062X) =  -683.638878950     A.U. after   12 cycles
 SCF Done:  E(UM062X) =  -683.639665573     A.U. after   10 cycles
 SCF Done:  E(UM062X) =  -683.640135418     A.U. after   12 cycles
 SCF Done:  E(UM062X) =  -683.640136187     A.U. after    8 cycles
 Optimization completed.
    -- Stationary point found.

                          Input orientation:
 ---------------------------------------------------------------------
 Center     Atomic      Atomic             Coordinates (Angstroms)
 Number     Number       Type             X           Y           Z
 ---------------------------------------------------------------------
      1         15           0       -1.809490    0.000000    0.000000
      2         15           0        1.809490    0.000000    0.000000
      3          1           0       -1.712113   -1.419883   -0.000000
      4          1           0        1.712113    1.419883   -0.000000
 ---------------------------------------------------------------------

 Alpha  occ. eigenvalues --  -78.08522 -78.08522  -6.90499  -6.90498  -5.01908
 Alpha  occ. eigenvalues --   -5.01908  -5.01904  -5.01904  -5.01711  -5.01711
 Alpha  occ. eigenvalues --   -0.69003  -0.67627  -0.40625  -0.40248  -0.27465
 Alpha  occ. eigenvalues --   -0.24890
 Alpha virt. eigenvalues --   -0.16047  -0.13146   0.01983   0.03057   0.03730
 Alpha virt. eigenvalues --    0.04635   0.05374   0.05851   0.06532   0.08041
 Alpha virt. eigenvalues --    0.08681   0.11961   0.27762   0.30146   0.30250

  Beta  occ. eigenvalues --  -78.08522 -78.08522  -6.90499  -6.90498  -5.01908
  Beta  occ. eigenvalues --   -5.01908  -5.01904  -5.01904  -5.01711  -5.01711
  Beta  occ. eigenvalues --   -0.69003  -0.67627  -0.40625  -0.40248  -0.27465
  Beta  occ. eigenvalues --   -0.24890
  Beta virt. eigenvalues --   -0.16047  -0.13146   0.01983   0.03057   0.03730
  Beta virt. eigenvalues --    0.04635   0.05374   0.05851   0.06532   0.08041
  Beta virt. eigenvalues --    0.08681   0.11961   0.27762   0.30146   0.30250

 Mulliken charges and spin densities:
               1          2
     1  P    0.006240   0.000001
     2  P    0.006239  -0.000001
     3  H   -0.006239  -0.000000
     4  H   -0.006239   0.000000
 Sum of Mulliken charges =  -0.00000  -0.00000

 Dipole moment (field-independent basis, Debye):
    X=             -0.0000    Y=              0.0000    Z=             -0.0000  Tot=              0.0000
 Quadrupole moment (field-independent basis, Debye-Ang):
   XX=            -26.8630   YY=            -28.4145   ZZ=            -30.8474
   XY=              2.9948   XZ=             -0.0000   YZ=             -0.0000

 Normal termination of Gaussian 16 at Mon Apr 21 21:12:28 2025.
