 Gaussian 16, Revision A.03,
 Gaussian 16:  ES64L-G16RevA.03 25-Dec-2016

 --------------------------------------------
 #p opt UM062X/6-311+G** nosymm int=superfine
 --------------------------------------------

 -------------------
 Title Card Required
 -------------------
 Symbolic Z-matrix:
 Charge =  0 Multiplicity = 1

 SCF Done:  E(UM062X) =  -110.150752620     A.U. after   13 cycles
 SCF Done:  E(UM062X) =  -110.151432769     A.U. after   15 cycles
 SCF Done:  E(UM062X) =  -110.153270450     A.U. after   15 cycles
 SCF Done:  E(UM062X) =  -110.154628011     A.U. after   18 cycles
 SCF Done:  E(UM062X) =  -110.427981376     A.U. after   53 cycles
 SCF Done:  E(UM062X) =  -110.428078445     A.U. after   14 cycles
 SCF Done:  E(UM062X) =  -110.428079643     A.U. after    9 cycles
 SCF Done:  E(UM062X) =  -110.428081138     A.U. after   12 cycles
 SCF Done:  E(UM062X) =  -110.428081265     A.U. after    9 cycles
 Optimization completed.
    -- Stationary point found.

                          Input orientation:
 ---------------------------------------------------------------------
 Center     Atomic      Atomic             Coordinates (Angstroms)
 Number     Number       Type             X           Y           Z
 ---------------------------------------------------------------------
      1          7           0       -1.990428    0.000000    0.000000
      2          7           0        1.990428    0.000000    0.000000
      3          1           0       -1.791898   -1.018790   -0.000000
      4          1           0        1.791898    1.018790   -0.000000
 ---------------------------------------------------------------------

 Alpha  occ. eigenvalues --  -14.81921 -14.79429  -0.95298  -0.82513  -0.48624
 Alpha  occ. eigenvalues --   -0.42645  -0.41519  -0.41517
 Alpha virt. eigenvalues --   -0.06693  -0.06581   0.03875   0.07379   0.11092
 Alpha virt. eigenvalues --    0.11743   0.13688   0.14828   0.15918   0.18092
 Alpha virt. eigenvalues --    0.19485   0.22982   0.55050   0.56461   0.75727

  Beta  occ. eigenvalues --  -14.81921 -14.79429  -0.95298  -0.82513  -0.48624
  Beta  occ. eigenvalues --   -0.42645  -0.41519  -0.41517
  Beta virt. eigenvalues --   -0.06693  -0.06581   0.03875   0.07379   0.11092
  Beta virt. eigenvalues --    0.11743   0.13688   0.14828   0.15918   0.18092
  Beta virt. eigenvalues --    0.19485   0.22982   0.55050   0.56461   0.75727

 Mulliken charges and spin densities:
               1          2
     1  N   -0.200339   2.054745
     2  N   -0.200339  -2.054745
     3  H    0.200339  -0.061312
     4  H    0.200339   0.061312
 Sum of Mulliken charges =  -0.00000   0.00000

 Dipole moment (field-independent basis, Debye):
    X=              0.0000    Y=              0.0000    Z=             -0.0000  Tot=              0.0000
 Quadrupole moment (field-independent basis, Debye-Ang):
   XX=            -15.2212   YY=            -11.2328   ZZ=            -12.8329
   XY=              6.5065   XZ=             -0.0000   YZ=              0.0000

 Normal termination of Gaussian 16 at Thu May 15 15:47:21 2025.
