 Gaussian 16, Revision A.03,
 Gaussian 16:  ES64L-G16RevA.03 25-Dec-2016

 --------------------------------------------
 #p opt UM062X/6-311+G** nosymm int=superfine
 --------------------------------------------

 -------------------
 Title Card Required
 -------------------
 Symbolic Z-matrix:
 Charge =  0 Multiplicity = 1

 SCF Done:  E(UM062X) =  -685.031007112     A.U. after   10 cycles
 SCF Done:  E(UM062X) =  -685.032413201     A.U. after   10 cycles
 SCF Done:  E(UM062X) =  -685.032677166     A.U. after   10 cycles
 SCF Done:  E(UM062X) =  -685.032686259     A.U. after    9 cycles
 SCF Done:  E(UM062X) =  -685.032688792     A.U. after    8 cycles
 SCF Done:  E(UM062X) =  -685.032690896     A.U. after    8 cycles
 SCF Done:  E(UM062X) =  -685.032691517     A.U. after    8 cycles
 SCF Done:  E(UM062X) =  -685.032691533     A.U. after    7 cycles
 Optimization completed.
    -- Stationary point found.

                          Input orientation:
 ---------------------------------------------------------------------
 Center     Atomic      Atomic             Coordinates (Angstroms)
 Number     Number       Type             X           Y           Z
 ---------------------------------------------------------------------
      1         15           0       -1.342217    0.000000    0.000000
      2         15           0        1.342217    0.000000    0.000000
      3          1           0        1.372685   -1.414387    0.071847
      4          1           0       -1.372817    1.411717   -0.112945
      5          1           0        1.424964   -0.003644   -1.414827
      6          1           0       -1.425150   -0.180863   -1.403199
 ---------------------------------------------------------------------

 Alpha  occ. eigenvalues --  -78.03820 -78.03820  -6.86229  -6.86227  -4.97771
 Alpha  occ. eigenvalues --   -4.97767  -4.97710  -4.97709  -4.97511  -4.97511
 Alpha  occ. eigenvalues --   -0.73437  -0.68423  -0.45085  -0.45041  -0.37658
 Alpha  occ. eigenvalues --   -0.34689  -0.30151
 Alpha virt. eigenvalues --   -0.04836   0.01124   0.03502   0.03741   0.03896
 Alpha virt. eigenvalues --    0.04296   0.05144   0.06228   0.06408   0.07849
 Alpha virt. eigenvalues --    0.09703   0.15969   0.19205   0.28538   0.28999

  Beta  occ. eigenvalues --  -78.03820 -78.03820  -6.86229  -6.86227  -4.97771
  Beta  occ. eigenvalues --   -4.97767  -4.97710  -4.97709  -4.97511  -4.97511
  Beta  occ. eigenvalues --   -0.73437  -0.68423  -0.45085  -0.45041  -0.37658
  Beta  occ. eigenvalues --   -0.34689  -0.30151
  Beta virt. eigenvalues --   -0.04836   0.01124   0.03502   0.03741   0.03896
  Beta virt. eigenvalues --    0.04296   0.05144   0.06228   0.06408   0.07849
  Beta virt. eigenvalues --    0.09703   0.15969   0.19205   0.28538   0.28999

 Mulliken charges and spin densities:
               1          2
     1  P   -0.047933   0.000000
     2  P   -0.047915  -0.000000
     3  H    0.026620  -0.000000
     4  H    0.026625   0.000000
     5  H    0.021298  -0.000000
     6  H    0.021304   0.000000
 Sum of Mulliken charges =  -0.00000  -0.00000

 Dipole moment (field-independent basis, Debye):
    X=              0.0001    Y=             -0.0767    Z=             -1.1731  Tot=              1.1756
 Quadrupole moment (field-independent basis, Debye-Ang):
   XX=            -30.6587   YY=            -29.2838   ZZ=            -29.6086
   XY=             -2.3618   XZ=              0.1550   YZ=             -0.0209

 Normal termination of Gaussian 16 at Mon Apr 21 20:46:13 2025.
