 Gaussian 16, Revision A.03,
 Gaussian 16:  ES64L-G16RevA.03 25-Dec-2016

 --------------------------------------------
 #p opt UM062X/6-311+G** nosymm int=superfine
 --------------------------------------------

 -------------------
 Title Card Required
 -------------------
 Symbolic Z-matrix:
 Charge = -1 Multiplicity = 2

 SCF Done:  E(UM062X) =  -53.2026046487     A.U. after   11 cycles
 SCF Done:  E(UM062X) =  -53.2064841934     A.U. after   11 cycles
 SCF Done:  E(UM062X) =  -53.2073302741     A.U. after   10 cycles
 SCF Done:  E(UM062X) =  -53.2073348040     A.U. after    8 cycles
 Optimization completed.
    -- Stationary point found.

                          Input orientation:
 ---------------------------------------------------------------------
 Center     Atomic      Atomic             Coordinates (Angstroms)
 Number     Number       Type             X           Y           Z
 ---------------------------------------------------------------------
      1          5           0       -1.990672    0.000000    0.000000
      2          5           0        1.990672    0.000000    0.000000
      3          1           0        2.059143   -1.196851   -0.000015
      4          1           0       -2.058930   -0.598425    1.036519
      5          1           0        2.059088    0.598443   -1.036499
      6          1           0        2.058869    0.598411    1.036530
      7          1           0       -2.059151    1.196851   -0.000001
      8          1           0       -2.059019   -0.598430   -1.036510
 ---------------------------------------------------------------------

 Alpha  occ. eigenvalues --   -6.84460  -6.84459  -0.39888  -0.39313  -0.21697
 Alpha  occ. eigenvalues --   -0.21697  -0.21417  -0.21417   0.01041
 Alpha virt. eigenvalues --    0.11843   0.16868   0.17733   0.17733   0.18373
 Alpha virt. eigenvalues --    0.18373   0.19334   0.22865   0.23861   0.32878
 Alpha virt. eigenvalues --    0.32878   0.34574   0.34575   0.36860   0.38872

  Beta  occ. eigenvalues --   -6.84422  -6.84421  -0.38122  -0.37751  -0.21526
  Beta  occ. eigenvalues --   -0.21526  -0.21246  -0.21246
  Beta virt. eigenvalues --    0.11143   0.13539   0.13817   0.15166   0.15166
  Beta virt. eigenvalues --    0.17905   0.17905   0.21376   0.22279   0.25297
  Beta virt. eigenvalues --    0.31818   0.31819   0.33815   0.33816   0.35746

 Mulliken charges and spin densities:
               1          2
     1  B   -0.342402   0.562412
     2  B   -0.342403   0.562413
     3  H   -0.052538  -0.020804
     4  H   -0.052528  -0.020804
     5  H   -0.052534  -0.020804
     6  H   -0.052525  -0.020805
     7  H   -0.052539  -0.020804
     8  H   -0.052531  -0.020804
 Sum of Mulliken charges =  -1.00000   1.00000

 Dipole moment (field-independent basis, Debye):
    X=             -0.0000    Y=             -0.0000    Z=              0.0001  Tot=              0.0001
 Quadrupole moment (field-independent basis, Debye-Ang):
   XX=            -43.1609   YY=            -24.2984   ZZ=            -24.2983
   XY=              0.0000   XZ=              0.0000   YZ=              0.0000

 Normal termination of Gaussian 16 at Mon Apr 21 16:53:00 2025.
