 Gaussian 16, Revision A.03,
 Gaussian 16:  ES64L-G16RevA.03 25-Dec-2016

 --------------------------------
 #p UM062X/6-311+G** Pop=NBO Read
 --------------------------------

 ------------
 NBO Analysis
 ------------
 Symbolic Z-matrix:
 Charge =  1 Multiplicity = 2

                         Standard orientation:
 ---------------------------------------------------------------------
 Center     Atomic      Atomic             Coordinates (Angstroms)
 Number     Number       Type             X           Y           Z
 ---------------------------------------------------------------------
      1         14           0       -0.000000    1.116295   -0.000006
      2         14           0       -0.000000   -1.116295   -0.000006
      3          1           0        1.273606    1.844766   -0.000606
      4          1           0       -1.273606   -1.844766   -0.000606
      5          1           0       -1.273601    1.844788    0.000689
      6          1           0        1.273601   -1.844788    0.000689
 ---------------------------------------------------------------------

 SCF Done:  E(UM062X) =  -580.937030301     A.U. after   10 cycles

 The electronic state is 2-A.
 Alpha  occ. eigenvalues --  -67.27619 -67.27617  -5.81154  -5.81139  -4.12628
 Alpha  occ. eigenvalues --   -4.12620  -4.11903  -4.11820  -4.11783  -4.11776
 Alpha  occ. eigenvalues --   -0.87471  -0.78446  -0.65808  -0.62964  -0.60442
 Alpha  occ. eigenvalues --   -0.48688
 Alpha virt. eigenvalues --   -0.27255  -0.17952  -0.16980  -0.13646  -0.10516
 Alpha virt. eigenvalues --   -0.09744  -0.09285  -0.08460  -0.08064  -0.07877
 Alpha virt. eigenvalues --   -0.06551  -0.05278  -0.00382   0.09816   0.10554

  Beta  occ. eigenvalues --  -67.27351 -67.27349  -5.81066  -5.81053  -4.11928
  Beta  occ. eigenvalues --   -4.11918  -4.11844  -4.11753  -4.11680  -4.11672
  Beta  occ. eigenvalues --   -0.85050  -0.77207  -0.65577  -0.63091  -0.59868
  Beta virt. eigenvalues --   -0.32745  -0.22840  -0.16349  -0.15804  -0.15137
  Beta virt. eigenvalues --   -0.10869  -0.09891  -0.09777  -0.08049  -0.08040
  Beta virt. eigenvalues --   -0.07719  -0.06451  -0.03797  -0.01301   0.10391

 Mulliken charges and spin densities:
               1          2
     1  Si   0.469054   0.554493
     2  Si   0.469054   0.554493
     3  H    0.015472  -0.027246
     4  H    0.015472  -0.027246
     5  H    0.015474  -0.027247
     6  H    0.015474  -0.027247
 Sum of Mulliken charges =   1.00000   1.00000

 Dipole moment (field-independent basis, Debye):
    X=              0.0000    Y=              0.0000    Z=             -0.0001  Tot=              0.0001
 Quadrupole moment (field-independent basis, Debye-Ang):
   XX=            -23.3187   YY=            -15.0109   ZZ=            -23.2919
   XY=             -0.0001   XZ=             -0.0000   YZ=             -0.0000

 Summary of Natural Population Analysis:

                                       Natural Population
                Natural  -----------------------------------------------
    Atom  No    Charge         Core      Valence    Rydberg      Total
 -----------------------------------------------------------------------
     Si    1    0.59874      4.99867     1.38737    0.01523     6.40126
     Si    2    0.59874      4.99867     1.38737    0.01523     6.40126
      H    3   -0.04937      0.00000     0.54896    0.00041     0.54937
      H    4   -0.04937      0.00000     0.54896    0.00041     0.54937
      H    5   -0.04937      0.00000     0.54896    0.00041     0.54937
      H    6   -0.04937      0.00000     0.54896    0.00041     0.54937
 =======================================================================
   * Total *    1.00000      9.99734     4.97058    0.03208    15.00000

 Normal termination of Gaussian 16 at Wed Apr 16 05:49:10 2025.
