 Gaussian 16, Revision A.03,
 Gaussian 16:  ES64L-G16RevA.03 25-Dec-2016

 -------------------------------------------------------------------
 #p opt UM062X/6-311+G** nosymm int=superfine SCF=NoVarAcc SCF=tight
 -------------------------------------------------------------------

 -------------------
 Title Card Required
 -------------------
 Symbolic Z-matrix:
 Charge =  1 Multiplicity = 2

 SCF Done:  E(UM062X) =  -79.3162197335     A.U. after   28 cycles
 SCF Done:  E(UM062X) =  -79.3163049257     A.U. after    9 cycles
 SCF Done:  E(UM062X) =  -79.3163303516     A.U. after   10 cycles
 SCF Done:  E(UM062X) =  -79.3163437712     A.U. after    9 cycles
 SCF Done:  E(UM062X) =  -79.3163446054     A.U. after    8 cycles
 Optimization completed.
    -- Stationary point found.

                          Input orientation:
 ---------------------------------------------------------------------
 Center     Atomic      Atomic             Coordinates (Angstroms)
 Number     Number       Type             X           Y           Z
 ---------------------------------------------------------------------
      1          6           0       -9.282675    0.000000    0.000000
      2          6           0        9.282675    0.000000    0.000000
      3          1           0        9.282238   -0.936693    0.542396
      4          1           0       -9.283179   -0.937678   -0.540698
      5          1           0        9.285363    0.938085    0.539980
      6          1           0        9.284114   -0.001390   -1.082398
      7          1           0       -9.284874    0.937118   -0.541647
      8          1           0       -9.283627    0.000433    1.082399
 ---------------------------------------------------------------------

 Alpha  occ. eigenvalues --  -10.78211 -10.78211  -0.96976  -0.96975  -0.68225
 Alpha  occ. eigenvalues --   -0.68224  -0.68224  -0.68223  -0.38257
 Alpha virt. eigenvalues --   -0.36713  -0.07901  -0.07900  -0.04416  -0.04416
 Alpha virt. eigenvalues --   -0.04416  -0.04416  -0.02328  -0.02328   0.05061
 Alpha virt. eigenvalues --    0.05062   0.05062   0.05063   0.05154   0.05155

  Beta  occ. eigenvalues --  -10.77968 -10.77968  -0.94307  -0.94307  -0.67651
  Beta  occ. eigenvalues --   -0.67650  -0.67650  -0.67649
  Beta virt. eigenvalues --   -0.23253  -0.23253  -0.08448  -0.08448  -0.04050
  Beta virt. eigenvalues --   -0.04050  -0.04050  -0.04050  -0.00374  -0.00374
  Beta virt. eigenvalues --    0.05357   0.05358   0.05358   0.05359   0.06608

 Mulliken charges and spin densities:
               1          2
     1  C   -0.190721   0.566906
     2  C   -0.190722   0.566906
     3  H    0.230239  -0.022302
     4  H    0.230237  -0.022302
     5  H    0.230243  -0.022302
     6  H    0.230240  -0.022302
     7  H    0.230246  -0.022301
     8  H    0.230238  -0.022303
 Sum of Mulliken charges =   1.00000   1.00000

 Dipole moment (field-independent basis, Debye):
    X=              0.0000    Y=             -0.0001    Z=              0.0000  Tot=              0.0001
 Quadrupole moment (field-independent basis, Debye-Ang):
   XX=            400.2743   YY=            -11.1280   ZZ=            -11.1283
   XY=              0.0018   XZ=             -0.0003   YZ=             -0.0003

 Normal termination of Gaussian 16 at Tue Dec  3 16:17:18 2024.
