 Gaussian 16, Revision A.03,
 Gaussian 16:  ES64L-G16RevA.03 25-Dec-2016

 ---------------------------------------------------
 #p UM062X/6-311+G** force int=superfine pop=saveNBO
 ---------------------------------------------------

 -------------------
 Title Card Required
 -------------------
 Symbolic Z-matrix:
 Charge =  0 Multiplicity = 1

                         Standard orientation:
 ---------------------------------------------------------------------
 Center     Atomic      Atomic             Coordinates (Angstroms)
 Number     Number       Type             X           Y           Z
 ---------------------------------------------------------------------
      1          6           0        0.000000    0.000000   -2.929885
      2         16           0        0.000000    0.000000    1.098707
 ---------------------------------------------------------------------

 SCF Done:  E(UM062X) =  -435.737969284     A.U. after   20 cycles

 The electronic state is 1-SG.
 Alpha  occ. eigenvalues --  -89.93281 -10.82531  -8.29121  -6.20910  -6.20910
 Alpha  occ. eigenvalues --   -6.20855  -0.72945  -0.71175  -0.29130  -0.28080
 Alpha  occ. eigenvalues --   -0.28080
 Alpha virt. eigenvalues --   -0.20777  -0.20777  -0.19384   0.02515   0.05630
 Alpha virt. eigenvalues --    0.05678   0.05678   0.08351   0.08351   0.08379
 Alpha virt. eigenvalues --    0.13377   0.35566   0.36491   0.36491   0.51303

  Beta  occ. eigenvalues --  -89.93281 -10.82531  -8.29121  -6.20910  -6.20910
  Beta  occ. eigenvalues --   -6.20855  -0.72945  -0.71175  -0.29130  -0.28080
  Beta  occ. eigenvalues --   -0.28080
  Beta virt. eigenvalues --   -0.20777  -0.20777  -0.19384   0.02515   0.05630
  Beta virt. eigenvalues --    0.05678   0.05678   0.08351   0.08351   0.08379
  Beta virt. eigenvalues --    0.13377   0.35566   0.36491   0.36491   0.51303

 Mulliken charges and spin densities:
               1          2
     1  C    0.218841  -0.000000
     2  S   -0.218841   0.000000
 Sum of Mulliken charges =  -0.00000   0.00000

 Dipole moment (field-independent basis, Debye):
    X=              0.0000    Y=              0.0000    Z=             -4.2379  Tot=              4.2379
 Quadrupole moment (field-independent basis, Debye-Ang):
   XX=            -20.9118   YY=            -20.9118   ZZ=            -10.5602
   XY=              0.0000   XZ=              0.0000   YZ=              0.0000

 Summary of Natural Population Analysis:

                                       Natural Population
                Natural  -----------------------------------------------
    Atom  No    Charge         Core      Valence    Rydberg      Total
 -----------------------------------------------------------------------
      C    1    0.12266      1.00000     1.87691    0.00043     2.87734
      S    2   -0.12266      5.00000     3.12243    0.00023     8.12266
 =======================================================================
   * Total *   -0.00000      6.00000     4.99934    0.00066    11.00000

 Normal termination of Gaussian 16 at Mon Apr 21 19:47:02 2025.
