 Gaussian 16, Revision A.03,
 Gaussian 16:  ES64L-G16RevA.03 25-Dec-2016

 --------------------------------------------
 #p opt UM062X/6-311+G** nosymm int=superfine
 --------------------------------------------

 -------------------
 Title Card Required
 -------------------
 Symbolic Z-matrix:
 Charge =  1 Multiplicity = 2

 SCF Done:  E(UM062X) =  -79.3411881310     A.U. after   10 cycles
 SCF Done:  E(UM062X) =  -79.3412133927     A.U. after    8 cycles
 Optimization completed.
    -- Stationary point found.

                          Input orientation:
 ---------------------------------------------------------------------
 Center     Atomic      Atomic             Coordinates (Angstroms)
 Number     Number       Type             X           Y           Z
 ---------------------------------------------------------------------
      1          6           0       -1.483739    0.000000    0.000000
      2          6           0        1.483739    0.000000    0.000000
      3          1           0        1.537268   -0.937132    0.542382
      4          1           0       -1.536027   -0.938245   -0.540576
      5          1           0        1.536749    0.938334    0.540353
      6          1           0        1.536016   -0.001155   -1.082831
      7          1           0       -1.537302    0.937222   -0.542226
      8          1           0       -1.536690    0.000929    1.082799
 ---------------------------------------------------------------------

 Alpha  occ. eigenvalues --  -10.85148 -10.85145  -1.04352  -1.02615  -0.74932
 Alpha  occ. eigenvalues --   -0.74931  -0.74080  -0.74080  -0.53175
 Alpha virt. eigenvalues --   -0.35010  -0.14236  -0.10335  -0.10335  -0.10132
 Alpha virt. eigenvalues --   -0.06222  -0.06222  -0.05461  -0.03219  -0.02410
 Alpha virt. eigenvalues --   -0.02407   0.01377   0.01380   0.05133   0.07586

  Beta  occ. eigenvalues --  -10.84951 -10.84951  -1.01415  -1.00223  -0.74364
  Beta  occ. eigenvalues --   -0.74363  -0.73573  -0.73573
  Beta virt. eigenvalues --   -0.32744  -0.25271  -0.15434  -0.11127  -0.11126
  Beta virt. eigenvalues --   -0.09896  -0.06459  -0.06458  -0.05574  -0.02611
  Beta virt. eigenvalues --   -0.02608  -0.02372   0.01701   0.01703   0.06022

 Mulliken charges and spin densities:
               1          2
     1  C   -0.273886   0.569366
     2  C   -0.273888   0.569367
     3  H    0.257979  -0.023131
     4  H    0.257931  -0.023129
     5  H    0.257958  -0.023130
     6  H    0.257949  -0.023105
     7  H    0.257981  -0.023131
     8  H    0.257975  -0.023107
 Sum of Mulliken charges =   1.00000   1.00000

 Dipole moment (field-independent basis, Debye):
    X=             -0.0000    Y=             -0.0000    Z=             -0.0001  Tot=              0.0001
 Quadrupole moment (field-independent basis, Debye-Ang):
   XX=             -0.5805   YY=            -11.0189   ZZ=            -11.0189
   XY=             -0.0014   XZ=              0.0008   YZ=             -0.0000

 Normal termination of Gaussian 16 at Wed Nov 13 12:34:46 2024.
