 Gaussian 16, Revision A.03,
 Gaussian 16:  ES64L-G16RevA.03 25-Dec-2016

 ---------------------------------------
 #p UM062X/6-311+G** force int=superfine
 ---------------------------------------

 -------------------
 Title Card Required
 -------------------
 Symbolic Z-matrix:
 Charge =  1 Multiplicity = 2

                         Standard orientation:
 ---------------------------------------------------------------------
 Center     Atomic      Atomic             Coordinates (Angstroms)
 Number     Number       Type             X           Y           Z
 ---------------------------------------------------------------------
      1          6           0        0.000000    0.000000    0.422513
      2          6           0        0.000000    0.000000   -0.422513
      3          1           0        0.000000    0.000000    1.489965
      4          1           0        0.000000    0.000000   -1.489965
 ---------------------------------------------------------------------

 SCF Done:  E(UM062X) =  -76.2759724872     A.U. after   11 cycles

 Unable to determine electronic state:  an orbital has unidentified symmetry.
 Alpha  occ. eigenvalues --  -10.92890 -10.87623  -1.34085  -0.93928  -0.92008
 Alpha  occ. eigenvalues --   -0.89601  -0.85551
 Alpha virt. eigenvalues --   -0.15354  -0.14933  -0.13992  -0.13373  -0.12080
 Alpha virt. eigenvalues --   -0.11888  -0.11754  -0.01890  -0.00900  -0.00763
 Alpha virt. eigenvalues --    0.02646   0.03770   0.16973   0.23021   0.23329

  Beta  occ. eigenvalues --  -10.92369 -10.87268  -1.27227  -0.92422  -0.90949
  Beta  occ. eigenvalues --   -0.82802
  Beta virt. eigenvalues --   -0.56609  -0.15453  -0.13299  -0.13063  -0.12791
  Beta virt. eigenvalues --   -0.12176  -0.11779  -0.11776  -0.00464  -0.00285
  Beta virt. eigenvalues --    0.00837   0.03116   0.04305   0.17347   0.22070

 Mulliken charges and spin densities:
               1          2
     1  C    0.260866   0.523738
     2  C    0.260866   0.523738
     3  H    0.239134  -0.023738
     4  H    0.239134  -0.023738
 Sum of Mulliken charges =   1.00000   1.00000

 Dipole moment (field-independent basis, Debye):
    X=              0.0000    Y=              0.0000    Z=              0.0000  Tot=              0.0000
 Quadrupole moment (field-independent basis, Debye-Ang):
   XX=             -8.3697   YY=             -9.7458   ZZ=             -2.8097
   XY=             -0.0000   XZ=             -0.0000   YZ=              0.0000

 Normal termination of Gaussian 16 at Tue Nov 19 13:24:50 2024.
