 Gaussian 16, Revision A.03,
 Gaussian 16:  ES64L-G16RevA.03 25-Dec-2016

 --------------------------------------------
 #p opt UM062X/6-311+G** nosymm int=superfine
 --------------------------------------------

 -------------------
 Title Card Required
 -------------------
 Symbolic Z-matrix:
 Charge =  0 Multiplicity = 1

 SCF Done:  E(UM062X) =  -797.499115197     A.U. after   12 cycles
 SCF Done:  E(UM062X) =  -797.500689100     A.U. after   11 cycles
 SCF Done:  E(UM062X) =  -797.500940270     A.U. after   12 cycles
 SCF Done:  E(UM062X) =  -797.501048321     A.U. after   12 cycles
 SCF Done:  E(UM062X) =  -797.501049552     A.U. after   10 cycles
 SCF Done:  E(UM062X) =  -797.501049721     A.U. after   10 cycles
 Optimization completed.
    -- Stationary point found.

                          Input orientation:
 ---------------------------------------------------------------------
 Center     Atomic      Atomic             Coordinates (Angstroms)
 Number     Number       Type             X           Y           Z
 ---------------------------------------------------------------------
      1         16           0       -1.368191    0.000000    0.000000
      2         16           0        1.368191    0.000000    0.000000
      3          1           0       -1.364670   -1.343231   -0.060315
      4          1           0        1.364758    0.097328    1.340961
 ---------------------------------------------------------------------

 Alpha  occ. eigenvalues --  -89.94331 -89.94331  -8.30489  -8.30487  -6.22644
 Alpha  occ. eigenvalues --   -6.22643  -6.22383  -6.22383  -6.21844  -6.21844
 Alpha  occ. eigenvalues --   -0.83555  -0.79314  -0.47718  -0.47197  -0.37423
 Alpha  occ. eigenvalues --   -0.33358  -0.32934
 Alpha virt. eigenvalues --   -0.13343   0.01842   0.03301   0.04778   0.05059
 Alpha virt. eigenvalues --    0.06141   0.07457   0.07472   0.07611   0.11974
 Alpha virt. eigenvalues --    0.13364   0.30779   0.31096   0.32272   0.35258

  Beta  occ. eigenvalues --  -89.94331 -89.94331  -8.30489  -8.30487  -6.22644
  Beta  occ. eigenvalues --   -6.22643  -6.22383  -6.22383  -6.21844  -6.21844
  Beta  occ. eigenvalues --   -0.83555  -0.79314  -0.47718  -0.47197  -0.37423
  Beta  occ. eigenvalues --   -0.33358  -0.32934
  Beta virt. eigenvalues --   -0.13343   0.01842   0.03301   0.04778   0.05059
  Beta virt. eigenvalues --    0.06141   0.07457   0.07472   0.07611   0.11974
  Beta virt. eigenvalues --    0.13364   0.30779   0.31096   0.32272   0.35258

 Mulliken charges and spin densities:
               1          2
     1  S   -0.089589   0.000000
     2  S   -0.089622   0.000000
     3  H    0.089612  -0.000000
     4  H    0.089599   0.000000
 Sum of Mulliken charges =   0.00000   0.00000

 Dipole moment (field-independent basis, Debye):
    X=             -0.0002    Y=             -0.9822    Z=              1.0096  Tot=              1.4086
 Quadrupole moment (field-independent basis, Debye-Ang):
   XX=            -25.8241   YY=            -27.7826   ZZ=            -27.8095
   XY=              1.9193   XZ=              1.8673   YZ=              0.4858

 Normal termination of Gaussian 16 at Mon Apr 21 21:15:55 2025.
