 Gaussian 16, Revision A.03,
 Gaussian 16:  ES64L-G16RevA.03 25-Dec-2016

 --------------------------------
 #p UM062X/6-311+G** Pop=NBO Read
 --------------------------------

 ------------
 NBO Analysis
 ------------
 Symbolic Z-matrix:
 Charge =  0 Multiplicity = 1

                         Standard orientation:
 ---------------------------------------------------------------------
 Center     Atomic      Atomic             Coordinates (Angstroms)
 Number     Number       Type             X           Y           Z
 ---------------------------------------------------------------------
      1          8           0        0.000000    0.000000   -0.993424
      2         16           0        0.000000    0.000000    0.496712
 ---------------------------------------------------------------------

 SCF Done:  E(UM062X) =  -473.241956970     A.U. after   10 cycles

 Unable to determine electronic state:  an orbital has unidentified symmetry.
 Alpha  occ. eigenvalues --  -90.03009 -19.72164  -8.37064  -6.29176  -6.29034
 Alpha  occ. eigenvalues --   -6.28116  -1.20630  -0.75117  -0.52057  -0.51225
 Alpha  occ. eigenvalues --   -0.49792  -0.28759
 Alpha virt. eigenvalues --   -0.13519   0.01359   0.02882   0.05401   0.06424
 Alpha virt. eigenvalues --    0.12971   0.19442   0.21757   0.22403   0.30050
 Alpha virt. eigenvalues --    0.49128   0.50170   0.50756   0.61944   0.76151

  Beta  occ. eigenvalues --  -90.03009 -19.72164  -8.37064  -6.29176  -6.29034
  Beta  occ. eigenvalues --   -6.28116  -1.20630  -0.75117  -0.52057  -0.51225
  Beta  occ. eigenvalues --   -0.49792  -0.28759
  Beta virt. eigenvalues --   -0.13519   0.01359   0.02882   0.05401   0.06424
  Beta virt. eigenvalues --    0.12971   0.19442   0.21757   0.22403   0.30050
  Beta virt. eigenvalues --    0.49128   0.50170   0.50756   0.61944   0.76151

 Mulliken charges and spin densities:
               1          2
     1  O   -0.298714   0.000000
     2  S    0.298714   0.000000
 Sum of Mulliken charges =   0.00000   0.00000

 Dipole moment (field-independent basis, Debye):
    X=              0.0000    Y=              0.0000    Z=              1.8246  Tot=              1.8246
 Quadrupole moment (field-independent basis, Debye-Ang):
   XX=            -19.9726   YY=            -15.7379   ZZ=            -18.9106
   XY=              0.0000   XZ=              0.0000   YZ=              0.0000

 Summary of Natural Population Analysis:

                                       Natural Population
                Natural  -----------------------------------------------
    Atom  No    Charge         Core      Valence    Rydberg      Total
 -----------------------------------------------------------------------
      O    1   -0.31601      0.99995     3.30675    0.00932     4.31601
      S    2    0.31601      4.99979     2.63856    0.04563     7.68399
 =======================================================================
   * Total *    0.00000      5.99974     5.94531    0.05495    12.00000

 Normal termination of Gaussian 16 at Wed Apr 16 05:32:53 2025.
