 Gaussian 16, Revision A.03,
 Gaussian 16:  ES64L-G16RevA.03 25-Dec-2016

 --------------------------------------------
 #p opt UM062X/6-311+G** nosymm int=superfine
 --------------------------------------------

 -------------------
 Title Card Required
 -------------------
 Symbolic Z-matrix:
 Charge =  0 Multiplicity = 1

 SCF Done:  E(UM062X) =  -797.482548775     A.U. after   12 cycles
 SCF Done:  E(UM062X) =  -797.484110568     A.U. after   12 cycles
 SCF Done:  E(UM062X) =  -797.484600308     A.U. after   12 cycles
 SCF Done:  E(UM062X) =  -797.484654115     A.U. after   12 cycles
 SCF Done:  E(UM062X) =  -797.484655573     A.U. after   10 cycles
 SCF Done:  E(UM062X) =  -797.484656078     A.U. after   10 cycles
 SCF Done:  E(UM062X) =  -797.484656105     A.U. after    9 cycles
 Optimization completed.
    -- Stationary point found.

                          Input orientation:
 ---------------------------------------------------------------------
 Center     Atomic      Atomic             Coordinates (Angstroms)
 Number     Number       Type             X           Y           Z
 ---------------------------------------------------------------------
      1         16           0       -1.443191    0.000000    0.000000
      2         16           0        1.443191    0.000000    0.000000
      3          1           0       -1.415971   -1.342829   -0.073815
      4          1           0        1.415966    0.109111    1.340292
 ---------------------------------------------------------------------

 Alpha  occ. eigenvalues --  -89.94531 -89.94531  -8.30675  -8.30674  -6.22833
 Alpha  occ. eigenvalues --   -6.22832  -6.22568  -6.22568  -6.22022  -6.22022
 Alpha  occ. eigenvalues --   -0.82992  -0.79768  -0.47512  -0.47227  -0.36472
 Alpha  occ. eigenvalues --   -0.33407  -0.33022
 Alpha virt. eigenvalues --   -0.15023   0.01891   0.03251   0.04740   0.05051
 Alpha virt. eigenvalues --    0.06185   0.07394   0.07420   0.07560   0.11707
 Alpha virt. eigenvalues --    0.13277   0.30587   0.31051   0.32212   0.35623

  Beta  occ. eigenvalues --  -89.94531 -89.94531  -8.30675  -8.30674  -6.22833
  Beta  occ. eigenvalues --   -6.22832  -6.22568  -6.22568  -6.22022  -6.22022
  Beta  occ. eigenvalues --   -0.82992  -0.79768  -0.47512  -0.47227  -0.36472
  Beta  occ. eigenvalues --   -0.33407  -0.33022
  Beta virt. eigenvalues --   -0.15023   0.01891   0.03251   0.04740   0.05051
  Beta virt. eigenvalues --    0.06185   0.07394   0.07420   0.07560   0.11707
  Beta virt. eigenvalues --    0.13277   0.30587   0.31051   0.32212   0.35623

 Mulliken charges and spin densities:
               1          2
     1  S   -0.089057  -0.000000
     2  S   -0.089092   0.000000
     3  H    0.089084   0.000000
     4  H    0.089064  -0.000000
 Sum of Mulliken charges =  -0.00000  -0.00000

 Dipole moment (field-independent basis, Debye):
    X=             -0.0003    Y=             -0.9781    Z=              1.0042  Tot=              1.4018
 Quadrupole moment (field-independent basis, Debye-Ang):
   XX=            -25.5937   YY=            -27.8640   ZZ=            -27.8937
   XY=              1.9678   XZ=              1.9168   YZ=              0.5619

 Normal termination of Gaussian 16 at Mon Apr 21 21:15:28 2025.
