 Gaussian 16, Revision A.03,
 Gaussian 16:  ES64L-G16RevA.03 25-Dec-2016

 --------------------------------------------
 #p opt UM062X/6-311+G** nosymm int=superfine
 --------------------------------------------

 -------------------
 Title Card Required
 -------------------
 Symbolic Z-matrix:
 Charge = -1 Multiplicity = 2

 SCF Done:  E(UM062X) =  -50.5543534998     A.U. after   14 cycles
 SCF Done:  E(UM062X) =  -50.5591755516     A.U. after   15 cycles
 SCF Done:  E(UM062X) =  -50.5595416642     A.U. after   16 cycles
 Optimization completed.
    -- Stationary point found.

                          Input orientation:
 ---------------------------------------------------------------------
 Center     Atomic      Atomic             Coordinates (Angstroms)
 Number     Number       Type             X           Y           Z
 ---------------------------------------------------------------------
      1          5           0       -1.741404    0.000000    0.000000
      2          5           0        1.741404    0.000000    0.000000
      3          1           0       -3.016284   -0.000964   -0.000001
      4          1           0        3.016284    0.000964    0.000000
 ---------------------------------------------------------------------

 Alpha  occ. eigenvalues --   -6.90703  -6.90703  -0.34145  -0.33860  -0.10096
 Alpha  occ. eigenvalues --   -0.05056   0.02510
 Alpha virt. eigenvalues --    0.11441   0.12471   0.14324   0.15658   0.16317
 Alpha virt. eigenvalues --    0.21926   0.22074   0.22301   0.22728   0.23606
 Alpha virt. eigenvalues --    0.25779   0.34029   0.37690   0.51942   0.57917

  Beta  occ. eigenvalues --   -6.90625  -6.90625  -0.33095  -0.32935  -0.08941
  Beta  occ. eigenvalues --   -0.04071
  Beta virt. eigenvalues --    0.10433   0.11438   0.12691   0.13256   0.13496
  Beta virt. eigenvalues --    0.13945   0.19151   0.20277   0.20536   0.21386
  Beta virt. eigenvalues --    0.21704   0.22358   0.33782   0.37737   0.51599

 Mulliken charges and spin densities:
               1          2
     1  B   -0.404984   0.509570
     2  B   -0.404984   0.509570
     3  H   -0.095016  -0.009570
     4  H   -0.095016  -0.009570
 Sum of Mulliken charges =  -1.00000   1.00000

 Dipole moment (field-independent basis, Debye):
    X=              0.0000    Y=             -0.0000    Z=             -0.0000  Tot=              0.0000
 Quadrupole moment (field-independent basis, Debye-Ang):
   XX=            -37.8019   YY=            -19.2547   ZZ=            -26.8577
   XY=             -0.0016   XZ=             -0.0000   YZ=              0.0057

 Normal termination of Gaussian 16 at Mon Apr 21 17:28:12 2025.
