 Gaussian 16, Revision A.03,
 Gaussian 16:  ES64L-G16RevA.03 25-Dec-2016

 --------------------------------------------
 #p opt UM062X/6-311+G** nosymm int=superfine
 --------------------------------------------

 -------------------
 Title Card Required
 -------------------
 Symbolic Z-matrix:
 Charge =  0 Multiplicity = 1

 SCF Done:  E(UM062X) =  -76.9510091612     A.U. after   10 cycles
 SCF Done:  E(UM062X) =  -77.0490843287     A.U. after   10 cycles
 SCF Done:  E(UM062X) =  -77.0732055320     A.U. after    9 cycles
 SCF Done:  E(UM062X) =  -77.0743817401     A.U. after    8 cycles
 Optimization completed.
    -- Stationary point found.

                          Input orientation:
 ---------------------------------------------------------------------
 Center     Atomic      Atomic             Coordinates (Angstroms)
 Number     Number       Type             X           Y           Z
 ---------------------------------------------------------------------
      1          6           0       -0.466842    0.000000    0.000000
      2          6           0        0.466842    0.000000    0.000000
      3          1           0       -1.525513   -0.000000   -0.000000
      4          1           0        1.525510   -0.000000   -0.000000
 ---------------------------------------------------------------------

 Alpha  occ. eigenvalues --  -10.48393 -10.46006  -0.89550  -0.60661  -0.56213
 Alpha  occ. eigenvalues --   -0.41710  -0.41710
 Alpha virt. eigenvalues --    0.02871   0.03483   0.07071   0.07071   0.07648
 Alpha virt. eigenvalues --    0.07648   0.09569   0.16910   0.21866   0.21866
 Alpha virt. eigenvalues --    0.22416   0.25095   0.44002   0.47007   0.53292

  Beta  occ. eigenvalues --  -10.48393 -10.46006  -0.89550  -0.60661  -0.56213
  Beta  occ. eigenvalues --   -0.41710  -0.41710
  Beta virt. eigenvalues --    0.02871   0.03483   0.07071   0.07071   0.07648
  Beta virt. eigenvalues --    0.07648   0.09569   0.16910   0.21866   0.21866
  Beta virt. eigenvalues --    0.22416   0.25095   0.44002   0.47007   0.53292

 Mulliken charges and spin densities:
               1          2
     1  C   -0.119409  -0.000000
     2  C   -0.119406   0.000000
     3  H    0.119408  -0.000000
     4  H    0.119407  -0.000000
 Sum of Mulliken charges =  -0.00000   0.00000

 Dipole moment (field-independent basis, Debye):
    X=             -0.0000    Y=             -0.0000    Z=             -0.0000  Tot=              0.0000
 Quadrupole moment (field-independent basis, Debye-Ang):
   XX=             -7.6626   YY=            -12.3845   ZZ=            -12.3845
   XY=              0.0000   XZ=              0.0000   YZ=              0.0000

 Normal termination of Gaussian 16 at Tue Dec  3 19:57:44 2024.
