 Gaussian 16, Revision A.03,
 Gaussian 16:  ES64L-G16RevA.03 25-Dec-2016

 ---------------------------------------
 #p UM062X/6-311+G** force int=superfine
 ---------------------------------------

 -------------------
 Title Card Required
 -------------------
 Symbolic Z-matrix:
 Charge =  0 Multiplicity = 1

                         Standard orientation:
 ---------------------------------------------------------------------
 Center     Atomic      Atomic             Coordinates (Angstroms)
 Number     Number       Type             X           Y           Z
 ---------------------------------------------------------------------
      1          6           0        0.000000    0.530298    0.000000
      2          6           0       -0.000000   -0.530298    0.000000
      3          1           0       -0.895997    1.154752    0.000000
      4          1           0        0.896138    1.154690    0.000000
      5          1           0        0.895997   -1.154752    0.000000
      6          1           0       -0.896138   -1.154690    0.000000
 ---------------------------------------------------------------------

 SCF Done:  E(UM062X) =  -78.4281953929     A.U. after    8 cycles

 The electronic state is 1-AG.
 Alpha  occ. eigenvalues --  -10.49763 -10.48964  -0.92802  -0.63598  -0.57066
 Alpha  occ. eigenvalues --   -0.52222  -0.39777  -0.36332
 Alpha virt. eigenvalues --    0.03349   0.04247   0.04576   0.06399   0.06933
 Alpha virt. eigenvalues --    0.08691   0.09806   0.16119   0.17482   0.18046
 Alpha virt. eigenvalues --    0.18523   0.24601   0.33710   0.40861   0.43514

  Beta  occ. eigenvalues --  -10.49763 -10.48964  -0.92802  -0.63598  -0.57066
  Beta  occ. eigenvalues --   -0.52222  -0.39777  -0.36332
  Beta virt. eigenvalues --    0.03349   0.04247   0.04576   0.06399   0.06933
  Beta virt. eigenvalues --    0.08691   0.09806   0.16119   0.17482   0.18046
  Beta virt. eigenvalues --    0.18523   0.24601   0.33710   0.40861   0.43514

 Mulliken charges and spin densities:
               1          2
     1  C   -0.264169   0.000000
     2  C   -0.264169   0.000000
     3  H    0.132094  -0.000000
     4  H    0.132075   0.000000
     5  H    0.132094  -0.000000
     6  H    0.132075   0.000000
 Sum of Mulliken charges =   0.00000  -0.00000

 Dipole moment (field-independent basis, Debye):
    X=              0.0000    Y=             -0.0000    Z=              0.0000  Tot=              0.0000
 Quadrupole moment (field-independent basis, Debye-Ang):
   XX=            -12.3635   YY=            -12.4744   ZZ=            -14.6514
   XY=             -0.0003   XZ=              0.0000   YZ=              0.0000

 Normal termination of Gaussian 16 at Tue Nov 19 11:42:03 2024.
