 Gaussian 16, Revision A.03,
 Gaussian 16:  ES64L-G16RevA.03 25-Dec-2016

 --------------------------------------------
 #p opt UM062X/6-311+G** nosymm int=superfine
 --------------------------------------------

 -------------------
 Title Card Required
 -------------------
 Symbolic Z-matrix:
 Charge =  0 Multiplicity = 1

 SCF Done:  E(UM062X) =  -582.355880100     A.U. after   10 cycles
 SCF Done:  E(UM062X) =  -582.358181564     A.U. after    9 cycles
 SCF Done:  E(UM062X) =  -582.358909251     A.U. after    9 cycles
 SCF Done:  E(UM062X) =  -582.358909774     A.U. after    9 cycles
 Optimization completed.
    -- Stationary point found.

                          Input orientation:
 ---------------------------------------------------------------------
 Center     Atomic      Atomic             Coordinates (Angstroms)
 Number     Number       Type             X           Y           Z
 ---------------------------------------------------------------------
      1         14           0       -2.619819    0.000000    0.000000
      2         14           0        2.619819    0.000000    0.000000
      3          1           0        3.017491   -1.421691   -0.000053
      4          1           0       -3.017253   -0.710824    1.231314
      5          1           0        3.017398    0.711000   -1.231165
      6          1           0        3.017263    0.710877    1.231280
      7          1           0       -3.017495    1.421690   -0.000110
      8          1           0       -3.017405   -0.711055   -1.231132
 ---------------------------------------------------------------------

 Alpha  occ. eigenvalues --  -67.01883 -67.01883  -5.56820  -5.56820  -3.88055
 Alpha  occ. eigenvalues --   -3.88055  -3.87805  -3.87805  -3.87805  -3.87805
 Alpha  occ. eigenvalues --   -0.61197  -0.61036  -0.42216  -0.42215  -0.42195
 Alpha  occ. eigenvalues --   -0.42194  -0.20709
 Alpha virt. eigenvalues --   -0.12267   0.01917   0.02991   0.02991   0.03167
 Alpha virt. eigenvalues --    0.04871   0.04871   0.06398   0.06644   0.07650
 Alpha virt. eigenvalues --    0.07650   0.08277   0.08278   0.10765   0.15121

  Beta  occ. eigenvalues --  -67.01883 -67.01883  -5.56820  -5.56820  -3.88055
  Beta  occ. eigenvalues --   -3.88055  -3.87805  -3.87805  -3.87805  -3.87805
  Beta  occ. eigenvalues --   -0.61197  -0.61036  -0.42216  -0.42215  -0.42195
  Beta  occ. eigenvalues --   -0.42194  -0.20709
  Beta virt. eigenvalues --   -0.12267   0.01917   0.02991   0.02991   0.03167
  Beta virt. eigenvalues --    0.04871   0.04871   0.06398   0.06644   0.07650
  Beta virt. eigenvalues --    0.07650   0.08277   0.08278   0.10765   0.15121

 Mulliken charges and spin densities:
               1          2
     1  Si   0.262367   0.000000
     2  Si   0.262368  -0.000000
     3  H   -0.087454  -0.000000
     4  H   -0.087457   0.000000
     5  H   -0.087457  -0.000000
     6  H   -0.087457  -0.000000
     7  H   -0.087454   0.000000
     8  H   -0.087457   0.000000
 Sum of Mulliken charges =  -0.00000  -0.00000

 Dipole moment (field-independent basis, Debye):
    X=              0.0000    Y=             -0.0000    Z=              0.0000  Tot=              0.0000
 Quadrupole moment (field-independent basis, Debye-Ang):
   XX=            -27.8587   YY=            -32.2415   ZZ=            -32.2417
   XY=             -0.0008   XZ=              0.0000   YZ=              0.0000

 Normal termination of Gaussian 16 at Mon Apr 21 20:21:22 2025.
