 Gaussian 16, Revision A.03,
 Gaussian 16:  ES64L-G16RevA.03 25-Dec-2016

 --------------------------------------------
 #p opt UM062X/6-311+G** nosymm int=superfine
 --------------------------------------------

 -------------------
 Title Card Required
 -------------------
 Symbolic Z-matrix:
 Charge =  1 Multiplicity = 2

 SCF Done:  E(UM062X) =  -79.3205844007     A.U. after   10 cycles
 SCF Done:  E(UM062X) =  -79.3214413159     A.U. after    9 cycles
 SCF Done:  E(UM062X) =  -79.3214446922     A.U. after    8 cycles
 Optimization completed.
    -- Stationary point found.

                          Input orientation:
 ---------------------------------------------------------------------
 Center     Atomic      Atomic             Coordinates (Angstroms)
 Number     Number       Type             X           Y           Z
 ---------------------------------------------------------------------
      1          6           0       -1.868940    0.000000    0.000000
      2          6           0        1.868940    0.000000    0.000000
      3          1           0        1.900179   -0.937637    0.542682
      4          1           0       -1.898586   -0.938738   -0.540862
      5          1           0        1.899501    0.938830    0.540653
      6          1           0        1.898657   -0.001166   -1.083398
      7          1           0       -1.900228    0.937739   -0.542505
      8          1           0       -1.899522    0.000942    1.083375
 ---------------------------------------------------------------------

 Alpha  occ. eigenvalues --  -10.83931 -10.83930  -1.02487  -1.02018  -0.73485
 Alpha  occ. eigenvalues --   -0.73485  -0.73306  -0.73306  -0.48507
 Alpha virt. eigenvalues --   -0.37327  -0.13000  -0.10200  -0.09662  -0.09662
 Alpha virt. eigenvalues --   -0.06235  -0.06235  -0.04435  -0.03090  -0.00494
 Alpha virt. eigenvalues --   -0.00491   0.01305   0.01307   0.03095   0.08413

  Beta  occ. eigenvalues --  -10.83717 -10.83717  -0.99823  -0.99515  -0.72974
  Beta  occ. eigenvalues --   -0.72973  -0.72774  -0.72774
  Beta virt. eigenvalues --   -0.32759  -0.26557  -0.16154  -0.11046  -0.11045
  Beta virt. eigenvalues --   -0.10189  -0.06257  -0.06257  -0.05029  -0.02150
  Beta virt. eigenvalues --   -0.00804  -0.00802   0.01579   0.01581   0.02987

 Mulliken charges and spin densities:
               1          2
     1  C   -0.257401   0.558114
     2  C   -0.257402   0.558114
     3  H    0.252488  -0.019366
     4  H    0.252448  -0.019371
     5  H    0.252470  -0.019371
     6  H    0.252444  -0.019376
     7  H    0.252489  -0.019367
     8  H    0.252464  -0.019377
 Sum of Mulliken charges =   1.00000   1.00000

 Dipole moment (field-independent basis, Debye):
    X=             -0.0000    Y=             -0.0000    Z=             -0.0001  Tot=              0.0001
 Quadrupole moment (field-independent basis, Debye-Ang):
   XX=              5.5562   YY=            -11.1034   ZZ=            -11.1036
   XY=             -0.0017   XZ=              0.0009   YZ=              0.0000

 Normal termination of Gaussian 16 at Wed Nov 13 12:52:08 2024.
