 Gaussian 16, Revision A.03,
 Gaussian 16:  ES64L-G16RevA.03 25-Dec-2016

 --------------------------------------------
 #p opt UM062X/6-311+G** nosymm int=superfine
 --------------------------------------------

 -------------------
 Title Card Required
 -------------------
 Symbolic Z-matrix:
 Charge = -1 Multiplicity = 2

 SCF Done:  E(UM062X) =  -51.9774381959     A.U. after   11 cycles
 SCF Done:  E(UM062X) =  -51.9789015291     A.U. after    9 cycles
 SCF Done:  E(UM062X) =  -51.9793878240     A.U. after    9 cycles
 SCF Done:  E(UM062X) =  -51.9793894391     A.U. after   10 cycles
 SCF Done:  E(UM062X) =  -51.9793300332     A.U. after   12 cycles
 SCF Done:  E(UM062X) =  -51.9793909504     A.U. after   12 cycles
 Optimization completed.
    -- Stationary point found.

                          Input orientation:
 ---------------------------------------------------------------------
 Center     Atomic      Atomic             Coordinates (Angstroms)
 Number     Number       Type             X           Y           Z
 ---------------------------------------------------------------------
      1          5           0       -1.122274    0.000000    0.000000
      2          5           0        1.122274    0.000000    0.000000
      3          1           0       -1.722471   -1.041889   -0.000670
      4          1           0        1.722471    1.041888   -0.001166
      5          1           0       -1.722471    1.041889    0.000343
      6          1           0        1.722471   -1.041889    0.000839
 ---------------------------------------------------------------------

 Alpha  occ. eigenvalues --   -6.84309  -6.84298  -0.36922  -0.33290  -0.20966
 Alpha  occ. eigenvalues --   -0.18733  -0.07645   0.00730
 Alpha virt. eigenvalues --    0.15734   0.16490   0.16918   0.19273   0.19397
 Alpha virt. eigenvalues --    0.22472   0.22758   0.25138   0.26521   0.31547
 Alpha virt. eigenvalues --    0.33579   0.35388   0.37606   0.43246   0.51077

  Beta  occ. eigenvalues --   -6.84284  -6.84276  -0.35128  -0.32099  -0.20709
  Beta  occ. eigenvalues --   -0.18673  -0.06706
  Beta virt. eigenvalues --    0.11388   0.14207   0.15045   0.16070   0.16878
  Beta virt. eigenvalues --    0.18364   0.18797   0.21345   0.23208   0.27578
  Beta virt. eigenvalues --    0.32667   0.33300   0.35439   0.36548   0.43211

 Mulliken charges and spin densities:
               1          2
     1  B   -0.384693   0.544836
     2  B   -0.384693   0.544836
     3  H   -0.057653  -0.022418
     4  H   -0.057653  -0.022418
     5  H   -0.057653  -0.022418
     6  H   -0.057653  -0.022418
 Sum of Mulliken charges =  -1.00000   1.00000

 Dipole moment (field-independent basis, Debye):
    X=              0.0000    Y=             -0.0000    Z=             -0.0001  Tot=              0.0001
 Quadrupole moment (field-independent basis, Debye-Ang):
   XX=            -30.1797   YY=            -23.2963   ZZ=            -24.0204
   XY=              0.0000   XZ=             -0.0000   YZ=             -0.0002

 Normal termination of Gaussian 16 at Mon Apr 21 17:17:18 2025.
