 Gaussian 16, Revision A.03,
 Gaussian 16:  ES64L-G16RevA.03 25-Dec-2016

 --------------------------------------------
 #p opt UM062X/6-311+G** nosymm int=superfine
 --------------------------------------------

 -------------------
 Title Card Required
 -------------------
 Symbolic Z-matrix:
 Charge =  1 Multiplicity = 2

 SCF Done:  E(UM062X) =  -80.1555178746     A.U. after   15 cycles
 SCF Done:  E(UM062X) =  -80.1563688224     A.U. after   10 cycles
 SCF Done:  E(UM062X) =  -80.1563716278     A.U. after   14 cycles
 Optimization completed.
    -- Stationary point found.

                          Input orientation:
 ---------------------------------------------------------------------
 Center     Atomic      Atomic             Coordinates (Angstroms)
 Number     Number       Type             X           Y           Z
 ---------------------------------------------------------------------
      1          5           0       -1.877734    0.000000    0.000000
      2          7           0        1.877734    0.000000    0.000000
      3          1           0       -3.083590   -0.000217   -0.000000
      4          1           0        2.913278    0.000109    0.000000
 ---------------------------------------------------------------------

 Alpha  occ. eigenvalues --  -14.95190  -7.53825  -1.08291  -0.86245  -0.62167
 Alpha  occ. eigenvalues --   -0.54738  -0.54738
 Alpha virt. eigenvalues --   -0.44848  -0.34962  -0.34962  -0.15630  -0.11711
 Alpha virt. eigenvalues --   -0.09954  -0.09954  -0.08114  -0.03988   0.01422
 Alpha virt. eigenvalues --    0.01422   0.03312   0.07842   0.12675   0.12675

  Beta  occ. eigenvalues --  -14.92712  -7.55060  -0.95450  -0.89872  -0.68310
  Beta  occ. eigenvalues --   -0.56509
  Beta virt. eigenvalues --   -0.36028  -0.36028  -0.19517  -0.19517  -0.14641
  Beta virt. eigenvalues --   -0.10654  -0.09746  -0.09746  -0.07064  -0.02904
  Beta virt. eigenvalues --    0.03428   0.03428   0.06357   0.08297   0.16143

 Mulliken charges and spin densities:
               1          2
     1  B    0.756501  -0.844632
     2  N   -0.244209   2.055038
     3  H    0.223451  -0.143053
     4  H    0.264257  -0.067353
 Sum of Mulliken charges =   1.00000   1.00000

 Dipole moment (field-independent basis, Debye):
    X=             -7.4999    Y=              0.0000    Z=             -0.0000  Tot=              7.4999
 Quadrupole moment (field-independent basis, Debye-Ang):
   XX=             18.8076   YY=            -10.2789   ZZ=            -10.2789
   XY=              0.0008   XZ=              0.0000   YZ=              0.0000

 Normal termination of Gaussian 16 at Mon Apr 21 17:54:57 2025.
