 Gaussian 16, Revision A.03,
 Gaussian 16:  ES64L-G16RevA.03 25-Dec-2016

 ---------------------------------------
 #p UM062X/6-311+G** force int=superfine
 ---------------------------------------

 -------------------
 Title Card Required
 -------------------
 Symbolic Z-matrix:
 Charge =  0 Multiplicity = 1

                         Standard orientation:
 ---------------------------------------------------------------------
 Center     Atomic      Atomic             Coordinates (Angstroms)
 Number     Number       Type             X           Y           Z
 ---------------------------------------------------------------------
      1          6           0        0.000000    0.589956   -0.000000
      2          6           0       -0.000000   -0.589956    0.000000
      3          1           0        0.909923    1.186561   -0.000000
      4          1           0       -0.909894    1.186575   -0.000000
      5          1           0       -0.909923   -1.186561    0.000000
      6          1           0        0.909894   -1.186575    0.000000
 ---------------------------------------------------------------------

 SCF Done:  E(UM062X) =  -78.5314387146     A.U. after    8 cycles

 The electronic state is 1-AG.
 Alpha  occ. eigenvalues --  -10.51478 -10.51167  -0.89799  -0.64832  -0.55590
 Alpha  occ. eigenvalues --   -0.50758  -0.38981  -0.36613
 Alpha virt. eigenvalues --    0.03391   0.04193   0.04870   0.04991   0.07297
 Alpha virt. eigenvalues --    0.08463   0.09763   0.15240   0.16104   0.17708
 Alpha virt. eigenvalues --    0.19322   0.23995   0.32592   0.39164   0.44065

  Beta  occ. eigenvalues --  -10.51478 -10.51167  -0.89799  -0.64832  -0.55590
  Beta  occ. eigenvalues --   -0.50758  -0.38981  -0.36613
  Beta virt. eigenvalues --    0.03391   0.04193   0.04870   0.04991   0.07297
  Beta virt. eigenvalues --    0.08463   0.09763   0.15240   0.16104   0.17708
  Beta virt. eigenvalues --    0.19322   0.23995   0.32592   0.39164   0.44065

 Mulliken charges and spin densities:
               1          2
     1  C   -0.278327  -0.000000
     2  C   -0.278327  -0.000000
     3  H    0.139162  -0.000000
     4  H    0.139165   0.000000
     5  H    0.139162  -0.000000
     6  H    0.139165   0.000000
 Sum of Mulliken charges =  -0.00000  -0.00000

 Dipole moment (field-independent basis, Debye):
    X=              0.0000    Y=              0.0000    Z=              0.0000  Tot=              0.0000
 Quadrupole moment (field-independent basis, Debye-Ang):
   XX=            -12.3353   YY=            -12.3924   ZZ=            -15.2301
   XY=             -0.0001   XZ=              0.0000   YZ=             -0.0000

 Normal termination of Gaussian 16 at Tue Nov 19 11:43:02 2024.
