 Gaussian 16, Revision A.03,
 Gaussian 16:  ES64L-G16RevA.03 25-Dec-2016

 ---------------------------------------
 #p UM062X/6-311+G** force int=superfine
 ---------------------------------------

 -------------------
 Title Card Required
 -------------------
 Symbolic Z-matrix:
 Charge =  1 Multiplicity = 2

                         Standard orientation:
 ---------------------------------------------------------------------
 Center     Atomic      Atomic             Coordinates (Angstroms)
 Number     Number       Type             X           Y           Z
 ---------------------------------------------------------------------
      1          6           0       -0.000000    0.600858    0.000000
      2          6           0       -0.000000   -0.600858    0.000000
      3          1           0        0.914036    1.194930    0.000000
      4          1           0       -0.914022    1.194934    0.000000
      5          1           0       -0.914036   -1.194930    0.000000
      6          1           0        0.914022   -1.194934    0.000000
 ---------------------------------------------------------------------

 SCF Done:  E(UM062X) =  -78.1286283935     A.U. after    9 cycles

 The electronic state is 2-AU.
 Alpha  occ. eigenvalues --  -10.88089 -10.87813  -1.26131  -0.96675  -0.87959
 Alpha  occ. eigenvalues --   -0.83613  -0.73062  -0.69696
 Alpha virt. eigenvalues --   -0.25091  -0.14867  -0.13838  -0.12461  -0.10516
 Alpha virt. eigenvalues --   -0.08044  -0.06542  -0.04973  -0.04177  -0.03263
 Alpha virt. eigenvalues --   -0.00033   0.03194   0.11934   0.14631   0.21255

  Beta  occ. eigenvalues --  -10.87828 -10.87566  -1.21557  -0.94830  -0.86519
  Beta  occ. eigenvalues --   -0.82696  -0.69440
  Beta virt. eigenvalues --   -0.46076  -0.19067  -0.16472  -0.13678  -0.12424
  Beta virt. eigenvalues --   -0.11200  -0.09004  -0.06585  -0.04759  -0.02902
  Beta virt. eigenvalues --   -0.02896  -0.00283   0.03375   0.12389   0.15075

 Mulliken charges and spin densities:
               1          2
     1  C   -0.042620   0.536331
     2  C   -0.042620   0.536331
     3  H    0.271310  -0.018166
     4  H    0.271310  -0.018165
     5  H    0.271310  -0.018166
     6  H    0.271310  -0.018165
 Sum of Mulliken charges =   1.00000   1.00000

 Dipole moment (field-independent basis, Debye):
    X=             -0.0000    Y=              0.0000    Z=              0.0000  Tot=              0.0000
 Quadrupole moment (field-independent basis, Debye-Ang):
   XX=             -8.5156   YY=             -6.3423   ZZ=            -11.0065
   XY=              0.0000   XZ=             -0.0000   YZ=             -0.0000

 Normal termination of Gaussian 16 at Tue Nov 19 11:53:16 2024.
