 Gaussian 16, Revision A.03,
 Gaussian 16:  ES64L-G16RevA.03 25-Dec-2016

 --------------------------------------------
 #p opt UM062X/6-311+G** nosymm int=superfine
 --------------------------------------------

 -------------------
 Title Card Required
 -------------------
 Symbolic Z-matrix:
 Charge =  0 Multiplicity = 1

 SCF Done:  E(UM062X) =  -51.9309837539     A.U. after    8 cycles
 SCF Done:  E(UM062X) =  -51.9324618186     A.U. after    8 cycles
 SCF Done:  E(UM062X) =  -51.9329597404     A.U. after    9 cycles
 SCF Done:  E(UM062X) =  -51.9329520921     A.U. after    8 cycles
 SCF Done:  E(UM062X) =  -51.9329611997     A.U. after    8 cycles
 SCF Done:  E(UM062X) =  -51.9330160675     A.U. after    8 cycles
 SCF Done:  E(UM062X) =  -51.9133444938     A.U. after   10 cycles
 SCF Done:  E(UM062X) =  -51.9339513974     A.U. after   10 cycles
 SCF Done:  E(UM062X) =  -51.9017675778     A.U. after   12 cycles
 SCF Done:  E(UM062X) =  -51.9347761697     A.U. after   10 cycles
 SCF Done:  E(UM062X) =  -51.9342353100     A.U. after   11 cycles
 SCF Done:  E(UM062X) =  -51.9343764150     A.U. after   11 cycles
 SCF Done:  E(UM062X) =  -51.9351245346     A.U. after    8 cycles
 SCF Done:  E(UM062X) =  -51.9353217805     A.U. after   10 cycles
 SCF Done:  E(UM062X) =  -51.9353563680     A.U. after    9 cycles
 SCF Done:  E(UM062X) =  -51.9353575208     A.U. after    8 cycles
 SCF Done:  E(UM062X) =  -51.9353577509     A.U. after    7 cycles
 Optimization completed.
    -- Stationary point found.

                          Input orientation:
 ---------------------------------------------------------------------
 Center     Atomic      Atomic             Coordinates (Angstroms)
 Number     Number       Type             X           Y           Z
 ---------------------------------------------------------------------
      1          5           0       -1.195607    0.000000    0.000000
      2          5           0        1.195607    0.000000    0.000000
      3          1           0       -1.754456   -0.740266   -0.737899
      4          1           0        1.754128    0.737821   -0.740598
      5          1           0       -1.754871    0.740290    0.737551
      6          1           0        1.755192   -0.737499    0.740092
 ---------------------------------------------------------------------

 Alpha  occ. eigenvalues --   -7.08548  -7.08540  -0.58028  -0.55059  -0.42311
 Alpha  occ. eigenvalues --   -0.42311  -0.28551
 Alpha virt. eigenvalues --   -0.03633  -0.03633   0.02324   0.02450   0.04939
 Alpha virt. eigenvalues --    0.04939   0.07030   0.07571   0.07572   0.08961
 Alpha virt. eigenvalues --    0.11445   0.15940   0.19085   0.21188   0.21189

  Beta  occ. eigenvalues --   -7.08548  -7.08540  -0.58028  -0.55059  -0.42311
  Beta  occ. eigenvalues --   -0.42311  -0.28551
  Beta virt. eigenvalues --   -0.03633  -0.03633   0.02324   0.02450   0.04939
  Beta virt. eigenvalues --    0.04939   0.07030   0.07571   0.07572   0.08961
  Beta virt. eigenvalues --    0.11445   0.15940   0.19085   0.21188   0.21189

 Mulliken charges and spin densities:
               1          2
     1  B   -0.031451  -0.000000
     2  B   -0.031450   0.000000
     3  H    0.015722   0.000000
     4  H    0.015717  -0.000000
     5  H    0.015728  -0.000000
     6  H    0.015733  -0.000000
 Sum of Mulliken charges =  -0.00000  -0.00000

 Dipole moment (field-independent basis, Debye):
    X=              0.0000    Y=              0.0000    Z=             -0.0001  Tot=              0.0001
 Quadrupole moment (field-independent basis, Debye-Ang):
   XX=            -16.1555   YY=            -15.1249   ZZ=            -15.1252
   XY=             -0.0002   XZ=              0.0001   YZ=             -0.0000

 Normal termination of Gaussian 16 at Mon Apr 21 17:11:20 2025.
