 Gaussian 16, Revision A.03,
 Gaussian 16:  ES64L-G16RevA.03 25-Dec-2016

 ---------------------------------------------------
 #p UM062X/6-311+G** force int=superfine pop=saveNBO
 ---------------------------------------------------

 -------------------
 Title Card Required
 -------------------
 Symbolic Z-matrix:
 Charge =  0 Multiplicity = 1

                         Standard orientation:
 ---------------------------------------------------------------------
 Center     Atomic      Atomic             Coordinates (Angstroms)
 Number     Number       Type             X           Y           Z
 ---------------------------------------------------------------------
      1          6           0        0.000000    0.000000   -0.784094
      2          8           0        0.000000    0.000000    0.588070
 ---------------------------------------------------------------------

 SCF Done:  E(UM062X) =  -113.220920188     A.U. after   10 cycles

 The electronic state is 1-SG.
 Alpha  occ. eigenvalues --  -19.73929 -10.74361  -1.17075  -0.67290  -0.48106
 Alpha  occ. eigenvalues --   -0.48106  -0.46555
 Alpha virt. eigenvalues --   -0.06335  -0.06335   0.03636   0.05531   0.06972
 Alpha virt. eigenvalues --    0.06972   0.19344   0.22470   0.22470   0.25677
 Alpha virt. eigenvalues --    0.32422   0.55016   0.55016   0.57433   0.78806

  Beta  occ. eigenvalues --  -19.73929 -10.74361  -1.17075  -0.67290  -0.48106
  Beta  occ. eigenvalues --   -0.48106  -0.46555
  Beta virt. eigenvalues --   -0.06335  -0.06335   0.03636   0.05531   0.06972
  Beta virt. eigenvalues --    0.06972   0.19344   0.22470   0.22470   0.25677
  Beta virt. eigenvalues --    0.32422   0.55016   0.55016   0.57433   0.78806

 Mulliken charges and spin densities:
               1          2
     1  C    0.162513  -0.000000
     2  O   -0.162513   0.000000
 Sum of Mulliken charges =  -0.00000  -0.00000

 Dipole moment (field-independent basis, Debye):
    X=              0.0000    Y=              0.0000    Z=             -1.0659  Tot=              1.0659
 Quadrupole moment (field-independent basis, Debye-Ang):
   XX=            -10.7991   YY=            -10.7991   ZZ=            -12.2398
   XY=              0.0000   XZ=              0.0000   YZ=              0.0000

 Summary of Natural Population Analysis:

                                       Natural Population
                Natural  -----------------------------------------------
    Atom  No    Charge         Core      Valence    Rydberg      Total
 -----------------------------------------------------------------------
      C    1    0.29948      0.99996     1.68200    0.01856     2.70052
      O    2   -0.29948      0.99995     3.29382    0.00571     4.29948
 =======================================================================
   * Total *   -0.00000      1.99991     4.97582    0.02427     7.00000

 Normal termination of Gaussian 16 at Mon Apr 21 19:30:29 2025.
