 Gaussian 16, Revision A.03,
 Gaussian 16:  ES64L-G16RevA.03 25-Dec-2016

 --------------------------------------------
 #p opt UM062X/6-311+G** nosymm int=superfine
 --------------------------------------------

 -------------------
 Title Card Required
 -------------------
 Symbolic Z-matrix:
 Charge =  0 Multiplicity = 1

 SCF Done:  E(UM062X) =  -94.2828859492     A.U. after   16 cycles
 SCF Done:  E(UM062X) =  -94.2892419764     A.U. after   15 cycles
 SCF Done:  E(UM062X) =  -94.2923173623     A.U. after   15 cycles
 SCF Done:  E(UM062X) =  -94.2923250664     A.U. after   13 cycles
 SCF Done:  E(UM062X) =  -94.2922944975     A.U. after   15 cycles
 SCF Done:  E(UM062X) =  -94.2923301948     A.U. after   12 cycles
 SCF Done:  E(UM062X) =  -94.2923342584     A.U. after   15 cycles
 SCF Done:  E(UM062X) =  -94.2923381017     A.U. after   13 cycles
 SCF Done:  E(UM062X) =  -94.2923384859     A.U. after   14 cycles
 Optimization completed.
    -- Stationary point found.

                          Input orientation:
 ---------------------------------------------------------------------
 Center     Atomic      Atomic             Coordinates (Angstroms)
 Number     Number       Type             X           Y           Z
 ---------------------------------------------------------------------
      1          6           0       -1.256637    0.000000    0.000000
      2          7           0        1.256637    0.000000    0.000000
      3          1           0       -2.019065   -0.791226   -0.000035
      4          1           0        1.154623   -1.029638   -0.000156
      5          1           0       -1.740919    0.983790    0.000580
 ---------------------------------------------------------------------

 Alpha  occ. eigenvalues --  -14.78800 -10.66186  -0.85363  -0.79049  -0.52908
 Alpha  occ. eigenvalues --   -0.41847  -0.35362  -0.28924
 Alpha virt. eigenvalues --   -0.11429  -0.06484   0.01345   0.05104   0.06501
 Alpha virt. eigenvalues --    0.07517   0.12900   0.14875   0.16873   0.17394
 Alpha virt. eigenvalues --    0.19701   0.20710   0.27049   0.42029   0.44386

  Beta  occ. eigenvalues --  -14.78800 -10.66186  -0.85363  -0.79049  -0.52908
  Beta  occ. eigenvalues --   -0.41847  -0.35362  -0.28924
  Beta virt. eigenvalues --   -0.11429  -0.06484   0.01345   0.05104   0.06501
  Beta virt. eigenvalues --    0.07517   0.12900   0.14875   0.16873   0.17394
  Beta virt. eigenvalues --    0.19701   0.20710   0.27049   0.42029   0.44386

 Mulliken charges and spin densities:
               1          2
     1  C   -0.280496   0.000000
     2  N   -0.257106  -0.000000
     3  H    0.173234  -0.000000
     4  H    0.186881   0.000000
     5  H    0.177488  -0.000000
 Sum of Mulliken charges =  -0.00000  -0.00000

 Dipole moment (field-independent basis, Debye):
    X=             -3.6919    Y=             -1.2558    Z=              0.0005  Tot=              3.8996
 Quadrupole moment (field-independent basis, Debye-Ang):
   XX=             -9.7875   YY=            -12.4659   ZZ=            -15.2351
   XY=             -2.2885   XZ=             -0.0001   YZ=              0.0003

 Normal termination of Gaussian 16 at Mon Apr 21 18:19:06 2025.
