 Gaussian 16, Revision A.03,
 Gaussian 16:  ES64L-G16RevA.03 25-Dec-2016

 --------------------------------------------
 #p opt UM062X/6-311+G** nosymm int=superfine
 --------------------------------------------

 -------------------
 Title Card Required
 -------------------
 Symbolic Z-matrix:
 Charge =  0 Multiplicity = 1

 SCF Done:  E(UM062X) =  -77.2235254547     A.U. after    9 cycles
 SCF Done:  E(UM062X) =  -77.2514591609     A.U. after    9 cycles
 SCF Done:  E(UM062X) =  -77.2568113001     A.U. after    9 cycles
 SCF Done:  E(UM062X) =  -77.2568171290     A.U. after    7 cycles
 Optimization completed.
    -- Stationary point found.

                          Input orientation:
 ---------------------------------------------------------------------
 Center     Atomic      Atomic             Coordinates (Angstroms)
 Number     Number       Type             X           Y           Z
 ---------------------------------------------------------------------
      1          6           0       -0.700263    0.000000    0.000000
      2          6           0        0.700263    0.000000    0.000000
      3          1           0       -1.769058    0.000000    0.000000
      4          1           0        1.769055    0.000000    0.000000
 ---------------------------------------------------------------------

 Alpha  occ. eigenvalues --  -10.60258 -10.60175  -0.81418  -0.67128  -0.55937
 Alpha  occ. eigenvalues --   -0.32978  -0.32978
 Alpha virt. eigenvalues --    0.00846   0.00846   0.02265   0.02461   0.07993
 Alpha virt. eigenvalues --    0.07993   0.09337   0.12389   0.12389   0.13026
 Alpha virt. eigenvalues --    0.18569   0.23688   0.34216   0.45677   0.58348

  Beta  occ. eigenvalues --  -10.60258 -10.60175  -0.81418  -0.67128  -0.55937
  Beta  occ. eigenvalues --   -0.32978  -0.32978
  Beta virt. eigenvalues --    0.00846   0.00846   0.02265   0.02461   0.07993
  Beta virt. eigenvalues --    0.07993   0.09337   0.12389   0.12389   0.13026
  Beta virt. eigenvalues --    0.18569   0.23688   0.34216   0.45677   0.58348

 Mulliken charges and spin densities:
               1          2
     1  C   -0.209931  -0.000000
     2  C   -0.209931   0.000000
     3  H    0.209932   0.000000
     4  H    0.209931  -0.000000
 Sum of Mulliken charges =  -0.00000  -0.00000

 Dipole moment (field-independent basis, Debye):
    X=             -0.0000    Y=              0.0000    Z=              0.0000  Tot=              0.0000
 Quadrupole moment (field-independent basis, Debye-Ang):
   XX=             -6.1570   YY=            -14.7117   ZZ=            -14.7117
   XY=              0.0000   XZ=             -0.0000   YZ=             -0.0000

 Normal termination of Gaussian 16 at Tue Dec  3 20:06:55 2024.
