 Gaussian 16, Revision A.03,
 Gaussian 16:  ES64L-G16RevA.03 25-Dec-2016

 --------------------------------------------
 #p opt UM062X/6-311+G** nosymm int=superfine
 --------------------------------------------

 -------------------
 Title Card Required
 -------------------
 Symbolic Z-matrix:
 Charge =  0 Multiplicity = 1

 SCF Done:  E(UM062X) =  -83.1192716628     A.U. after   10 cycles
 SCF Done:  E(UM062X) =  -83.1354268178     A.U. after    9 cycles
 SCF Done:  E(UM062X) =  -83.1392529835     A.U. after    8 cycles
 SCF Done:  E(UM062X) =  -83.1392852958     A.U. after    7 cycles
 Optimization completed.
    -- Stationary point found.

                          Input orientation:
 ---------------------------------------------------------------------
 Center     Atomic      Atomic             Coordinates (Angstroms)
 Number     Number       Type             X           Y           Z
 ---------------------------------------------------------------------
      1          5           0       -2.302429    0.000000    0.000000
      2          7           0        2.302429    0.000000    0.000000
      3          1           0        2.667002   -0.945069    0.000002
      4          1           0       -2.309443   -0.593877    1.028595
      5          1           0        2.666896    0.472585   -0.818476
      6          1           0        2.666883    0.472583    0.818482
      7          1           0       -2.309416    1.187726    0.000014
      8          1           0       -2.309460   -0.593856   -1.028607
 ---------------------------------------------------------------------

 Alpha  occ. eigenvalues --  -14.72614  -7.04645  -0.95925  -0.57928  -0.53757
 Alpha  occ. eigenvalues --   -0.53757  -0.40321  -0.40321  -0.33939
 Alpha virt. eigenvalues --   -0.02652   0.02715   0.04702   0.04702   0.04707
 Alpha virt. eigenvalues --    0.08543   0.10498   0.10498   0.16228   0.18089
 Alpha virt. eigenvalues --    0.18089   0.18831   0.18831   0.21242   0.27573

  Beta  occ. eigenvalues --  -14.72614  -7.04645  -0.95925  -0.57928  -0.53757
  Beta  occ. eigenvalues --   -0.53757  -0.40321  -0.40321  -0.33939
  Beta virt. eigenvalues --   -0.02652   0.02715   0.04702   0.04702   0.04707
  Beta virt. eigenvalues --    0.08543   0.10498   0.10498   0.16228   0.18089
  Beta virt. eigenvalues --    0.18089   0.18831   0.18831   0.21242   0.27573

 Mulliken charges and spin densities:
               1          2
     1  B    0.026660   0.000000
     2  N   -0.731248  -0.000000
     3  H    0.243963   0.000000
     4  H   -0.009102   0.000000
     5  H    0.243963   0.000000
     6  H    0.243963  -0.000000
     7  H   -0.009097  -0.000000
     8  H   -0.009102  -0.000000
 Sum of Mulliken charges =  -0.00000   0.00000

 Dipole moment (field-independent basis, Debye):
    X=              1.8484    Y=              0.0002    Z=              0.0000  Tot=              1.8484
 Quadrupole moment (field-independent basis, Debye-Ang):
   XX=             -8.6646   YY=            -15.6071   ZZ=            -15.6071
   XY=              0.0001   XZ=             -0.0000   YZ=              0.0000

 Normal termination of Gaussian 16 at Mon Apr 21 17:41:15 2025.
