 Gaussian 16, Revision A.03,
 Gaussian 16:  ES64L-G16RevA.03 25-Dec-2016

 ---------------------------------------
 #p UM062X/6-311+G** force int=superfine
 ---------------------------------------

 -------------------
 Title Card Required
 -------------------
 Symbolic Z-matrix:
 Charge =  1 Multiplicity = 2

                         Standard orientation:
 ---------------------------------------------------------------------
 Center     Atomic      Atomic             Coordinates (Angstroms)
 Number     Number       Type             X           Y           Z
 ---------------------------------------------------------------------
      1          6           0        0.502241    0.785254   -1.669096
      2          6           0       -0.502244   -0.785248    1.669097
      3          1           0       -1.408248   -1.194486    1.237635
      4          1           0        0.523485   -0.185180   -2.151053
      5          1           0       -0.523519    0.184751    2.151930
      6          1           0        0.402556   -1.381281    1.692674
      7          1           0        1.408155    1.194685   -1.237628
      8          1           0       -0.402408    1.381480   -1.693567
 ---------------------------------------------------------------------

 SCF Done:  E(UM062X) =  -79.3200387799     A.U. after   10 cycles

 The electronic state is 2-A.
 Alpha  occ. eigenvalues --  -10.83779 -10.83777  -1.02335  -1.01923  -0.73356
 Alpha  occ. eigenvalues --   -0.73355  -0.73205  -0.73205  -0.48100
 Alpha virt. eigenvalues --   -0.37447  -0.12899  -0.10186  -0.09572  -0.09571
 Alpha virt. eigenvalues --   -0.06229  -0.06229  -0.04405  -0.03030  -0.00325
 Alpha virt. eigenvalues --   -0.00323   0.01327   0.01329   0.02922   0.08528

  Beta  occ. eigenvalues --  -10.83562 -10.83562  -0.99675  -0.99409  -0.72840
  Beta  occ. eigenvalues --   -0.72840  -0.72670  -0.72669
  Beta virt. eigenvalues --   -0.32693  -0.26605  -0.16331  -0.10992  -0.10991
  Beta virt. eigenvalues --   -0.10203  -0.06239  -0.06238  -0.05096  -0.02086
  Beta virt. eigenvalues --   -0.00613  -0.00609   0.01595   0.01597   0.02747

 Mulliken charges and spin densities:
               1          2
     1  C   -0.254752   0.557540
     2  C   -0.254753   0.557540
     3  H    0.251615  -0.019166
     4  H    0.251562  -0.019182
     5  H    0.251585  -0.019182
     6  H    0.251554  -0.019191
     7  H    0.251616  -0.019167
     8  H    0.251574  -0.019192
 Sum of Mulliken charges =   1.00000   1.00000

 Dipole moment (field-independent basis, Debye):
    X=              0.0000    Y=             -0.0001    Z=             -0.0000  Tot=              0.0001
 Quadrupole moment (field-independent basis, Debye-Ang):
   XX=             -9.9077   YY=             -8.1749   ZZ=              2.1410
   XY=              1.8769   XZ=             -3.9886   YZ=             -6.2343

 Normal termination of Gaussian 16 at Wed Nov 13 13:05:52 2024.
