 Gaussian 16, Revision A.03,
 Gaussian 16:  ES64L-G16RevA.03 25-Dec-2016

 --------------------------------------------
 #p opt UM062X/6-311+G** nosymm int=superfine
 --------------------------------------------

 -------------------
 Title Card Required
 -------------------
 Symbolic Z-matrix:
 Charge =  1 Multiplicity = 2

 SCF Done:  E(UM062X) =  -580.858885770     A.U. after   15 cycles
 SCF Done:  E(UM062X) =  -580.866506825     A.U. after    9 cycles
 SCF Done:  E(UM062X) =  -580.868675667     A.U. after   13 cycles
 SCF Done:  E(UM062X) =  -580.868678621     A.U. after    7 cycles
 Optimization completed.
    -- Stationary point found.

                          Input orientation:
 ---------------------------------------------------------------------
 Center     Atomic      Atomic             Coordinates (Angstroms)
 Number     Number       Type             X           Y           Z
 ---------------------------------------------------------------------
      1         14           0       -2.541295    0.000000    0.000000
      2         14           0        2.541295    0.000000    0.000000
      3          1           0       -3.442808   -1.189127    0.000045
      4          1           0        3.442808    1.189126    0.001073
      5          1           0       -3.442823    1.189115   -0.000037
      6          1           0        3.442823   -1.189114   -0.001064
 ---------------------------------------------------------------------

 Alpha  occ. eigenvalues --  -67.23586 -67.23586  -5.78086  -5.78086  -4.09354
 Alpha  occ. eigenvalues --   -4.09354  -4.09033  -4.09033  -4.08693  -4.08693
 Alpha  occ. eigenvalues --   -0.77616  -0.77578  -0.59421  -0.59412  -0.48478
 Alpha  occ. eigenvalues --   -0.47521
 Alpha virt. eigenvalues --   -0.26399  -0.26097  -0.11887  -0.11666  -0.09172
 Alpha virt. eigenvalues --   -0.08571  -0.07642  -0.06733  -0.06712  -0.05904
 Alpha virt. eigenvalues --   -0.05380  -0.05311  -0.05272  -0.03338   0.13365

  Beta  occ. eigenvalues --  -67.23259 -67.23259  -5.77842  -5.77842  -4.09253
  Beta  occ. eigenvalues --   -4.09253  -4.08586  -4.08586  -4.08266  -4.08266
  Beta  occ. eigenvalues --   -0.75816  -0.75651  -0.58254  -0.58238  -0.41538
  Beta virt. eigenvalues --   -0.33556  -0.25240  -0.24846  -0.11210  -0.10493
  Beta virt. eigenvalues --   -0.09233  -0.07105  -0.06985  -0.06285  -0.06234
  Beta virt. eigenvalues --   -0.05952  -0.05181  -0.05067  -0.04587  -0.02966

 Mulliken charges and spin densities:
               1          2
     1  Si   0.566166   0.390385
     2  Si   0.566166   0.390385
     3  H   -0.033083   0.054807
     4  H   -0.033083   0.054807
     5  H   -0.033083   0.054807
     6  H   -0.033083   0.054807
 Sum of Mulliken charges =   1.00000   1.00000

 Dipole moment (field-independent basis, Debye):
    X=             -0.0000    Y=              0.0000    Z=              0.0000  Tot=              0.0000
 Quadrupole moment (field-independent basis, Debye-Ang):
   XX=             11.1105   YY=            -25.9542   ZZ=            -20.8858
   XY=             -0.0000   XZ=              0.0000   YZ=             -0.0022

 Normal termination of Gaussian 16 at Mon Apr 21 20:26:34 2025.
