 Gaussian 16, Revision A.03,
 Gaussian 16:  ES64L-G16RevA.03 25-Dec-2016

 ---------------------------------------------------------------------
 #p opt UM062X/6-311+G** nosymm int=superfine SCF=(Tight,MaxCycle=200)
 ---------------------------------------------------------------------

 -------------------
 Title Card Required
 -------------------
 Symbolic Z-matrix:
 Charge =  1 Multiplicity = 2

 SCF Done:  E(UM062X) =  -1615.42123976     A.U. after   22 cycles
 SCF Done:  E(UM062X) =  -1615.50627275     A.U. after   20 cycles
 SCF Done:  E(UM062X) =  -1615.56271347     A.U. after   20 cycles
 SCF Done:  E(UM062X) =  -1615.56317464     A.U. after   20 cycles
 SCF Done:  E(UM062X) =  -1615.56127619     A.U. after   21 cycles
 SCF Done:  E(UM062X) =  -1615.56422715     A.U. after   20 cycles
 SCF Done:  E(UM062X) =  -1615.56296977     A.U. after   19 cycles
 SCF Done:  E(UM062X) =  -1615.56474154     A.U. after   19 cycles
 SCF Done:  E(UM062X) =  -1615.56535883     A.U. after   19 cycles
 SCF Done:  E(UM062X) =  -1615.56563086     A.U. after   19 cycles
 SCF Done:  E(UM062X) =  -1615.56567533     A.U. after   18 cycles
 SCF Done:  E(UM062X) =  -1615.56565252     A.U. after   16 cycles
 SCF Done:  E(UM062X) =  -1615.56569951     A.U. after   16 cycles
 SCF Done:  E(UM062X) =  -1615.56570018     A.U. after   14 cycles
 SCF Done:  E(UM062X) =  -1615.56570042     A.U. after   13 cycles
 SCF Done:  E(UM062X) =  -1615.56570053     A.U. after   12 cycles
 SCF Done:  E(UM062X) =  -1615.56570054     A.U. after   12 cycles
 Optimization completed.
    -- Stationary point found.

                          Input orientation:
 ---------------------------------------------------------------------
 Center     Atomic      Atomic             Coordinates (Angstroms)
 Number     Number       Type             X           Y           Z
 ---------------------------------------------------------------------
      1          6           0       -1.098559    0.000000    0.000000
      2          6           0        1.098559    0.000000    0.000000
      3          6           0        0.000016   -2.175713    0.000625
      4          6           0        0.000021   -3.544775    0.000967
      5          6           0       -1.124697   -4.327812    0.316845
      6          6           0       -1.181549   -1.479028    0.300318
      7          6           0        0.653472   -5.724893   -0.183812
      8          1           0        1.256453   -6.604675   -0.357801
      9          6           0       -1.430091    0.876452    1.132334
     10          6           0       -0.653647   -5.724806    0.185967
     11          1           0       -1.256708   -6.604507    0.360086
     12          6           0        1.124649   -4.327962   -0.314892
     13          6           0        1.181557   -1.479172   -0.299556
     14          6           0        1.636455    2.288118   -1.090804
     15          6           0       -1.439594    0.255697   -1.422476
     16          6           0       -1.863569    2.989053    2.296972
     17          1           0       -2.023708    4.059405    2.239713
     18          6           0       -2.280426   -3.650402    0.647928
     19          1           0       -3.193752   -4.174043    0.906971
     20          6           0       -1.554953    1.535636   -2.042708
     21          6           0        2.301673   -2.218190   -0.627374
     22          1           0        3.237773   -1.713127   -0.841496
     23          6           0        1.439639    0.256399    1.422330
     24          6           0        1.555071    1.536643    2.041922
     25          6           0        2.280318   -3.650713   -0.646486
     26          1           0        3.193560   -4.174475   -0.905579
     27          6           0       -1.636225    2.288731    1.089619
     28          6           0       -1.447336    0.273409    2.415316
     29          1           0       -1.266420   -0.786975    2.500627
     30          6           0        1.598918   -0.862140    2.282717
     31          1           0        1.557284   -1.863741    1.885541
     32          6           0       -1.887786    2.363325    3.520383
     33          1           0       -2.066415    2.931890    4.424787
     34          6           0       -2.301736   -2.217893    0.628270
     35          1           0       -3.237866   -1.712721    0.842000
     36          6           0       -1.754424    1.622363   -3.438310
     37          1           0       -1.819370    2.609907   -3.879992
     38          6           0        1.430110    0.875847   -1.132788
     39          6           0       -1.592573    3.127981   -0.075802
     40          1           0       -1.636984    4.189974    0.145466
     41          6           0       -1.894908    0.511003   -4.235649
     42          1           0       -2.064057    0.614159   -5.300389
     43          6           0       -1.524599    2.813606   -1.385227
     44          1           0       -1.520000    3.659639   -2.065713
     45          6           0        1.754475    1.624048    3.437489
     46          1           0        1.819444    2.611806    3.878691
     47          6           0       -1.670272    0.982192    3.574629
     48          1           0       -1.666084    0.464101    4.525978
     49          6           0       -1.598899   -0.863262   -2.282323
     50          1           0       -1.557267   -1.864673   -1.884673
     51          6           0        1.894886    0.513071    4.235380
     52          1           0        2.063995    0.616747    5.300077
     53          6           0        1.863846    2.987782   -2.298537
     54          1           0        2.024163    4.058136   -2.241835
     55          6           0        1.831099   -0.745699    3.637690
     56          1           0        1.961123   -1.642866    4.230525
     57          6           0        1.887899    2.361421   -3.521626
     58          1           0        2.066557    2.929494   -4.426334
     59          6           0        1.593038    3.127968    0.074191
     60          1           0        1.637712    4.189838   -0.147612
     61          6           0       -1.831108   -0.747478   -3.637346
     62          1           0       -1.961140   -1.644933   -4.229743
     63          6           0        1.524935    2.814278    1.383779
     64          1           0        1.520463    3.660664    2.063827
     65          6           0        1.447280    0.272127   -2.415452
     66          1           0        1.266290   -0.788291   -2.500192
     67          6           0        1.670231    0.980281   -3.575145
     68          1           0        1.665944    0.461692   -4.526222
 ---------------------------------------------------------------------

 Alpha  occ. eigenvalues --  -10.71925 -10.71920 -10.68770 -10.68770 -10.68549
 Alpha  occ. eigenvalues --  -10.68549 -10.68473 -10.68473 -10.67896 -10.67896
 Alpha  occ. eigenvalues --  -10.66854 -10.66853 -10.66722 -10.66722 -10.66702
 Alpha  occ. eigenvalues --  -10.66702 -10.66068 -10.66068 -10.65939 -10.65939
 Alpha  occ. eigenvalues --  -10.65918 -10.65918 -10.65884 -10.65884 -10.65686
 Alpha  occ. eigenvalues --  -10.65686 -10.65597 -10.65597 -10.65573 -10.65573
 Alpha  occ. eigenvalues --  -10.65433 -10.65433 -10.65411 -10.65411 -10.65251
 Alpha  occ. eigenvalues --  -10.65251 -10.64994 -10.64994 -10.64807 -10.64102
 Alpha  occ. eigenvalues --  -10.64006 -10.62868  -1.12940  -1.10402  -1.09909
 Alpha  occ. eigenvalues --   -1.08523  -1.07833  -1.06128  -1.04431  -1.02717
 Alpha  occ. eigenvalues --   -1.02253  -1.00691  -1.00347  -0.97927  -0.97717
 Alpha  occ. eigenvalues --   -0.96964  -0.96231  -0.94971  -0.93453  -0.93424
 Alpha  occ. eigenvalues --   -0.92733  -0.91933  -0.87794  -0.87164  -0.84973
 Alpha  occ. eigenvalues --   -0.84738  -0.82897  -0.81600  -0.81240  -0.79920
 Alpha  occ. eigenvalues --   -0.79754  -0.79522  -0.77727  -0.76414  -0.76193
 Alpha  occ. eigenvalues --   -0.75551  -0.75372  -0.73829  -0.70170  -0.69900
 Alpha  occ. eigenvalues --   -0.69095  -0.68349  -0.67755  -0.67578  -0.67035
 Alpha  occ. eigenvalues --   -0.66808  -0.65560  -0.65282  -0.65008  -0.64866
 Alpha  occ. eigenvalues --   -0.63522  -0.63070  -0.62251  -0.62232  -0.61442
 Alpha  occ. eigenvalues --   -0.61251  -0.60715  -0.60313  -0.60185  -0.59990
 Alpha  occ. eigenvalues --   -0.59604  -0.58874  -0.58639  -0.58110  -0.57799
 Alpha  occ. eigenvalues --   -0.57474  -0.56340  -0.55786  -0.55711  -0.55709
 Alpha  occ. eigenvalues --   -0.54934  -0.54423  -0.53593  -0.52872  -0.52745
 Alpha  occ. eigenvalues --   -0.52565  -0.52232  -0.52071  -0.51584  -0.51038
 Alpha  occ. eigenvalues --   -0.50934  -0.50931  -0.50545  -0.49343  -0.48876
 Alpha  occ. eigenvalues --   -0.48818  -0.48494  -0.48099  -0.44369  -0.43923
 Alpha  occ. eigenvalues --   -0.43464  -0.43208  -0.40766  -0.40219  -0.39403
 Alpha  occ. eigenvalues --   -0.37969  -0.37897  -0.37233  -0.34406
 Alpha virt. eigenvalues --   -0.16994  -0.15546  -0.15247  -0.14929  -0.10254
 Alpha virt. eigenvalues --   -0.09955  -0.08739  -0.08649  -0.08326  -0.07678
 Alpha virt. eigenvalues --   -0.07634  -0.07493  -0.06676  -0.06603  -0.06363

  Beta  occ. eigenvalues --  -10.71827 -10.71825 -10.68755 -10.68755 -10.68553
  Beta  occ. eigenvalues --  -10.68552 -10.68431 -10.68431 -10.67867 -10.67867
  Beta  occ. eigenvalues --  -10.66832 -10.66832 -10.66727 -10.66727 -10.66675
  Beta  occ. eigenvalues --  -10.66675 -10.66049 -10.66049 -10.65940 -10.65940
  Beta  occ. eigenvalues --  -10.65922 -10.65922 -10.65867 -10.65867 -10.65673
  Beta  occ. eigenvalues --  -10.65673 -10.65598 -10.65598 -10.65581 -10.65581
  Beta  occ. eigenvalues --  -10.65424 -10.65424 -10.65403 -10.65403 -10.65250
  Beta  occ. eigenvalues --  -10.65249 -10.64990 -10.64990 -10.64795 -10.64102
  Beta  occ. eigenvalues --  -10.64005 -10.62869  -1.12800  -1.10296  -1.09732
  Beta  occ. eigenvalues --   -1.08386  -1.07706  -1.05996  -1.04330  -1.02543
  Beta  occ. eigenvalues --   -1.02094  -1.00559  -1.00196  -0.97808  -0.97609
  Beta  occ. eigenvalues --   -0.96833  -0.96121  -0.94925  -0.93348  -0.93333
  Beta  occ. eigenvalues --   -0.92589  -0.91816  -0.87511  -0.86904  -0.84875
  Beta  occ. eigenvalues --   -0.84648  -0.82826  -0.81479  -0.81161  -0.79811
  Beta  occ. eigenvalues --   -0.79681  -0.79449  -0.77590  -0.76227  -0.76022
  Beta  occ. eigenvalues --   -0.75384  -0.75337  -0.73705  -0.70058  -0.69757
  Beta  occ. eigenvalues --   -0.68990  -0.68257  -0.67652  -0.67494  -0.66907
  Beta  occ. eigenvalues --   -0.66703  -0.65465  -0.65163  -0.64884  -0.64736
  Beta  occ. eigenvalues --   -0.63230  -0.63027  -0.62172  -0.62126  -0.61188
  Beta  occ. eigenvalues --   -0.61071  -0.60562  -0.60184  -0.60126  -0.59923
  Beta  occ. eigenvalues --   -0.59466  -0.58693  -0.58556  -0.57998  -0.57464
  Beta  occ. eigenvalues --   -0.57291  -0.56210  -0.55691  -0.55617  -0.55188
  Beta  occ. eigenvalues --   -0.54917  -0.53979  -0.53332  -0.52767  -0.52647
  Beta  occ. eigenvalues --   -0.52510  -0.52135  -0.51953  -0.51110  -0.50954
  Beta  occ. eigenvalues --   -0.50815  -0.50598  -0.49846  -0.49148  -0.48761
  Beta  occ. eigenvalues --   -0.48741  -0.48399  -0.47622  -0.43780  -0.43265
  Beta  occ. eigenvalues --   -0.42964  -0.42813  -0.40329  -0.40165  -0.38790
  Beta  occ. eigenvalues --   -0.37677  -0.37332  -0.36878
  Beta virt. eigenvalues --   -0.24800  -0.16015  -0.15485  -0.14834  -0.14750
  Beta virt. eigenvalues --   -0.10105  -0.09559  -0.08555  -0.08365  -0.08234
  Beta virt. eigenvalues --   -0.07581  -0.07553  -0.07379  -0.06588  -0.06349

 Mulliken charges and spin densities:
               1          2
     1  C   -0.015833   0.101712
     2  C   -0.016127   0.101672
     3  C    0.162365   0.000801
     4  C    0.111618  -0.004302
     5  C    0.109818   0.007039
     6  C    0.120758  -0.000401
     7  C   -0.298916   0.001510
     8  H    0.176156  -0.000076
     9  C    0.215165   0.045926
    10  C   -0.299107   0.001513
    11  H    0.176156  -0.000076
    12  C    0.109900   0.007042
    13  C    0.120884  -0.000398
    14  C    0.153233   0.062301
    15  C    0.240456   0.022680
    16  C   -0.193351  -0.013184
    17  H    0.164792   0.000300
    18  C   -0.470108  -0.001004
    19  H    0.175078   0.000506
    20  C    0.219668   0.070476
    21  C   -0.164891   0.015212
    22  H    0.174872  -0.000642
    23  C    0.240404   0.022687
    24  C    0.219912   0.070481
    25  C   -0.469948  -0.001005
    26  H    0.175080   0.000506
    27  C    0.152989   0.062279
    28  C   -0.144241  -0.001884
    29  H    0.199212  -0.000539
    30  C   -0.284059   0.015200
    31  H    0.221218  -0.000152
    32  C   -0.304441   0.040852
    33  H    0.180419  -0.002118
    34  C   -0.164897   0.015205
    35  H    0.174869  -0.000642
    36  C   -0.153905  -0.023321
    37  H    0.164566   0.000689
    38  C    0.215033   0.045929
    39  C   -0.223278   0.079014
    40  H    0.168702  -0.005717
    41  C   -0.247692   0.027546
    42  H    0.178844  -0.001209
    43  C   -0.190920   0.043829
    44  H    0.160685  -0.002770
    45  C   -0.153880  -0.023321
    46  H    0.164565   0.000689
    47  C   -0.135750   0.031110
    48  H    0.172025  -0.002996
    49  C   -0.284246   0.015203
    50  H    0.221199  -0.000153
    51  C   -0.247713   0.027544
    52  H    0.178843  -0.001209
    53  C   -0.193235  -0.013167
    54  H    0.164796   0.000300
    55  C   -0.179980  -0.007959
    56  H    0.174971  -0.000150
    57  C   -0.304328   0.040854
    58  H    0.180418  -0.002118
    59  C   -0.223536   0.078978
    60  H    0.168716  -0.005715
    61  C   -0.179802  -0.007956
    62  H    0.174969  -0.000150
    63  C   -0.191156   0.043819
    64  H    0.160689  -0.002770
    65  C   -0.144249  -0.001877
    66  H    0.199216  -0.000538
    67  C   -0.135690   0.031110
    68  H    0.172022  -0.002996
 Sum of Mulliken charges =   1.00000   1.00000

 Dipole moment (field-independent basis, Debye):
    X=              0.0002    Y=              2.7317    Z=             -0.0013  Tot=              2.7317
 Quadrupole moment (field-independent basis, Debye-Ang):
   XX=           -222.4098   YY=           -174.5235   ZZ=           -176.9460
   XY=              0.0027   XZ=             -1.6496   YZ=              0.0032

 Normal termination of Gaussian 16 at Fri Mar 21 09:01:23 2025.
