 Gaussian 16, Revision A.03,
 Gaussian 16:  ES64L-G16RevA.03 25-Dec-2016

 --------------------------------------------
 #p opt UM062X/6-311+G** nosymm int=superfine
 --------------------------------------------

 -------------------
 Title Card Required
 -------------------
 Symbolic Z-matrix:
 Charge =  0 Multiplicity = 1

 SCF Done:  E(UM062X) =  -114.321258649     A.U. after   11 cycles
 SCF Done:  E(UM062X) =  -114.324230122     A.U. after   10 cycles
 SCF Done:  E(UM062X) =  -114.325045961     A.U. after   10 cycles
 SCF Done:  E(UM062X) =  -114.325053274     A.U. after    9 cycles
 SCF Done:  E(UM062X) =  -114.325052022     A.U. after    9 cycles
 SCF Done:  E(UM062X) =  -114.325051556     A.U. after   10 cycles
 SCF Done:  E(UM062X) =  -114.325053124     A.U. after    9 cycles
 Optimization completed.
    -- Stationary point found.

                          Input orientation:
 ---------------------------------------------------------------------
 Center     Atomic      Atomic             Coordinates (Angstroms)
 Number     Number       Type             X           Y           Z
 ---------------------------------------------------------------------
      1          6           0       -0.848311    0.000000    0.000000
      2          8           0        0.848311    0.000000    0.000000
      3          1           0       -1.306801   -0.979566    0.000813
      4          1           0       -1.306801    0.979566    0.000814
 ---------------------------------------------------------------------

 Alpha  occ. eigenvalues --  -19.67149 -10.69976  -1.02318  -0.79256  -0.58192
 Alpha  occ. eigenvalues --   -0.44971  -0.36810  -0.36550
 Alpha virt. eigenvalues --   -0.10931   0.00639   0.02948   0.04222   0.06648
 Alpha virt. eigenvalues --    0.10348   0.14158   0.19105   0.21385   0.24002
 Alpha virt. eigenvalues --    0.26514   0.32985   0.40823   0.47495   0.54362

  Beta  occ. eigenvalues --  -19.67149 -10.69976  -1.02318  -0.79256  -0.58192
  Beta  occ. eigenvalues --   -0.44971  -0.36810  -0.36550
  Beta virt. eigenvalues --   -0.10931   0.00639   0.02948   0.04222   0.06648
  Beta virt. eigenvalues --    0.10348   0.14158   0.19105   0.21385   0.24002
  Beta virt. eigenvalues --    0.26514   0.32985   0.40823   0.47495   0.54362

 Mulliken charges and spin densities:
               1          2
     1  C   -0.090708  -0.000000
     2  O   -0.314253   0.000000
     3  H    0.202481   0.000000
     4  H    0.202481   0.000000
 Sum of Mulliken charges =  -0.00000  -0.00000

 Dipole moment (field-independent basis, Debye):
    X=             -4.0524    Y=             -0.0000    Z=              0.0014  Tot=              4.0524
 Quadrupole moment (field-independent basis, Debye-Ang):
   XX=            -10.9939   YY=            -11.3525   ZZ=            -12.9235
   XY=             -0.0000   XZ=             -0.0012   YZ=              0.0000

 Normal termination of Gaussian 16 at Mon Apr 21 18:48:46 2025.
