 Gaussian 16, Revision A.03,
 Gaussian 16:  ES64L-G16RevA.03 25-Dec-2016

 ---------------------------------------
 #p UM062X/6-311+G** force int=superfine
 ---------------------------------------

 -------------------
 Title Card Required
 -------------------
 Symbolic Z-matrix:
 Charge =  1 Multiplicity = 2

                         Standard orientation:
 ---------------------------------------------------------------------
 Center     Atomic      Atomic             Coordinates (Angstroms)
 Number     Number       Type             X           Y           Z
 ---------------------------------------------------------------------
      1          6           0       -0.565684   -0.075258   -0.000087
      2          6           0        0.565685    0.075256    0.000049
      3          1           0        1.022134    1.066281   -0.000049
      4          1           0       -1.164371    0.577489    0.733391
      5          1           0        1.164420   -0.577646   -0.733215
      6          1           0        1.164373   -0.577722    0.733181
      7          1           0       -1.022135   -1.066282   -0.000085
      8          1           0       -1.164426    0.577891   -0.732991
 ---------------------------------------------------------------------

 SCF Done:  E(UM062X) =  -79.2616903246     A.U. after   10 cycles

 The electronic state is 2-A.
 Alpha  occ. eigenvalues --  -10.80598 -10.80189  -1.24474  -0.99561  -0.85573
 Alpha  occ. eigenvalues --   -0.82831  -0.81019  -0.67065  -0.60766
 Alpha virt. eigenvalues --   -0.16194  -0.14668  -0.14086  -0.12269  -0.08831
 Alpha virt. eigenvalues --   -0.07129  -0.07075  -0.06560  -0.04191  -0.03101
 Alpha virt. eigenvalues --   -0.00880  -0.00759   0.06384   0.06624   0.15138

  Beta  occ. eigenvalues --  -10.80551 -10.80130  -1.23145  -0.95724  -0.84833
  Beta  occ. eigenvalues --   -0.80882  -0.76174  -0.65523
  Beta virt. eigenvalues --   -0.40797  -0.16310  -0.14693  -0.13519  -0.12362
  Beta virt. eigenvalues --   -0.08883  -0.06829  -0.06523  -0.04989  -0.04160
  Beta virt. eigenvalues --   -0.02525  -0.00758  -0.00544   0.06710   0.07022

 Mulliken charges and spin densities:
               1          2
     1  C   -0.390404   0.137018
     2  C   -0.390422   0.137008
     3  H    0.249239  -0.009035
     4  H    0.320613   0.186151
     5  H    0.320606   0.186084
     6  H    0.320569   0.185938
     7  H    0.249240  -0.009035
     8  H    0.320560   0.185871
 Sum of Mulliken charges =   1.00000   1.00000

 Dipole moment (field-independent basis, Debye):
    X=             -0.0000    Y=              0.0000    Z=              0.0004  Tot=              0.0004
 Quadrupole moment (field-independent basis, Debye-Ang):
   XX=             -6.5827   YY=            -10.0516   ZZ=            -11.1276
   XY=             -1.7389   XZ=             -0.0013   YZ=              0.0002

 Normal termination of Gaussian 16 at Tue Nov 19 08:40:35 2024.
