 Gaussian 16, Revision A.03,
 Gaussian 16:  ES64L-G16RevA.03 25-Dec-2016

 --------------------------------------------
 #p opt UM062X/6-311+G** nosymm int=superfine
 --------------------------------------------

 -------------------
 Title Card Required
 -------------------
 Symbolic Z-matrix:
 Charge =  1 Multiplicity = 2

 SCF Done:  E(UM062X) =  -79.3134344694     A.U. after   10 cycles
 SCF Done:  E(UM062X) =  -79.3150711368     A.U. after    9 cycles
 SCF Done:  E(UM062X) =  -79.3150901952     A.U. after    9 cycles
 Optimization completed.
    -- Stationary point found.

                          Input orientation:
 ---------------------------------------------------------------------
 Center     Atomic      Atomic             Coordinates (Angstroms)
 Number     Number       Type             X           Y           Z
 ---------------------------------------------------------------------
      1          6           0       -2.125741    0.000000    0.000000
      2          6           0        2.125741    0.000000    0.000000
      3          1           0        2.149254   -0.937419    0.542562
      4          1           0       -2.147346   -0.938513   -0.540739
      5          1           0        2.148428    0.938608    0.540534
      6          1           0        2.147317   -0.001171   -1.083145
      7          1           0       -2.149313    0.937527   -0.542373
      8          1           0       -2.148341    0.000950    1.083126
 ---------------------------------------------------------------------

 Alpha  occ. eigenvalues --  -10.83050 -10.83049  -1.01656  -1.01427  -0.72754
 Alpha  occ. eigenvalues --   -0.72753  -0.72691  -0.72690  -0.46421
 Alpha virt. eigenvalues --   -0.37821  -0.12438  -0.10072  -0.09135  -0.09135
 Alpha virt. eigenvalues --   -0.06198  -0.06198  -0.04421  -0.02658   0.00424
 Alpha virt. eigenvalues --    0.00427   0.01486   0.01488   0.02366   0.09062

  Beta  occ. eigenvalues --  -10.82824 -10.82824  -0.98994  -0.98874  -0.72218
  Beta  occ. eigenvalues --   -0.72217  -0.72144  -0.72144
  Beta virt. eigenvalues --   -0.31821  -0.26686  -0.17055  -0.10451  -0.10450
  Beta virt. eigenvalues --   -0.10243  -0.06151  -0.06150  -0.05642  -0.01692
  Beta virt. eigenvalues --    0.00307   0.00310   0.01735   0.01738   0.02260

 Mulliken charges and spin densities:
               1          2
     1  C   -0.239793   0.558300
     2  C   -0.239794   0.558300
     3  H    0.246617  -0.019431
     4  H    0.246580  -0.019432
     5  H    0.246600  -0.019434
     6  H    0.246576  -0.019434
     7  H    0.246618  -0.019431
     8  H    0.246595  -0.019437
 Sum of Mulliken charges =   1.00000   1.00000

 Dipole moment (field-independent basis, Debye):
    X=             -0.0000    Y=             -0.0000    Z=             -0.0000  Tot=              0.0001
 Quadrupole moment (field-independent basis, Debye-Ang):
   XX=             10.1044   YY=            -11.1209   ZZ=            -11.1210
   XY=             -0.0021   XZ=              0.0013   YZ=              0.0000

 Normal termination of Gaussian 16 at Sat Nov 16 16:10:12 2024.
