 Gaussian 16, Revision A.03,
 Gaussian 16:  ES64L-G16RevA.03 25-Dec-2016

 --------------------------------------------
 #p opt UM062X/6-311+G** nosymm int=superfine
 --------------------------------------------

 -------------------
 Title Card Required
 -------------------
 Symbolic Z-matrix:
 Charge =  0 Multiplicity = 1

 SCF Done:  E(UM062X) =  -78.4545439688     A.U. after    8 cycles
 SCF Done:  E(UM062X) =  -78.4781377571     A.U. after    8 cycles
 SCF Done:  E(UM062X) =  -78.4861719169     A.U. after    8 cycles
 SCF Done:  E(UM062X) =  -78.4867806829     A.U. after    7 cycles
 SCF Done:  E(UM062X) =  -78.4867911898     A.U. after    7 cycles
 Optimization completed.
    -- Stationary point found.

                          Input orientation:
 ---------------------------------------------------------------------
 Center     Atomic      Atomic             Coordinates (Angstroms)
 Number     Number       Type             X           Y           Z
 ---------------------------------------------------------------------
      1          6           0       -0.835219    0.000000    0.000000
      2          6           0        0.835219    0.000000    0.000000
      3          1           0       -1.347047   -0.950643    0.000000
      4          1           0       -1.347064    0.950587    0.000000
      5          1           0        1.347047    0.950643    0.000000
      6          1           0        1.347064   -0.950587    0.000000
 ---------------------------------------------------------------------

 Alpha  occ. eigenvalues --  -10.58422 -10.58393  -0.80238  -0.69254  -0.53080
 Alpha  occ. eigenvalues --   -0.46716  -0.43130  -0.28865
 Alpha virt. eigenvalues --   -0.02613   0.03374   0.03575   0.05362   0.07691
 Alpha virt. eigenvalues --    0.08536   0.09741   0.11870   0.15758   0.16785
 Alpha virt. eigenvalues --    0.19544   0.20859   0.24193   0.29348   0.41283

  Beta  occ. eigenvalues --  -10.58422 -10.58393  -0.80238  -0.69254  -0.53080
  Beta  occ. eigenvalues --   -0.46716  -0.43130  -0.28865
  Beta virt. eigenvalues --   -0.02613   0.03374   0.03575   0.05362   0.07691
  Beta virt. eigenvalues --    0.08536   0.09741   0.11870   0.15758   0.16785
  Beta virt. eigenvalues --    0.19544   0.20859   0.24193   0.29348   0.41283

 Mulliken charges and spin densities:
               1          2
     1  C   -0.333523  -0.000000
     2  C   -0.333523   0.000000
     3  H    0.166761  -0.000000
     4  H    0.166762   0.000000
     5  H    0.166761  -0.000000
     6  H    0.166762  -0.000000
 Sum of Mulliken charges =  -0.00000   0.00000

 Dipole moment (field-independent basis, Debye):
    X=              0.0000    Y=              0.0000    Z=              0.0000  Tot=              0.0000
 Quadrupole moment (field-independent basis, Debye-Ang):
   XX=            -11.8246   YY=            -12.2211   ZZ=            -17.2264
   XY=             -0.0000   XZ=              0.0000   YZ=              0.0000

 Normal termination of Gaussian 16 at Tue Nov 19 10:47:55 2024.
