 Gaussian 16, Revision A.03,
 Gaussian 16:  ES64L-G16RevA.03 25-Dec-2016

 ----------------------------------------------------------------------
 #p opt UM062X/6-311+G** nosymm int=superfine SCF=(MaxCycle=200,NoVarAc
 c,noincfock) guess=read
 ----------------------------------------------------------------------

 -------------------
 Title Card Required
 -------------------
 Symbolic Z-matrix:
 Charge =  0 Multiplicity = 1

 SCF Done:  E(UM062X) =  -474.460185429     A.U. after   17 cycles
 SCF Done:  E(UM062X) =  -474.460760823     A.U. after   15 cycles
 SCF Done:  E(UM062X) =  -474.460886189     A.U. after   14 cycles
 SCF Done:  E(UM062X) =  -474.460902350     A.U. after   16 cycles
 SCF Done:  E(UM062X) =  -474.460903448     A.U. after   12 cycles
 SCF Done:  E(UM062X) =  -474.460903516     A.U. after   10 cycles
 Optimization completed.
    -- Stationary point found.

                          Input orientation:
 ---------------------------------------------------------------------
 Center     Atomic      Atomic             Coordinates (Angstroms)
 Number     Number       Type             X           Y           Z
 ---------------------------------------------------------------------
      1          8           0       -1.261006    0.000049   -0.000004
      2         16           0        1.261006   -0.000049    0.000004
      3          1           0       -1.300917    0.103894   -0.962640
      4          1           0        1.159823   -1.261178    0.456535
 ---------------------------------------------------------------------

 Alpha  occ. eigenvalues --  -89.97428 -19.67436  -8.33461  -6.25679  -6.25310
 Alpha  occ. eigenvalues --   -6.24760  -1.08931  -0.83170  -0.52868  -0.49195
 Alpha  occ. eigenvalues --   -0.39993  -0.39244  -0.34904
 Alpha virt. eigenvalues --   -0.15961   0.01571   0.04096   0.04756   0.05678
 Alpha virt. eigenvalues --    0.07461   0.15042   0.19511   0.19993   0.21558
 Alpha virt. eigenvalues --    0.26781   0.31370   0.34020   0.35385   0.40292

  Beta  occ. eigenvalues --  -89.97428 -19.67436  -8.33461  -6.25679  -6.25310
  Beta  occ. eigenvalues --   -6.24760  -1.08931  -0.83170  -0.52868  -0.49195
  Beta  occ. eigenvalues --   -0.39993  -0.39244  -0.34904
  Beta virt. eigenvalues --   -0.15961   0.01571   0.04096   0.04756   0.05678
  Beta virt. eigenvalues --    0.07461   0.15042   0.19511   0.19993   0.21558
  Beta virt. eigenvalues --    0.26781   0.31370   0.34020   0.35385   0.40292

 Mulliken charges and spin densities:
               1          2
     1  O   -0.432753   0.000013
     2  S    0.072590  -0.000013
     3  H    0.250104  -0.000000
     4  H    0.110059   0.000000
 Sum of Mulliken charges =  -0.00000  -0.00000

 Dipole moment (field-independent basis, Debye):
    X=              1.8317    Y=             -0.8944    Z=             -1.2737  Tot=              2.4036
 Quadrupole moment (field-independent basis, Debye-Ang):
   XX=            -18.3257   YY=            -18.8861   ZZ=            -19.5886
   XY=             -1.7586   XZ=              3.0613   YZ=             -1.5958

 Normal termination of Gaussian 16 at Tue Apr 22 05:09:57 2025.
