 Gaussian 16, Revision A.03,
 Gaussian 16:  ES64L-G16RevA.03 25-Dec-2016

 ---------------------------------------
 #p UM062X/6-311+G** force int=superfine
 ---------------------------------------

 -------------------
 Title Card Required
 -------------------
 Symbolic Z-matrix:
 Charge =  1 Multiplicity = 2

                         Standard orientation:
 ---------------------------------------------------------------------
 Center     Atomic      Atomic             Coordinates (Angstroms)
 Number     Number       Type             X           Y           Z
 ---------------------------------------------------------------------
      1          6           0       -0.652591   -0.069379   -0.000120
      2          6           0        0.652592    0.069378    0.000083
      3          1           0        1.094234    1.062616   -0.000219
      4          1           0       -1.186847    0.604084    0.754589
      5          1           0        1.186898   -0.604240   -0.754421
      6          1           0        1.187090   -0.604192    0.754248
      7          1           0       -1.094236   -1.062617    0.000096
      8          1           0       -1.187144    0.604354   -0.754072
 ---------------------------------------------------------------------

 SCF Done:  E(UM062X) =  -79.3550290068     A.U. after   10 cycles

 The electronic state is 2-A.
 Alpha  occ. eigenvalues --  -10.81829 -10.81711  -1.19529  -0.99954  -0.83044
 Alpha  occ. eigenvalues --   -0.78826  -0.78431  -0.69351  -0.63576
 Alpha virt. eigenvalues --   -0.16187  -0.13722  -0.12517  -0.11960  -0.08558
 Alpha virt. eigenvalues --   -0.07238  -0.06757  -0.06707  -0.05204  -0.02177
 Alpha virt. eigenvalues --   -0.01079  -0.00659   0.06060   0.06459   0.11311

  Beta  occ. eigenvalues --  -10.81748 -10.81621  -1.17802  -0.96214  -0.82056
  Beta  occ. eigenvalues --   -0.76976  -0.72757  -0.67905
  Beta virt. eigenvalues --   -0.43582  -0.16220  -0.13758  -0.12226  -0.11987
  Beta virt. eigenvalues --   -0.08579  -0.06948  -0.06711  -0.05007  -0.04906
  Beta virt. eigenvalues --   -0.01814  -0.00924  -0.00496   0.06182   0.06939

 Mulliken charges and spin densities:
               1          2
     1  C   -0.404073   0.163161
     2  C   -0.404082   0.163154
     3  H    0.255511  -0.010056
     4  H    0.324331   0.173690
     5  H    0.324323   0.173633
     6  H    0.324243   0.173264
     7  H    0.255512  -0.010056
     8  H    0.324234   0.173210
 Sum of Mulliken charges =   1.00000   1.00000

 Dipole moment (field-independent basis, Debye):
    X=             -0.0000    Y=              0.0000    Z=              0.0004  Tot=              0.0004
 Quadrupole moment (field-independent basis, Debye-Ang):
   XX=             -6.3334   YY=            -10.0264   ZZ=            -11.2047
   XY=             -1.7551   XZ=             -0.0022   YZ=              0.0008

 Normal termination of Gaussian 16 at Tue Nov 19 08:41:34 2024.
