 Gaussian 16, Revision A.03,
 Gaussian 16:  ES64L-G16RevA.03 25-Dec-2016

 --------------------------------------------
 #p opt UM062X/6-311+G** nosymm int=superfine
 --------------------------------------------

 -------------------
 Title Card Required
 -------------------
 Symbolic Z-matrix:
 Charge =  0 Multiplicity = 1

 SCF Done:  E(UM062X) =  -110.239517137     A.U. after   13 cycles
 SCF Done:  E(UM062X) =  -110.247283871     A.U. after   12 cycles
 SCF Done:  E(UM062X) =  -110.252471654     A.U. after   13 cycles
 SCF Done:  E(UM062X) =  -110.252486916     A.U. after   10 cycles
 Optimization completed.
    -- Stationary point found.

                          Input orientation:
 ---------------------------------------------------------------------
 Center     Atomic      Atomic             Coordinates (Angstroms)
 Number     Number       Type             X           Y           Z
 ---------------------------------------------------------------------
      1          7           0       -1.365428    0.000000    0.000000
      2          7           0        1.365428    0.000000    0.000000
      3          1           0       -1.208340   -1.025927   -0.000000
      4          1           0        1.208340    1.025927   -0.000000
 ---------------------------------------------------------------------

 Alpha  occ. eigenvalues --  -14.88841 -14.88837  -0.93494  -0.91346  -0.49474
 Alpha  occ. eigenvalues --   -0.48254  -0.34409  -0.31511
 Alpha virt. eigenvalues --   -0.19767  -0.16532   0.05597   0.07481   0.10654
 Alpha virt. eigenvalues --    0.11976   0.13364   0.14810   0.15851   0.19003
 Alpha virt. eigenvalues --    0.19652   0.23817   0.52300   0.55572   0.70879

  Beta  occ. eigenvalues --  -14.88841 -14.88837  -0.93494  -0.91346  -0.49474
  Beta  occ. eigenvalues --   -0.48254  -0.34409  -0.31511
  Beta virt. eigenvalues --   -0.19767  -0.16532   0.05597   0.07481   0.10654
  Beta virt. eigenvalues --    0.11976   0.13364   0.14810   0.15851   0.19003
  Beta virt. eigenvalues --    0.19652   0.23817   0.52300   0.55572   0.70879

 Mulliken charges and spin densities:
               1          2
     1  N   -0.243743  -0.000000
     2  N   -0.243743   0.000000
     3  H    0.243743   0.000000
     4  H    0.243743  -0.000000
 Sum of Mulliken charges =  -0.00000   0.00000

 Dipole moment (field-independent basis, Debye):
    X=              0.0000    Y=              0.0000    Z=             -0.0000  Tot=              0.0000
 Quadrupole moment (field-independent basis, Debye-Ang):
   XX=            -13.8599   YY=            -11.0535   ZZ=            -14.1713
   XY=              4.6925   XZ=              0.0000   YZ=              0.0000

 Normal termination of Gaussian 16 at Thu May 15 15:37:57 2025.
