 Gaussian 16, Revision A.03,
 Gaussian 16:  ES64L-G16RevA.03 25-Dec-2016

 --------------------------------------------
 #p opt UM062X/6-311+G** nosymm int=superfine
 --------------------------------------------

 -------------------
 Title Card Required
 -------------------
 Symbolic Z-matrix:
 Charge =  0 Multiplicity = 3

 SCF Done:  E(UM062X) =  -39.1370488823     A.U. after   10 cycles
 SCF Done:  E(UM062X) =  -39.1412687283     A.U. after   10 cycles
 SCF Done:  E(UM062X) =  -39.1418926710     A.U. after   10 cycles
 SCF Done:  E(UM062X) =  -39.1418942296     A.U. after    7 cycles
 Optimization completed.
    -- Stationary point found.

                          Input orientation:
 ---------------------------------------------------------------------
 Center     Atomic      Atomic             Coordinates (Angstroms)
 Number     Number       Type             X           Y           Z
 ---------------------------------------------------------------------
      1          6           0       -0.735856    0.003864   -0.000010
      2          1           0       -1.204113   -0.967233    0.000009
      3          1           0       -1.103133    1.017426   -0.000109
 ---------------------------------------------------------------------

 Alpha  occ. eigenvalues --  -10.57319  -0.76756  -0.52572  -0.34341  -0.30446
 Alpha virt. eigenvalues --    0.04596   0.05773   0.08324   0.08751   0.16286
 Alpha virt. eigenvalues --    0.21419   0.43515   0.47239   0.56990   0.57891
 Alpha virt. eigenvalues --    0.67585   0.70751   1.06139   1.22563   1.25126

  Beta  occ. eigenvalues --  -10.55501  -0.67890  -0.50473
  Beta virt. eigenvalues --   -0.06204  -0.03570   0.03144   0.06531   0.13576
  Beta virt. eigenvalues --    0.14684   0.19157   0.22186   0.44453   0.44659
  Beta virt. eigenvalues --    0.58837   0.59056   0.75768   0.76279   1.19367

 Mulliken charges and spin densities:
               1          2
     1  C   -0.354700   2.063671
     2  H    0.177348  -0.031837
     3  H    0.177352  -0.031835
 Sum of Mulliken charges =   0.00000   2.00000

 Dipole moment (field-independent basis, Debye):
    X=             -0.6857    Y=              0.0349    Z=             -0.0001  Tot=              0.6866
 Quadrupole moment (field-independent basis, Debye-Ang):
   XX=             -6.6854   YY=             -5.9023   ZZ=             -8.3965
   XY=              0.0631   XZ=              0.0001   YZ=             -0.0002

 1\1\GINC-NODE02\FOpt\UM062X\6-311+G(d,p)\C1H2(3)\SZHAO\16-Apr-2025\0\\
 #p opt UM062X/6-311+G** nosymm int=superfine\\Title Card Required\\0,3
 \C,-0.7358564069,0.0038641014,-0.0000098871\H,-1.2041134463,-0.9672325
 973,0.0000087998\H,-1.1031332467,1.0174259959,-0.0001085727\\Version=E
 S64L-G16RevA.03\HF=-39.1418942\S2=2.00628\S2-1=0.\S2A=2.000011\RMSD=9.
 167e-09\RMSF=3.614e-05\Dipole=-0.2697658,0.0137168,-0.0000258\Quadrupo
 le=0.2299908,0.8121976,-1.0421884,0.0469332,0.0000849,-0.0001126\PG=C0
 1 [X(C1H2)]\\@

 Normal termination of Gaussian 16 at Wed Apr 16 08:18:50 2025.
