 Gaussian 16, Revision A.03,
 Gaussian 16:  ES64L-G16RevA.03 25-Dec-2016

 --------------------------------------------
 #p opt UM062X/6-311+G** nosymm int=superfine
 --------------------------------------------

 -------------------
 Title Card Required
 -------------------
 Symbolic Z-matrix:
 Charge =  1 Multiplicity = 2

 SCF Done:  E(UM062X) =  -77.9380038055     A.U. after   10 cycles
 SCF Done:  E(UM062X) =  -77.9814247289     A.U. after    9 cycles
 SCF Done:  E(UM062X) =  -78.0257698541     A.U. after   11 cycles
 SCF Done:  E(UM062X) =  -78.0354067833     A.U. after    9 cycles
 SCF Done:  E(UM062X) =  -78.0365122452     A.U. after    9 cycles
 SCF Done:  E(UM062X) =  -78.0365282960     A.U. after    7 cycles
 Optimization completed.
    -- Stationary point found.

                          Input orientation:
 ---------------------------------------------------------------------
 Center     Atomic      Atomic             Coordinates (Angstroms)
 Number     Number       Type             X           Y           Z
 ---------------------------------------------------------------------
      1          6           0       -1.067407    0.000000    0.000000
      2          6           0        1.067407    0.000000    0.000000
      3          1           0       -1.515437   -0.988660   -0.000000
      4          1           0       -1.515395    0.988727   -0.000000
      5          1           0        1.515437    0.988660    0.000000
      6          1           0        1.515395   -0.988727    0.000000
 ---------------------------------------------------------------------

 Alpha  occ. eigenvalues --  -10.92323 -10.92310  -1.05868  -1.00287  -0.80427
 Alpha  occ. eigenvalues --   -0.77830  -0.65451  -0.55314
 Alpha virt. eigenvalues --   -0.37109  -0.26675  -0.14016  -0.10969  -0.10262
 Alpha virt. eigenvalues --   -0.08262  -0.07511  -0.07103  -0.04753  -0.04008
 Alpha virt. eigenvalues --   -0.03105  -0.00227   0.01997   0.09282   0.17919

  Beta  occ. eigenvalues --  -10.92083 -10.92076  -1.02859  -0.98019  -0.79930
  Beta  occ. eigenvalues --   -0.77473  -0.63834
  Beta virt. eigenvalues --   -0.34796  -0.28195  -0.24378  -0.15274  -0.11267
  Beta virt. eigenvalues --   -0.10372  -0.07661  -0.07442  -0.07387  -0.04116
  Beta virt. eigenvalues --   -0.03860  -0.02610   0.00322   0.01118   0.10082

 Mulliken charges and spin densities:
               1          2
     1  C   -0.068040   0.541526
     2  C   -0.068039   0.541526
     3  H    0.284018  -0.020762
     4  H    0.284022  -0.020763
     5  H    0.284018  -0.020762
     6  H    0.284022  -0.020763
 Sum of Mulliken charges =   1.00000   1.00000

 Dipole moment (field-independent basis, Debye):
    X=              0.0000    Y=              0.0000    Z=             -0.0000  Tot=              0.0000
 Quadrupole moment (field-independent basis, Debye-Ang):
   XX=             -1.2794   YY=             -8.0753   ZZ=            -12.6200
   XY=             -0.0001   XZ=              0.0000   YZ=              0.0000

 Normal termination of Gaussian 16 at Tue Nov 19 11:26:28 2024.
