 Gaussian 16, Revision A.03,
 Gaussian 16:  ES64L-G16RevA.03 25-Dec-2016

 ---------------------------------------
 #p UM062X/6-311+G** force int=superfine
 ---------------------------------------

 -------------------
 Title Card Required
 -------------------
 Symbolic Z-matrix:
 Charge =  1 Multiplicity = 2

                         Standard orientation:
 ---------------------------------------------------------------------
 Center     Atomic      Atomic             Coordinates (Angstroms)
 Number     Number       Type             X           Y           Z
 ---------------------------------------------------------------------
      1          6           0        0.949210   -0.624141    1.082717
      2          6           0       -0.949206    0.624150   -1.082712
      3          1           0       -0.139183    0.740825   -1.793796
      4          1           0        1.220755   -1.449932    0.434856
      5          1           0       -1.221397    1.450102   -0.435326
      6          1           0       -1.571323   -0.263157   -1.115045
      7          1           0        0.139244   -0.740656    1.793893
      8          1           0        1.571879    0.262766    1.115388
 ---------------------------------------------------------------------

 SCF Done:  E(UM062X) =  -79.3358198870     A.U. after   10 cycles

 The electronic state is 2-A.
 Alpha  occ. eigenvalues --  -10.84915 -10.84912  -1.03822  -1.02539  -0.74542
 Alpha  occ. eigenvalues --   -0.74541  -0.73938  -0.73938  -0.51970
 Alpha virt. eigenvalues --   -0.35779  -0.13907  -0.10224  -0.10224  -0.10176
 Alpha virt. eigenvalues --   -0.06237  -0.06237  -0.05154  -0.03271  -0.01916
 Alpha virt. eigenvalues --   -0.01913   0.01313   0.01315   0.04743   0.07713

  Beta  occ. eigenvalues --  -10.84715 -10.84715  -1.00989  -1.00127  -0.74009
  Beta  occ. eigenvalues --   -0.74008  -0.73431  -0.73431
  Beta virt. eigenvalues --   -0.32624  -0.25760  -0.15443  -0.11134  -0.11134
  Beta virt. eigenvalues --   -0.09990  -0.06408  -0.06407  -0.05376  -0.02387
  Beta virt. eigenvalues --   -0.02202  -0.02200   0.01620   0.01622   0.05689

 Mulliken charges and spin densities:
               1          2
     1  C   -0.271251   0.566209
     2  C   -0.271253   0.566210
     3  H    0.257116  -0.022059
     4  H    0.257050  -0.022081
     5  H    0.257077  -0.022081
     6  H    0.257059  -0.022070
     7  H    0.257117  -0.022059
     8  H    0.257085  -0.022070
 Sum of Mulliken charges =   1.00000   1.00000

 Dipole moment (field-independent basis, Debye):
    X=             -0.0000    Y=             -0.0001    Z=             -0.0000  Tot=              0.0001
 Quadrupole moment (field-independent basis, Debye-Ang):
   XX=             -6.7409   YY=             -9.1823   ZZ=             -5.4418
   XY=             -2.8297   XZ=              4.9092   YZ=             -3.2288

 Normal termination of Gaussian 16 at Wed Nov 13 12:58:52 2024.
