 Gaussian 16, Revision A.03,
 Gaussian 16:  ES64L-G16RevA.03 25-Dec-2016

 --------------------------------------------
 #p opt UM062X/6-311+G** nosymm int=superfine
 --------------------------------------------

 -------------------
 Title Card Required
 -------------------
 Symbolic Z-matrix:
 Charge =  0 Multiplicity = 1

 SCF Done:  E(UM062X) =  -683.663963857     A.U. after   12 cycles
 SCF Done:  E(UM062X) =  -683.664968900     A.U. after   10 cycles
 SCF Done:  E(UM062X) =  -683.665320957     A.U. after   10 cycles
 SCF Done:  E(UM062X) =  -683.665321146     A.U. after    9 cycles
 Optimization completed.
    -- Stationary point found.

                          Input orientation:
 ---------------------------------------------------------------------
 Center     Atomic      Atomic             Coordinates (Angstroms)
 Number     Number       Type             X           Y           Z
 ---------------------------------------------------------------------
      1         15           0       -1.684490    0.000000    0.000000
      2         15           0        1.684490    0.000000    0.000000
      3          1           0       -1.602185   -1.420542   -0.000000
      4          1           0        1.602185    1.420542   -0.000000
 ---------------------------------------------------------------------

 Alpha  occ. eigenvalues --  -78.08410 -78.08410  -6.90370  -6.90370  -5.01786
 Alpha  occ. eigenvalues --   -5.01786  -5.01777  -5.01776  -5.01586  -5.01586
 Alpha  occ. eigenvalues --   -0.69260  -0.67273  -0.40674  -0.40097  -0.28363
 Alpha  occ. eigenvalues --   -0.25363
 Alpha virt. eigenvalues --   -0.15457  -0.11754   0.01986   0.03149   0.03777
 Alpha virt. eigenvalues --    0.04670   0.05253   0.05925   0.06586   0.08364
 Alpha virt. eigenvalues --    0.08698   0.12177   0.27672   0.29692   0.30217

  Beta  occ. eigenvalues --  -78.08410 -78.08410  -6.90370  -6.90370  -5.01786
  Beta  occ. eigenvalues --   -5.01786  -5.01777  -5.01776  -5.01586  -5.01586
  Beta  occ. eigenvalues --   -0.69260  -0.67273  -0.40674  -0.40097  -0.28363
  Beta  occ. eigenvalues --   -0.25363
  Beta virt. eigenvalues --   -0.15457  -0.11754   0.01986   0.03149   0.03777
  Beta virt. eigenvalues --    0.04670   0.05253   0.05925   0.06586   0.08364
  Beta virt. eigenvalues --    0.08698   0.12177   0.27672   0.29692   0.30217

 Mulliken charges and spin densities:
               1          2
     1  P    0.005522  -0.000000
     2  P    0.005522   0.000000
     3  H   -0.005522   0.000000
     4  H   -0.005522  -0.000000
 Sum of Mulliken charges =  -0.00000   0.00000

 Dipole moment (field-independent basis, Debye):
    X=              0.0000    Y=             -0.0000    Z=             -0.0000  Tot=              0.0000
 Quadrupole moment (field-independent basis, Debye-Ang):
   XX=            -27.1338   YY=            -28.3382   ZZ=            -30.7837
   XY=              2.8722   XZ=             -0.0000   YZ=              0.0000

 Normal termination of Gaussian 16 at Mon Apr 21 21:13:16 2025.
