 Gaussian 16, Revision A.03,
 Gaussian 16:  ES64L-G16RevA.03 25-Dec-2016

 --------------------------------------------
 #p opt UM062X/6-311+G** nosymm int=superfine
 --------------------------------------------

 -------------------
 Title Card Required
 -------------------
 Symbolic Z-matrix:
 Charge =  0 Multiplicity = 1

 SCF Done:  E(UM062X) =  -115.484544415     A.U. after   15 cycles
 SCF Done:  E(UM062X) =  -115.500658453     A.U. after   11 cycles
 SCF Done:  E(UM062X) =  -115.509658334     A.U. after   12 cycles
 SCF Done:  E(UM062X) =  -115.509814410     A.U. after   16 cycles
 SCF Done:  E(UM062X) =  -115.509916695     A.U. after   10 cycles
 SCF Done:  E(UM062X) =  -115.509948999     A.U. after   11 cycles
 SCF Done:  E(UM062X) =  -115.509952525     A.U. after    9 cycles
 SCF Done:  E(UM062X) =  -115.509952891     A.U. after    9 cycles
 SCF Done:  E(UM062X) =  -115.509953032     A.U. after    8 cycles
 SCF Done:  E(UM062X) =  -115.509953224     A.U. after   10 cycles
 SCF Done:  E(UM062X) =  -115.509953304     A.U. after    8 cycles
 Optimization completed.
    -- Stationary point found.

                          Input orientation:
 ---------------------------------------------------------------------
 Center     Atomic      Atomic             Coordinates (Angstroms)
 Number     Number       Type             X           Y           Z
 ---------------------------------------------------------------------
      1          6           0       -1.482203    0.000000    0.000000
      2          8           0        1.482203    0.000000    0.000000
      3          1           0        1.521281   -0.964823    0.000259
      4          1           0       -1.567950   -0.531485    0.937483
      5          1           0       -1.436080    1.079881   -0.000772
      6          1           0       -1.567993   -0.532827   -0.936717
 ---------------------------------------------------------------------

 Alpha  occ. eigenvalues --  -19.59110 -10.66459  -1.01398  -0.83984  -0.56107
 Alpha  occ. eigenvalues --   -0.55846  -0.45898  -0.32849  -0.29994
 Alpha virt. eigenvalues --   -0.14314   0.00606   0.04013   0.04417   0.06531
 Alpha virt. eigenvalues --    0.13903   0.15434   0.15663   0.20080   0.22952
 Alpha virt. eigenvalues --    0.23025   0.24740   0.30496   0.39622   0.39978

  Beta  occ. eigenvalues --  -19.59110 -10.66459  -1.01398  -0.83984  -0.56107
  Beta  occ. eigenvalues --   -0.55846  -0.45898  -0.32849  -0.29994
  Beta virt. eigenvalues --   -0.14314   0.00606   0.04013   0.04417   0.06531
  Beta virt. eigenvalues --    0.13903   0.15434   0.15663   0.20080   0.22952
  Beta virt. eigenvalues --    0.23025   0.24740   0.30496   0.39622   0.39978

 Mulliken charges and spin densities:
               1          2
     1  C   -0.287593  -0.000000
     2  O   -0.567941   0.000000
     3  H    0.213892  -0.000000
     4  H    0.208483   0.000000
     5  H    0.224686   0.000000
     6  H    0.208473   0.000000
 Sum of Mulliken charges =  -0.00000   0.00000

 Dipole moment (field-independent basis, Debye):
    X=             -5.2411    Y=             -1.5538    Z=              0.0004  Tot=              5.4665
 Quadrupole moment (field-independent basis, Debye-Ang):
   XX=            -13.2375   YY=            -11.4372   ZZ=            -13.8622
   XY=             -2.5414   XZ=              0.0007   YZ=             -0.0007

 Normal termination of Gaussian 16 at Mon Apr 21 18:44:02 2025.
