 Gaussian 16, Revision A.03,
 Gaussian 16:  ES64L-G16RevA.03 25-Dec-2016

 ---------------------------------------
 #p UM062X/6-311+G** force int=superfine
 ---------------------------------------

 -------------------
 Title Card Required
 -------------------
 Symbolic Z-matrix:
 Charge =  0 Multiplicity = 1

                         Standard orientation:
 ---------------------------------------------------------------------
 Center     Atomic      Atomic             Coordinates (Angstroms)
 Number     Number       Type             X           Y           Z
 ---------------------------------------------------------------------
      1          6           0        0.481060    0.000015    0.000000
      2          6           0       -0.481059   -0.000015   -0.000002
      3          1           0       -1.029065   -0.975006   -0.052633
      4          1           0        1.029091   -0.533091    0.818044
      5          1           0       -1.029092    0.533094   -0.818041
      6          1           0       -1.029100    0.441926    0.870673
      7          1           0        1.029065    0.975006    0.052637
      8          1           0        1.029100   -0.441927   -0.870671
 ---------------------------------------------------------------------

 SCF Done:  E(UM062X) =  -79.3038119059     A.U. after   10 cycles

 The electronic state is 1-A.
 Alpha  occ. eigenvalues --  -10.50772 -10.48947  -0.99690  -0.66672  -0.58978
 Alpha  occ. eigenvalues --   -0.58977  -0.54997  -0.31663  -0.31662
 Alpha virt. eigenvalues --    0.01871   0.03917   0.03917   0.04091   0.08530
 Alpha virt. eigenvalues --    0.09066   0.09066   0.14265   0.16755   0.16755
 Alpha virt. eigenvalues --    0.20975   0.20976   0.23661   0.27388   0.41472

  Beta  occ. eigenvalues --  -10.50772 -10.48947  -0.99690  -0.66672  -0.58978
  Beta  occ. eigenvalues --   -0.58977  -0.54997  -0.31663  -0.31662
  Beta virt. eigenvalues --    0.01871   0.03917   0.03917   0.04091   0.08530
  Beta virt. eigenvalues --    0.09066   0.09066   0.14265   0.16755   0.16755
  Beta virt. eigenvalues --    0.20975   0.20976   0.23661   0.27388   0.41472

 Mulliken charges and spin densities:
               1          2
     1  C   -0.403538  -0.000000
     2  C   -0.403538   0.000000
     3  H    0.134516   0.000000
     4  H    0.134511  -0.000000
     5  H    0.134511   0.000000
     6  H    0.134511   0.000000
     7  H    0.134516  -0.000000
     8  H    0.134511  -0.000000
 Sum of Mulliken charges =  -0.00000  -0.00000

 Dipole moment (field-independent basis, Debye):
    X=              0.0000    Y=              0.0000    Z=              0.0000  Tot=              0.0000
 Quadrupole moment (field-independent basis, Debye-Ang):
   XX=            -15.7333   YY=            -14.9611   ZZ=            -14.9615
   XY=              0.0000   XZ=             -0.0000   YZ=              0.0000

 Normal termination of Gaussian 16 at Tue Nov 19 12:34:42 2024.
