 Gaussian 16, Revision A.03,
 Gaussian 16:  ES64L-G16RevA.03 25-Dec-2016

 --------------------------------------------
 #p opt UM062X/6-311+G** nosymm int=superfine
 --------------------------------------------

 -------------------
 Title Card Required
 -------------------
 Symbolic Z-matrix:
 Charge =  1 Multiplicity = 2

 SCF Done:  E(UM062X) =  -76.7472954509     A.U. after   10 cycles
 SCF Done:  E(UM062X) =  -76.7808201669     A.U. after   10 cycles
 SCF Done:  E(UM062X) =  -76.8021970604     A.U. after  110 cycles
 SCF Done:  E(UM062X) =  -76.8022935976     A.U. after    8 cycles
 Optimization completed.
    -- Stationary point found.

                          Input orientation:
 ---------------------------------------------------------------------
 Center     Atomic      Atomic             Coordinates (Angstroms)
 Number     Number       Type             X           Y           Z
 ---------------------------------------------------------------------
      1          6           0       -0.776678    0.000000    0.000000
      2          6           0        0.776678    0.000000    0.000000
      3          1           0       -1.867845   -0.000000   -0.000000
      4          1           0        1.867840   -0.000000   -0.000000
 ---------------------------------------------------------------------

 Alpha  occ. eigenvalues --  -10.98678 -10.98627  -1.13171  -0.98731  -0.86273
 Alpha  occ. eigenvalues --   -0.65838  -0.63605
 Alpha virt. eigenvalues --   -0.34157  -0.32149  -0.22770  -0.14280  -0.10895
 Alpha virt. eigenvalues --   -0.10475  -0.09394  -0.09152  -0.05233  -0.04892
 Alpha virt. eigenvalues --    0.01821   0.04112   0.09423   0.21483   0.31340

  Beta  occ. eigenvalues --  -10.98437 -10.98400  -1.09019  -0.97025  -0.85572
  Beta  occ. eigenvalues --   -0.61477
  Beta virt. eigenvalues --   -0.42148  -0.30444  -0.26423  -0.20702  -0.15385
  Beta virt. eigenvalues --   -0.11244  -0.10689  -0.09746  -0.09547  -0.05063
  Beta virt. eigenvalues --   -0.04696   0.01097   0.04236   0.09886   0.22352

 Mulliken charges and spin densities:
               1          2
     1  C    0.150375   0.520903
     2  C    0.150374   0.520905
     3  H    0.349626  -0.020904
     4  H    0.349624  -0.020904
 Sum of Mulliken charges =   1.00000   1.00000

 Dipole moment (field-independent basis, Debye):
    X=             -0.0000    Y=             -0.0000    Z=             -0.0000  Tot=              0.0000
 Quadrupole moment (field-independent basis, Debye-Ang):
   XX=              1.9187   YY=            -11.3756   ZZ=            -11.4273
   XY=             -0.0000   XZ=              0.0000   YZ=              1.0078

 Normal termination of Gaussian 16 at Tue Nov 19 13:10:45 2024.
