 Gaussian 16, Revision A.03,
 Gaussian 16:  ES64L-G16RevA.03 25-Dec-2016

 ---------------------------------------------------------
 #p opt UM062X/6-311+G** nosymm int=superfine SCF=NoVarAcc
 ---------------------------------------------------------

 -------------------
 Title Card Required
 -------------------
 Symbolic Z-matrix:
 Charge =  1 Multiplicity = 2

 SCF Done:  E(UM062X) =  -76.5852324731     A.U. after  113 cycles
 SCF Done:  E(UM062X) =  -76.5855890312     A.U. after   18 cycles
 Optimization completed.
    -- Stationary point found.

                          Input orientation:
 ---------------------------------------------------------------------
 Center     Atomic      Atomic             Coordinates (Angstroms)
 Number     Number       Type             X           Y           Z
 ---------------------------------------------------------------------
      1          6           0       -9.882160    0.000000    0.000000
      2          6           0        9.882160    0.000000    0.000000
      3          1           0      -11.000239   -0.000000    0.000000
      4          1           0       11.000239   -0.000000   -0.000000
 ---------------------------------------------------------------------

 Alpha  occ. eigenvalues --  -10.90448 -10.90448  -0.94252  -0.94251  -0.59249
 Alpha  occ. eigenvalues --   -0.59249  -0.41102
 Alpha virt. eigenvalues --   -0.39662  -0.29179  -0.29179  -0.08259  -0.08259
 Alpha virt. eigenvalues --   -0.02890  -0.02890  -0.02723  -0.02723  -0.02560
 Alpha virt. eigenvalues --   -0.02560   0.03180   0.03180   0.31444   0.31444

  Beta  occ. eigenvalues --  -10.90034 -10.90034  -0.91892  -0.91892  -0.57856
  Beta  occ. eigenvalues --   -0.57856
  Beta virt. eigenvalues --   -0.27298  -0.27298  -0.25666  -0.25666  -0.08454
  Beta virt. eigenvalues --   -0.08454  -0.02580  -0.02580  -0.02092  -0.02092
  Beta virt. eigenvalues --   -0.01166  -0.01166   0.04982   0.04982   0.30788

 Mulliken charges and spin densities:
               1          2
     1  C    0.300077   0.515406
     2  C    0.300076   0.515406
     3  H    0.199924  -0.015406
     4  H    0.199924  -0.015406
 Sum of Mulliken charges =   1.00000   1.00000

 Dipole moment (field-independent basis, Debye):
    X=             -0.0000    Y=             -0.0000    Z=              0.0000  Tot=              0.0000
 Quadrupole moment (field-independent basis, Debye-Ang):
   XX=            534.7747   YY=             -9.9353   ZZ=            -10.9761
   XY=             -0.0000   XZ=             -0.0000   YZ=              0.8429

 Normal termination of Gaussian 16 at Tue Dec  3 17:46:12 2024.
