 Gaussian 16, Revision A.03,
 Gaussian 16:  ES64L-G16RevA.03 25-Dec-2016

 --------------------------------------------
 #p opt UM062X/6-311+G** nosymm int=superfine
 --------------------------------------------

 -------------------
 Title Card Required
 -------------------
 Symbolic Z-matrix:
 Charge =  0 Multiplicity = 1

 SCF Done:  E(UM062X) =  -110.253652829     A.U. after   13 cycles
 SCF Done:  E(UM062X) =  -110.262677093     A.U. after   12 cycles
 SCF Done:  E(UM062X) =  -110.267415174     A.U. after   13 cycles
 SCF Done:  E(UM062X) =  -110.267425896     A.U. after    9 cycles
 Optimization completed.
    -- Stationary point found.

                          Input orientation:
 ---------------------------------------------------------------------
 Center     Atomic      Atomic             Coordinates (Angstroms)
 Number     Number       Type             X           Y           Z
 ---------------------------------------------------------------------
      1          7           0       -1.315428    0.000000    0.000000
      2          7           0        1.315428    0.000000    0.000000
      3          1           0       -1.172262   -1.027600    0.000000
      4          1           0        1.172262    1.027600    0.000000
 ---------------------------------------------------------------------

 Alpha  occ. eigenvalues --  -14.88835 -14.88830  -0.93683  -0.91079  -0.49546
 Alpha  occ. eigenvalues --   -0.48105  -0.35002  -0.31790
 Alpha virt. eigenvalues --   -0.19377  -0.15669   0.05641   0.07557   0.10645
 Alpha virt. eigenvalues --    0.12065   0.13351   0.14805   0.15909   0.19263
 Alpha virt. eigenvalues --    0.19590   0.24047   0.52560   0.55722   0.72131

  Beta  occ. eigenvalues --  -14.88835 -14.88830  -0.93683  -0.91079  -0.49546
  Beta  occ. eigenvalues --   -0.48105  -0.35002  -0.31790
  Beta virt. eigenvalues --   -0.19377  -0.15669   0.05641   0.07557   0.10645
  Beta virt. eigenvalues --    0.12065   0.13351   0.14805   0.15909   0.19263
  Beta virt. eigenvalues --    0.19590   0.24047   0.52560   0.55722   0.72131

 Mulliken charges and spin densities:
               1          2
     1  N   -0.244770   0.000000
     2  N   -0.244770  -0.000000
     3  H    0.244770  -0.000000
     4  H    0.244770  -0.000000
 Sum of Mulliken charges =  -0.00000  -0.00000

 Dipole moment (field-independent basis, Debye):
    X=              0.0000    Y=             -0.0000    Z=              0.0000  Tot=              0.0000
 Quadrupole moment (field-independent basis, Debye-Ang):
   XX=            -13.7788   YY=            -11.0124   ZZ=            -14.1551
   XY=              4.5651   XZ=             -0.0000   YZ=             -0.0000

 Normal termination of Gaussian 16 at Thu May 15 15:37:29 2025.
