 Gaussian 16, Revision A.03,
 Gaussian 16:  ES64L-G16RevA.03 25-Dec-2016

 --------------------------------------------
 #p opt UM062X/6-311+G** nosymm int=superfine
 --------------------------------------------

 -------------------
 Title Card Required
 -------------------
 Symbolic Z-matrix:
 Charge =  0 Multiplicity = 1

 SCF Done:  E(UM062X) =  -80.4072916804     A.U. after   16 cycles
 SCF Done:  E(UM062X) =  -80.4107892101     A.U. after    9 cycles
 SCF Done:  E(UM062X) =  -80.4108430082     A.U. after    8 cycles
 Optimization completed.
    -- Stationary point found.

                          Input orientation:
 ---------------------------------------------------------------------
 Center     Atomic      Atomic             Coordinates (Angstroms)
 Number     Number       Type             X           Y           Z
 ---------------------------------------------------------------------
      1          5           0       -1.717066    0.000000    0.000000
      2          7           0        1.717066    0.000000    0.000000
      3          1           0       -2.951814   -0.000955   -0.000000
      4          1           0        2.757620   -0.000320    0.000000
 ---------------------------------------------------------------------

 Alpha  occ. eigenvalues --  -14.82322  -7.11742  -0.88765  -0.53961  -0.45316
 Alpha  occ. eigenvalues --   -0.32963  -0.26841
 Alpha virt. eigenvalues --   -0.11894  -0.03807  -0.03748   0.02645   0.03771
 Alpha virt. eigenvalues --    0.06678   0.06812   0.09635   0.14162   0.15199
 Alpha virt. eigenvalues --    0.18227   0.20269   0.26005   0.39178   0.42473

  Beta  occ. eigenvalues --  -14.82322  -7.11742  -0.88765  -0.53961  -0.45316
  Beta  occ. eigenvalues --   -0.32963  -0.26841
  Beta virt. eigenvalues --   -0.11894  -0.03807  -0.03748   0.02645   0.03771
  Beta virt. eigenvalues --    0.06678   0.06812   0.09635   0.14162   0.15199
  Beta virt. eigenvalues --    0.18227   0.20269   0.26005   0.39178   0.42473

 Mulliken charges and spin densities:
               1          2
     1  B   -0.023985  -0.000000
     2  N   -0.187726  -0.000000
     3  H   -0.007767   0.000000
     4  H    0.219477   0.000000
 Sum of Mulliken charges =   0.00000  -0.00000

 Dipole moment (field-independent basis, Debye):
    X=              0.2438    Y=             -0.0018    Z=             -0.0000  Tot=              0.2438
 Quadrupole moment (field-independent basis, Debye-Ang):
   XX=             -5.1993   YY=            -15.1913   ZZ=            -11.8944
   XY=             -0.0018   XZ=             -0.0000   YZ=             -0.0000

 Normal termination of Gaussian 16 at Mon Apr 21 18:02:11 2025.
