 Gaussian 16, Revision A.03,
 Gaussian 16:  ES64L-G16RevA.03 25-Dec-2016

 --------------------------------------------
 #p opt UM062X/6-311+G** nosymm int=superfine
 --------------------------------------------

 -------------------
 Title Card Required
 -------------------
 Symbolic Z-matrix:
 Charge =  0 Multiplicity = 1

 SCF Done:  E(UM062X) =  -380.941480409     A.U. after   21 cycles
 SCF Done:  E(UM062X) =  -380.943708205     A.U. after   15 cycles
 SCF Done:  E(UM062X) =  -380.944803429     A.U. after   15 cycles
 SCF Done:  E(UM062X) =  -380.944939297     A.U. after   20 cycles
 SCF Done:  E(UM062X) =  -380.944899619     A.U. after   16 cycles
 SCF Done:  E(UM062X) =  -380.945134686     A.U. after   17 cycles
 SCF Done:  E(UM062X) =  -380.945142645     A.U. after   14 cycles
 SCF Done:  E(UM062X) =  -380.945144229     A.U. after   15 cycles
 SCF Done:  E(UM062X) =  -380.945149100     A.U. after   16 cycles
 SCF Done:  E(UM062X) =  -380.945153470     A.U. after   16 cycles
 SCF Done:  E(UM062X) =  -380.945155368     A.U. after   15 cycles
 SCF Done:  E(UM062X) =  -380.945155743     A.U. after   18 cycles
 SCF Done:  E(UM062X) =  -380.945155755     A.U. after   10 cycles
 Optimization completed.
    -- Stationary point found.

                          Input orientation:
 ---------------------------------------------------------------------
 Center     Atomic      Atomic             Coordinates (Angstroms)
 Number     Number       Type             X           Y           Z
 ---------------------------------------------------------------------
      1          6           0       -1.705452    0.000000    0.000000
      2         15           0        1.705452    0.000000    0.000000
      3          1           0       -2.395252   -0.860999    0.000077
      4          1           0        1.461554   -1.400119   -0.000125
      5          1           0       -2.353942    0.892305   -0.000099
 ---------------------------------------------------------------------

 Alpha  occ. eigenvalues --  -78.03943 -10.63910  -6.86143  -4.98121  -4.97385
 Alpha  occ. eigenvalues --   -4.96956  -0.77981  -0.64852  -0.50641  -0.37607
 Alpha  occ. eigenvalues --   -0.34112  -0.23736
 Alpha virt. eigenvalues --   -0.10485  -0.09878   0.01197   0.04138   0.04760
 Alpha virt. eigenvalues --    0.06267   0.06929   0.07444   0.08803   0.11375
 Alpha virt. eigenvalues --    0.13576   0.17044   0.18391   0.31191   0.34325

  Beta  occ. eigenvalues --  -78.03943 -10.63910  -6.86143  -4.98121  -4.97385
  Beta  occ. eigenvalues --   -4.96956  -0.77981  -0.64852  -0.50641  -0.37607
  Beta  occ. eigenvalues --   -0.34112  -0.23736
  Beta virt. eigenvalues --   -0.10485  -0.09878   0.01197   0.04138   0.04760
  Beta virt. eigenvalues --    0.06267   0.06929   0.07444   0.08803   0.11375
  Beta virt. eigenvalues --    0.13576   0.17044   0.18391   0.31191   0.34325

 Mulliken charges and spin densities:
               1          2
     1  C   -0.311098   0.000000
     2  P    0.033922  -0.000000
     3  H    0.154817   0.000000
     4  H   -0.032670  -0.000000
     5  H    0.155029  -0.000000
 Sum of Mulliken charges =  -0.00000  -0.00000

 Dipole moment (field-independent basis, Debye):
    X=             -2.9014    Y=             -0.5964    Z=             -0.0001  Tot=              2.9620
 Quadrupole moment (field-independent basis, Debye-Ang):
   XX=            -13.8363   YY=            -21.3224   ZZ=            -25.5293
   XY=             -1.7092   XZ=             -0.0002   YZ=              0.0005

 Normal termination of Gaussian 16 at Mon Apr 21 19:14:48 2025.
