 Gaussian 16, Revision A.03,
 Gaussian 16:  ES64L-G16RevA.03 25-Dec-2016

 --------------------------------------------
 #p opt UM062X/6-311+G** nosymm int=superfine
 --------------------------------------------

 -------------------
 Title Card Required
 -------------------
 Symbolic Z-matrix:
 Charge =  0 Multiplicity = 1

 SCF Done:  E(UM062X) =  -81.7938886681     A.U. after   15 cycles
 SCF Done:  E(UM062X) =  -81.7997278185     A.U. after   11 cycles
 SCF Done:  E(UM062X) =  -81.8029365101     A.U. after   12 cycles
 SCF Done:  E(UM062X) =  -81.8000759050     A.U. after   12 cycles
 SCF Done:  E(UM062X) =  -81.8039632195     A.U. after   13 cycles
 SCF Done:  E(UM062X) =  -81.8094795481     A.U. after   14 cycles
 SCF Done:  E(UM062X) =  -81.8109844205     A.U. after   12 cycles
 SCF Done:  E(UM062X) =  -81.8119504290     A.U. after   11 cycles
 SCF Done:  E(UM062X) =  -81.8151034976     A.U. after   12 cycles
 SCF Done:  E(UM062X) =  -81.8182291212     A.U. after   12 cycles
 SCF Done:  E(UM062X) =  -81.8206448846     A.U. after   11 cycles
 SCF Done:  E(UM062X) =  -81.8221673073     A.U. after   12 cycles
 SCF Done:  E(UM062X) =  -81.8227163999     A.U. after   11 cycles
 SCF Done:  E(UM062X) =  -81.8230282222     A.U. after   11 cycles
 SCF Done:  E(UM062X) =  -81.8231682328     A.U. after   10 cycles
 SCF Done:  E(UM062X) =  -81.8231694079     A.U. after    9 cycles
 Optimization completed.
    -- Stationary point found.

                          Input orientation:
 ---------------------------------------------------------------------
 Center     Atomic      Atomic             Coordinates (Angstroms)
 Number     Number       Type             X           Y           Z
 ---------------------------------------------------------------------
      1          5           0       -1.295399    0.000000    0.000000
      2          7           0        1.295399    0.000000    0.000000
      3          1           0       -1.707808   -1.098621   -0.029917
      4          1           0        1.394023    0.808439    0.619123
      5          1           0       -1.707816    1.098609   -0.030225
      6          1           0        1.394024   -0.808268    0.619347
 ---------------------------------------------------------------------

 Alpha  occ. eigenvalues --  -14.72368  -7.15966  -0.88231  -0.60944  -0.49670
 Alpha  occ. eigenvalues --   -0.48275  -0.34464  -0.28172
 Alpha virt. eigenvalues --   -0.06854  -0.03641   0.01289   0.03200   0.04518
 Alpha virt. eigenvalues --    0.05506   0.10988   0.13412   0.13798   0.17121
 Alpha virt. eigenvalues --    0.20557   0.20905   0.21308   0.30175   0.33193

  Beta  occ. eigenvalues --  -14.72368  -7.15966  -0.88231  -0.60944  -0.49670
  Beta  occ. eigenvalues --   -0.48275  -0.34464  -0.28172
  Beta virt. eigenvalues --   -0.06854  -0.03641   0.01289   0.03200   0.04518
  Beta virt. eigenvalues --    0.05506   0.10988   0.13412   0.13798   0.17121
  Beta virt. eigenvalues --    0.20557   0.20905   0.21308   0.30175   0.33193

 Mulliken charges and spin densities:
               1          2
     1  B    0.191561  -0.000000
     2  N   -0.737213   0.000000
     3  H    0.047877   0.000000
     4  H    0.224949  -0.000000
     5  H    0.047877   0.000000
     6  H    0.224949  -0.000000
 Sum of Mulliken charges =   0.00000   0.00000

 Dipole moment (field-independent basis, Debye):
    X=             -3.3215    Y=              0.0002    Z=              1.7021  Tot=              3.7322
 Quadrupole moment (field-independent basis, Debye-Ang):
   XX=            -14.7791   YY=            -13.3818   ZZ=            -14.4349
   XY=              0.0004   XZ=              2.7895   YZ=             -0.0001

 Normal termination of Gaussian 16 at Mon Apr 21 17:47:14 2025.
