 Gaussian 16, Revision A.03,
 Gaussian 16:  ES64L-G16RevA.03 25-Dec-2016

 --------------------------------------------
 #p opt UM062X/6-311+G** nosymm int=superfine
 --------------------------------------------

 -------------------
 Title Card Required
 -------------------
 Symbolic Z-matrix:
 Charge =  0 Multiplicity = 1

 SCF Done:  E(UM062X) =  -79.6293560365     A.U. after   10 cycles
 SCF Done:  E(UM062X) =  -79.6306208709     A.U. after    9 cycles
 SCF Done:  E(UM062X) =  -79.6309417152     A.U. after    8 cycles
 Optimization completed.
    -- Stationary point found.

                          Input orientation:
 ---------------------------------------------------------------------
 Center     Atomic      Atomic             Coordinates (Angstroms)
 Number     Number       Type             X           Y           Z
 ---------------------------------------------------------------------
      1          6           0       -1.471675    0.000000    0.000000
      2          6           0        1.471800    0.000000    0.000000
      3          1           0        1.609661   -0.927473    0.536672
      4          1           0       -1.609526   -0.928519   -0.534862
      5          1           0        1.609653    0.928519    0.534861
      6          1           0        1.609635   -0.001045   -1.071556
      7          1           0       -1.609535    0.927473   -0.536672
      8          1           0       -1.609514    0.001045    1.071556
 ---------------------------------------------------------------------

 Alpha  occ. eigenvalues --  -10.56617 -10.56614  -0.76966  -0.75530  -0.48615
 Alpha  occ. eigenvalues --   -0.48615  -0.47834  -0.47833  -0.24895
 Alpha virt. eigenvalues --   -0.06614   0.02834   0.05396   0.05396   0.05842
 Alpha virt. eigenvalues --    0.07913   0.07913   0.10845   0.12562   0.18320
 Alpha virt. eigenvalues --    0.18320   0.21452   0.21452   0.24193   0.25360

  Beta  occ. eigenvalues --  -10.56617 -10.56614  -0.76966  -0.75530  -0.48615
  Beta  occ. eigenvalues --   -0.48615  -0.47834  -0.47833  -0.24895
  Beta virt. eigenvalues --   -0.06614   0.02834   0.05396   0.05396   0.05842
  Beta virt. eigenvalues --    0.07913   0.07913   0.10845   0.12562   0.18320
  Beta virt. eigenvalues --    0.18320   0.21452   0.21452   0.24193   0.25360

 Mulliken charges and spin densities:
               1          2
     1  C   -0.521763  -0.000000
     2  C   -0.521763  -0.000000
     3  H    0.173921   0.000000
     4  H    0.173921   0.000000
     5  H    0.173921   0.000000
     6  H    0.173921   0.000000
     7  H    0.173921   0.000000
     8  H    0.173921  -0.000000
 Sum of Mulliken charges =  -0.00000  -0.00000

 Dipole moment (field-independent basis, Debye):
    X=             -0.0000    Y=             -0.0000    Z=             -0.0000  Tot=              0.0000
 Quadrupole moment (field-independent basis, Debye-Ang):
   XX=            -15.4317   YY=            -14.7989   ZZ=            -14.7990
   XY=             -0.0000   XZ=              0.0000   YZ=             -0.0000

 Normal termination of Gaussian 16 at Tue Dec  3 10:00:10 2024.
