 Gaussian 16, Revision A.03,
 Gaussian 16:  ES64L-G16RevA.03 25-Dec-2016

 --------------------------------------------
 #p opt UM062X/6-311+G** nosymm int=superfine
 --------------------------------------------

 -------------------
 Title Card Required
 -------------------
 Symbolic Z-matrix:
 Charge =  0 Multiplicity = 1

 SCF Done:  E(UM062X) =  -151.312797324     A.U. after   18 cycles
 SCF Done:  E(UM062X) =  -151.313530091     A.U. after   52 cycles
 SCF Done:  E(UM062X) =  -151.314882513     A.U. after   21 cycles
 SCF Done:  E(UM062X) =  -151.315677017     A.U. after   23 cycles
 SCF Done:  E(UM062X) =  -151.316074051     A.U. after   21 cycles
 SCF Done:  E(UM062X) =  -151.316144141     A.U. after   23 cycles
 SCF Done:  E(UM062X) =  -151.316150321     A.U. after   25 cycles
 SCF Done:  E(UM062X) =  -151.316151872     A.U. after   24 cycles
 SCF Done:  E(UM062X) =  -151.316152040     A.U. after   17 cycles
 Optimization completed.
    -- Stationary point found.

                          Input orientation:
 ---------------------------------------------------------------------
 Center     Atomic      Atomic             Coordinates (Angstroms)
 Number     Number       Type             X           Y           Z
 ---------------------------------------------------------------------
      1          8           0       -1.761938    0.000000    0.000000
      2          8           0        1.761938    0.000000    0.000000
      3          1           0       -1.562858   -0.762289   -0.572637
      4          1           0        1.563052    0.761867    0.573265
 ---------------------------------------------------------------------

 Alpha  occ. eigenvalues --  -19.72538 -19.72537  -1.13075  -1.12808  -0.56850
 Alpha  occ. eigenvalues --   -0.56676  -0.44287  -0.44078  -0.36676
 Alpha virt. eigenvalues --   -0.26772   0.05079   0.07696   0.14931   0.15041
 Alpha virt. eigenvalues --    0.17411   0.18466   0.20036   0.20750   0.20758
 Alpha virt. eigenvalues --    0.31037   0.48825   0.51736   0.99732   1.00952

  Beta  occ. eigenvalues --  -19.72538 -19.72537  -1.13075  -1.12808  -0.56850
  Beta  occ. eigenvalues --   -0.56676  -0.44287  -0.44078  -0.36676
  Beta virt. eigenvalues --   -0.26772   0.05079   0.07696   0.14931   0.15041
  Beta virt. eigenvalues --    0.17411   0.18466   0.20036   0.20750   0.20758
  Beta virt. eigenvalues --    0.31037   0.48825   0.51736   0.99732   1.00952

 Mulliken charges and spin densities:
               1          2
     1  O   -0.268053  -0.000000
     2  O   -0.268069   0.000000
     3  H    0.268062   0.000000
     4  H    0.268059   0.000000
 Sum of Mulliken charges =  -0.00000   0.00000

 Dipole moment (field-independent basis, Debye):
    X=              0.0003    Y=             -0.0009    Z=              0.0012  Tot=              0.0015
 Quadrupole moment (field-independent basis, Debye-Ang):
   XX=            -13.3162   YY=            -10.5470   ZZ=            -11.9491
   XY=              4.8787   XZ=              3.6679   YZ=              2.4248

 Normal termination of Gaussian 16 at Mon Apr 21 21:38:27 2025.
