 Gaussian 16, Revision A.03,
 Gaussian 16:  ES64L-G16RevA.03 25-Dec-2016

 ---------------------------------------------------
 #p UM062X/6-311+G** force int=superfine pop=saveNBO
 ---------------------------------------------------

 -------------------
 Title Card Required
 -------------------
 Symbolic Z-matrix:
 Charge =  0 Multiplicity = 1

                         Standard orientation:
 ---------------------------------------------------------------------
 Center     Atomic      Atomic             Coordinates (Angstroms)
 Number     Number       Type             X           Y           Z
 ---------------------------------------------------------------------
      1          6           0        0.000000    0.000000   -1.584094
      2          8           0        0.000000    0.000000    1.188070
 ---------------------------------------------------------------------

 SCF Done:  E(UM062X) =  -112.777224048     A.U. after   20 cycles

 The electronic state is 1-SG.
 Alpha  occ. eigenvalues --  -19.68946 -10.78502  -0.99759  -0.69551  -0.38299
 Alpha  occ. eigenvalues --   -0.38299  -0.33513
 Alpha virt. eigenvalues --   -0.15439  -0.15439  -0.13511   0.03332   0.06482
 Alpha virt. eigenvalues --    0.06482   0.07309   0.18724   0.21434   0.21434
 Alpha virt. eigenvalues --    0.29552   0.53180   0.53180   0.55850   0.63247

  Beta  occ. eigenvalues --  -19.68946 -10.78502  -0.99759  -0.69551  -0.38299
  Beta  occ. eigenvalues --   -0.38299  -0.33513
  Beta virt. eigenvalues --   -0.15439  -0.15439  -0.13511   0.03332   0.06482
  Beta virt. eigenvalues --    0.06482   0.07309   0.18724   0.21434   0.21434
  Beta virt. eigenvalues --    0.29552   0.53180   0.53180   0.55850   0.63247

 Mulliken charges and spin densities:
               1          2
     1  C    0.226379  -0.000000
     2  O   -0.226379  -0.000000
 Sum of Mulliken charges =  -0.00000  -0.00000

 Dipole moment (field-independent basis, Debye):
    X=              0.0000    Y=              0.0000    Z=             -3.0736  Tot=              3.0736
 Quadrupole moment (field-independent basis, Debye-Ang):
   XX=            -11.1921   YY=            -11.1921   ZZ=            -11.2105
   XY=              0.0000   XZ=              0.0000   YZ=              0.0000

 Summary of Natural Population Analysis:

                                       Natural Population
                Natural  -----------------------------------------------
    Atom  No    Charge         Core      Valence    Rydberg      Total
 -----------------------------------------------------------------------
      C    1    0.14739      1.00000     1.85215    0.00046     2.85261
      O    2   -0.14739      1.00000     3.14690    0.00049     4.14739
 =======================================================================
   * Total *   -0.00000      2.00000     4.99905    0.00095     7.00000

 Normal termination of Gaussian 16 at Mon Apr 21 19:31:48 2025.
