 Gaussian 16, Revision A.03,
 Gaussian 16:  ES64L-G16RevA.03 25-Dec-2016

 --------------------------------------------
 #p opt UM062X/6-311+G** nosymm int=superfine
 --------------------------------------------

 -------------------
 Title Card Required
 -------------------
 Symbolic Z-matrix:
 Charge =  0 Multiplicity = 1

 SCF Done:  E(UM062X) =  -579.882016640     A.U. after   10 cycles
 SCF Done:  E(UM062X) =  -579.884812629     A.U. after   10 cycles
 SCF Done:  E(UM062X) =  -579.884817506     A.U. after    7 cycles
 Optimization completed.
    -- Stationary point found.

                          Input orientation:
 ---------------------------------------------------------------------
 Center     Atomic      Atomic             Coordinates (Angstroms)
 Number     Number       Type             X           Y           Z
 ---------------------------------------------------------------------
      1         14           0       -2.128705    0.000000    0.000000
      2         14           0        2.128705    0.000000    0.000000
      3          1           0       -3.653755   -0.000027   -0.000000
      4          1           0        3.653755    0.000040    0.000000
 ---------------------------------------------------------------------

 Alpha  occ. eigenvalues --  -67.04548 -67.04548  -5.58972  -5.58970  -3.90081
 Alpha  occ. eigenvalues --   -3.90081  -3.89630  -3.89630  -3.89488  -3.89488
 Alpha  occ. eigenvalues --   -0.55007  -0.54691  -0.33749  -0.31445  -0.17926
 Alpha virt. eigenvalues --   -0.10701  -0.09239  -0.08229   0.02270   0.02924
 Alpha virt. eigenvalues --    0.04526   0.05696   0.05940   0.06091   0.06477
 Alpha virt. eigenvalues --    0.07065   0.08617   0.16562   0.29441   0.29550

  Beta  occ. eigenvalues --  -67.04548 -67.04548  -5.58972  -5.58970  -3.90081
  Beta  occ. eigenvalues --   -3.90081  -3.89630  -3.89630  -3.89488  -3.89488
  Beta  occ. eigenvalues --   -0.55007  -0.54691  -0.33749  -0.31445  -0.17926
  Beta virt. eigenvalues --   -0.10701  -0.09239  -0.08229   0.02270   0.02924
  Beta virt. eigenvalues --    0.04526   0.05696   0.05940   0.06091   0.06477
  Beta virt. eigenvalues --    0.07065   0.08617   0.16562   0.29441   0.29550

 Mulliken charges and spin densities:
               1          2
     1  Si   0.148866  -0.000001
     2  Si   0.148866   0.000001
     3  H   -0.148866   0.000000
     4  H   -0.148866  -0.000000
 Sum of Mulliken charges =  -0.00000  -0.00000

 Dipole moment (field-independent basis, Debye):
    X=             -0.0000    Y=              0.0000    Z=              0.0000  Tot=              0.0000
 Quadrupole moment (field-independent basis, Debye-Ang):
   XX=            -30.4808   YY=            -24.2747   ZZ=            -35.6771
   XY=             -0.0002   XZ=             -0.0000   YZ=              0.0003

 Normal termination of Gaussian 16 at Mon Apr 21 21:26:27 2025.
