 Gaussian 16, Revision A.03,
 Gaussian 16:  ES64L-G16RevA.03 25-Dec-2016

 --------------------------------------------
 #p opt UM062X/6-311+G** nosymm int=superfine
 --------------------------------------------

 -------------------
 Title Card Required
 -------------------
 Symbolic Z-matrix:
 Charge =  1 Multiplicity = 2

 SCF Done:  E(UM062X) =  -79.3261405982     A.U. after   10 cycles
 SCF Done:  E(UM062X) =  -79.3266430333     A.U. after    9 cycles
 SCF Done:  E(UM062X) =  -79.3266438455     A.U. after    8 cycles
 Optimization completed.
    -- Stationary point found.

                          Input orientation:
 ---------------------------------------------------------------------
 Center     Atomic      Atomic             Coordinates (Angstroms)
 Number     Number       Type             X           Y           Z
 ---------------------------------------------------------------------
      1          6           0       -1.740540    0.000000    0.000000
      2          6           0        1.740540    0.000000    0.000000
      3          1           0        1.777473   -0.937632    0.542673
      4          1           0       -1.776048   -0.938736   -0.540855
      5          1           0        1.776872    0.938826    0.540644
      6          1           0        1.776043   -0.001162   -1.083397
      7          1           0       -1.777518    0.937729   -0.542503
      8          1           0       -1.776822    0.000938    1.083372
 ---------------------------------------------------------------------

 Alpha  occ. eigenvalues --  -10.84378 -10.84376  -1.02992  -1.02280  -0.73901
 Alpha  occ. eigenvalues --   -0.73900  -0.73599  -0.73598  -0.49861
 Alpha virt. eigenvalues --   -0.36838  -0.13341  -0.10216  -0.09928  -0.09927
 Alpha virt. eigenvalues --   -0.06245  -0.06245  -0.04641  -0.03225  -0.01048
 Alpha virt. eigenvalues --   -0.01046   0.01272   0.01273   0.03751   0.08078

  Beta  occ. eigenvalues --  -10.84171 -10.84171  -1.00288  -0.99815  -0.73394
  Beta  occ. eigenvalues --   -0.73394  -0.73079  -0.73079
  Beta virt. eigenvalues --   -0.32723  -0.26345  -0.15708  -0.11131  -0.11131
  Beta virt. eigenvalues --   -0.10126  -0.06316  -0.06316  -0.05039  -0.02303
  Beta virt. eigenvalues --   -0.01397  -0.01395   0.01558   0.01560   0.04132

 Mulliken charges and spin densities:
               1          2
     1  C   -0.264397   0.560885
     2  C   -0.264396   0.560886
     3  H    0.254816  -0.020296
     4  H    0.254774  -0.020301
     5  H    0.254797  -0.020300
     6  H    0.254783  -0.020289
     7  H    0.254817  -0.020296
     8  H    0.254806  -0.020288
 Sum of Mulliken charges =   1.00000   1.00000

 Dipole moment (field-independent basis, Debye):
    X=             -0.0000    Y=             -0.0000    Z=             -0.0001  Tot=              0.0001
 Quadrupole moment (field-independent basis, Debye-Ang):
   XX=              3.4393   YY=            -11.0828   ZZ=            -11.0829
   XY=             -0.0015   XZ=              0.0009   YZ=             -0.0000

 Normal termination of Gaussian 16 at Wed Nov 13 12:48:06 2024.
