 Gaussian 16, Revision A.03,
 Gaussian 16:  ES64L-G16RevA.03 25-Dec-2016

 --------------------------------------------
 #p opt UM062X/6-311+G** nosymm int=superfine
 --------------------------------------------

 -------------------
 Title Card Required
 -------------------
 Symbolic Z-matrix:
 Charge = -1 Multiplicity = 2

 SCF Done:  E(UM062X) =  -51.9421736804     A.U. after   11 cycles
 SCF Done:  E(UM062X) =  -51.9446724075     A.U. after    9 cycles
 SCF Done:  E(UM062X) =  -51.9456194917     A.U. after   10 cycles
 SCF Done:  E(UM062X) =  -51.9456262168     A.U. after   10 cycles
 SCF Done:  E(UM062X) =  -51.9455757011     A.U. after   12 cycles
 SCF Done:  E(UM062X) =  -51.9456245245     A.U. after   12 cycles
 SCF Done:  E(UM062X) =  -51.9456237200     A.U. after   10 cycles
 SCF Done:  E(UM062X) =  -51.9456265717     A.U. after   11 cycles
 Optimization completed.
    -- Stationary point found.

                          Input orientation:
 ---------------------------------------------------------------------
 Center     Atomic      Atomic             Coordinates (Angstroms)
 Number     Number       Type             X           Y           Z
 ---------------------------------------------------------------------
      1          5           0       -1.247274    0.000000    0.000000
      2          5           0        1.247274    0.000000    0.000000
      3          1           0       -1.820715   -1.051722   -0.000553
      4          1           0        1.820715    1.051722   -0.001056
      5          1           0       -1.820715    1.051722   -0.001082
      6          1           0        1.820715   -1.051722   -0.000578
 ---------------------------------------------------------------------

 Alpha  occ. eigenvalues --   -6.85947  -6.85939  -0.37095  -0.34540  -0.21797
 Alpha  occ. eigenvalues --   -0.20348  -0.06146   0.01134
 Alpha virt. eigenvalues --    0.15044   0.15617   0.16787   0.19238   0.19265
 Alpha virt. eigenvalues --    0.22466   0.22685   0.24582   0.26156   0.26886
 Alpha virt. eigenvalues --    0.33170   0.34984   0.36364   0.42542   0.50276

  Beta  occ. eigenvalues --   -6.85918  -6.85913  -0.35411  -0.33308  -0.21617
  Beta  occ. eigenvalues --   -0.20300  -0.05061
  Beta virt. eigenvalues --    0.11015   0.13902   0.14743   0.15019   0.16427
  Beta virt. eigenvalues --    0.17998   0.18867   0.20298   0.22523   0.26258
  Beta virt. eigenvalues --    0.28951   0.32217   0.35081   0.35179   0.42394

 Mulliken charges and spin densities:
               1          2
     1  B   -0.400689   0.545021
     2  B   -0.400689   0.545020
     3  H   -0.049655  -0.022510
     4  H   -0.049655  -0.022510
     5  H   -0.049655  -0.022510
     6  H   -0.049655  -0.022510
 Sum of Mulliken charges =  -1.00000   1.00000

 Dipole moment (field-independent basis, Debye):
    X=              0.0000    Y=             -0.0000    Z=             -0.0007  Tot=              0.0007
 Quadrupole moment (field-independent basis, Debye-Ang):
   XX=            -30.9744   YY=            -23.3798   ZZ=            -24.9141
   XY=             -0.0000   XZ=             -0.0000   YZ=             -0.0004

 Normal termination of Gaussian 16 at Mon Apr 21 17:22:38 2025.
