 Gaussian 16, Revision A.03,
 Gaussian 16:  ES64L-G16RevA.03 25-Dec-2016

 --------------------------------------------
 #p opt UM062X/6-311+G** nosymm int=superfine
 --------------------------------------------

 -------------------
 Title Card Required
 -------------------
 Symbolic Z-matrix:
 Charge =  0 Multiplicity = 1

 SCF Done:  E(UM062X) =  -437.155649241     A.U. after   17 cycles
 SCF Done:  E(UM062X) =  -437.158621927     A.U. after   16 cycles
 SCF Done:  E(UM062X) =  -437.159589354     A.U. after   18 cycles
 SCF Done:  E(UM062X) =  -437.159590699     A.U. after   16 cycles
 Optimization completed.
    -- Stationary point found.

                          Input orientation:
 ---------------------------------------------------------------------
 Center     Atomic      Atomic             Coordinates (Angstroms)
 Number     Number       Type             X           Y           Z
 ---------------------------------------------------------------------
      1          6           0       -2.252140    0.000000    0.000000
      2         16           0        2.252140    0.000000    0.000000
      3          1           0       -2.944442   -0.864694    0.000051
      4          1           0       -2.945439    0.863894   -0.000072
 ---------------------------------------------------------------------

 Alpha  occ. eigenvalues --  -89.94796 -10.61939  -8.30851  -6.23645  -6.22050
 Alpha  occ. eigenvalues --   -6.22050  -0.76658  -0.74956  -0.48693  -0.32536
 Alpha  occ. eigenvalues --   -0.32252  -0.32247
 Alpha virt. eigenvalues --   -0.17271  -0.09191   0.01613   0.04468   0.05375
 Alpha virt. eigenvalues --    0.06304   0.07885   0.08218   0.08876   0.13767
 Alpha virt. eigenvalues --    0.17444   0.18891   0.35394   0.36491   0.36525

  Beta  occ. eigenvalues --  -89.94796 -10.61939  -8.30851  -6.23645  -6.22050
  Beta  occ. eigenvalues --   -6.22050  -0.76658  -0.74956  -0.48693  -0.32536
  Beta  occ. eigenvalues --   -0.32252  -0.32247
  Beta virt. eigenvalues --   -0.17271  -0.09191   0.01613   0.04468   0.05375
  Beta virt. eigenvalues --    0.06304   0.07885   0.08218   0.08876   0.13767
  Beta virt. eigenvalues --    0.17444   0.18891   0.35394   0.36491   0.36525

 Mulliken charges and spin densities:
               1          2
     1  C   -0.275391  -0.000000
     2  S    0.003775   0.000000
     3  H    0.135805   0.000000
     4  H    0.135811  -0.000000
 Sum of Mulliken charges =  -0.00000   0.00000

 Dipole moment (field-independent basis, Debye):
    X=             -2.3466    Y=             -0.0012    Z=             -0.0000  Tot=              2.3466
 Quadrupole moment (field-independent basis, Debye-Ang):
   XX=             -9.3904   YY=            -22.3860   ZZ=            -21.6784
   XY=              0.0006   XZ=              0.0000   YZ=              0.0001

 Normal termination of Gaussian 16 at Mon Apr 21 19:46:32 2025.
