 Gaussian 16, Revision A.03,
 Gaussian 16:  ES64L-G16RevA.03 25-Dec-2016

 --------------------------------------------
 #p opt UM062X/6-311+G** nosymm int=superfine
 --------------------------------------------

 -------------------
 Title Card Required
 -------------------
 Symbolic Z-matrix:
 Charge =  0 Multiplicity = 1

 SCF Done:  E(UM062X) =  -78.1964632909     A.U. after    9 cycles
 SCF Done:  E(UM062X) =  -78.2137283499     A.U. after    9 cycles
 SCF Done:  E(UM062X) =  -78.2298707992     A.U. after    8 cycles
 SCF Done:  E(UM062X) =  -78.2302641701     A.U. after    8 cycles
 SCF Done:  E(UM062X) =  -78.2302658523     A.U. after    7 cycles
 Optimization completed.
    -- Stationary point found.

                          Input orientation:
 ---------------------------------------------------------------------
 Center     Atomic      Atomic             Coordinates (Angstroms)
 Number     Number       Type             X           Y           Z
 ---------------------------------------------------------------------
      1          6           0       -1.735595    0.000000    0.000000
      2          6           0        1.735595    0.000000    0.000000
      3          1           0       -2.445644   -0.856732    0.000000
      4          1           0       -2.445608    0.856763    0.000000
      5          1           0        2.445644    0.856732    0.000000
      6          1           0        2.445608   -0.856763   -0.000000
 ---------------------------------------------------------------------

 Alpha  occ. eigenvalues --  -10.59046 -10.59045  -0.74146  -0.74020  -0.45758
 Alpha  occ. eigenvalues --   -0.45649  -0.31233  -0.27811
 Alpha virt. eigenvalues --   -0.07187  -0.06296   0.02561   0.03479   0.06697
 Alpha virt. eigenvalues --    0.08593   0.08870   0.10474   0.12563   0.15437
 Alpha virt. eigenvalues --    0.17616   0.19995   0.21092   0.23052   0.45053

  Beta  occ. eigenvalues --  -10.59046 -10.59045  -0.74146  -0.74020  -0.45758
  Beta  occ. eigenvalues --   -0.45649  -0.31233  -0.27811
  Beta virt. eigenvalues --   -0.07187  -0.06296   0.02561   0.03479   0.06697
  Beta virt. eigenvalues --    0.08593   0.08870   0.10474   0.12563   0.15437
  Beta virt. eigenvalues --    0.17616   0.19995   0.21092   0.23052   0.45053

 Mulliken charges and spin densities:
               1          2
     1  C   -0.236663  -0.000000
     2  C   -0.236663   0.000000
     3  H    0.118332  -0.000000
     4  H    0.118331   0.000000
     5  H    0.118332   0.000000
     6  H    0.118331  -0.000000
 Sum of Mulliken charges =  -0.00000  -0.00000

 Dipole moment (field-independent basis, Debye):
    X=             -0.0000    Y=              0.0000    Z=              0.0000  Tot=              0.0000
 Quadrupole moment (field-independent basis, Debye-Ang):
   XX=             -6.0683   YY=            -14.7680   ZZ=            -12.9871
   XY=             -0.0001   XZ=             -0.0000   YZ=              0.0000

 Normal termination of Gaussian 16 at Tue Dec  3 11:13:46 2024.
