 Gaussian 16, Revision A.03,
 Gaussian 16:  ES64L-G16RevA.03 25-Dec-2016

 --------------------------------------------
 #p opt UM062X/6-311+G** nosymm int=superfine
 --------------------------------------------

 -------------------
 Title Card Required
 -------------------
 Symbolic Z-matrix:
 Charge =  1 Multiplicity = 2

 SCF Done:  E(UM062X) =  -92.6478287579     A.U. after   94 cycles
 SCF Done:  E(UM062X) =  -92.6482333486     A.U. after   20 cycles
 SCF Done:  E(UM062X) =  -92.6482369297     A.U. after   56 cycles
 Optimization completed.
    -- Stationary point found.

                          Input orientation:
 ---------------------------------------------------------------------
 Center     Atomic      Atomic             Coordinates (Angstroms)
 Number     Number       Type             X           Y           Z
 ---------------------------------------------------------------------
      1          6           0       -1.426540    0.000000    0.000000
      2          7           0        1.426540    0.000000    0.000000
      3          1           0       -2.548437   -0.000000   -0.000000
 ---------------------------------------------------------------------

 Alpha  occ. eigenvalues --  -15.12880 -11.02314  -1.15948  -0.99651  -0.67842
 Alpha  occ. eigenvalues --   -0.67820  -0.64815
 Alpha virt. eigenvalues --   -0.46438  -0.37350  -0.33609  -0.15723  -0.10088
 Alpha virt. eigenvalues --   -0.09366  -0.08417  -0.04290  -0.01500  -0.01325
 Alpha virt. eigenvalues --    0.00342   0.08192   0.23262   0.30259   0.30369

  Beta  occ. eigenvalues --  -15.09075 -11.04818  -1.08915  -0.94480  -0.78597
  Beta  occ. eigenvalues --   -0.67447
  Beta virt. eigenvalues --   -0.43085  -0.29442  -0.28703  -0.28662  -0.15659
  Beta virt. eigenvalues --   -0.11431  -0.09361  -0.09248  -0.06502   0.00024
  Beta virt. eigenvalues --    0.00222   0.00322   0.05425   0.23056   0.29761

 Mulliken charges and spin densities:
               1          2
     1  C    0.371927  -1.626182
     2  N    0.265360   2.730834
     3  H    0.362713  -0.104652
 Sum of Mulliken charges =   1.00000   1.00000

 Dipole moment (field-independent basis, Debye):
    X=             -5.0343    Y=             -0.0000    Z=              0.0000  Tot=              5.0343
 Quadrupole moment (field-independent basis, Debye-Ang):
   XX=              7.5187   YY=             -9.2149   ZZ=            -10.8361
   XY=             -0.0000   XZ=              0.0000   YZ=              0.0023

 Normal termination of Gaussian 16 at Mon Apr 21 18:36:58 2025.
