 Gaussian 16, Revision A.03,
 Gaussian 16:  ES64L-G16RevA.03 25-Dec-2016

 --------------------------------------------
 #p opt UM062X/6-311+G** nosymm int=superfine
 --------------------------------------------

 -------------------
 Title Card Required
 -------------------
 Symbolic Z-matrix:
 Charge =  1 Multiplicity = 2

 SCF Done:  E(UM062X) =  -75.8909938867     A.U. after   13 cycles
 SCF Done:  E(UM062X) =  -75.9929295380     A.U. after   11 cycles
 SCF Done:  E(UM062X) =  -76.1256657458     A.U. after   10 cycles
 SCF Done:  E(UM062X) =  -76.2087685435     A.U. after   11 cycles
 SCF Done:  E(UM062X) =  -76.2266951372     A.U. after   11 cycles
 SCF Done:  E(UM062X) =  -76.2318983708     A.U. after   10 cycles
 SCF Done:  E(UM062X) =  -76.2323722058     A.U. after    9 cycles
 SCF Done:  E(UM062X) =  -76.2323793431     A.U. after    8 cycles
 Optimization completed.
    -- Stationary point found.

                          Input orientation:
 ---------------------------------------------------------------------
 Center     Atomic      Atomic             Coordinates (Angstroms)
 Number     Number       Type             X           Y           Z
 ---------------------------------------------------------------------
      1          6           0       -0.339308    0.000000    0.000000
      2          6           0        0.339308    0.000000    0.000000
      3          1           0       -1.259769   -0.690418   -0.000000
      4          1           0       -1.258721    0.692725    0.000000
      5          1           0        1.259769    0.690418   -0.000000
      6          1           0        1.258721   -0.692725    0.000000
 ---------------------------------------------------------------------

 Alpha  occ. eigenvalues --  -11.02014 -10.79681  -1.19785  -0.96222  -0.95698
 Alpha  occ. eigenvalues --   -0.88177  -0.85428  -0.54574
 Alpha virt. eigenvalues --   -0.22307  -0.16152  -0.14269  -0.12285  -0.11129
 Alpha virt. eigenvalues --   -0.09376  -0.07957  -0.05884  -0.01331   0.00035
 Alpha virt. eigenvalues --    0.02288   0.02621   0.18090   0.18585   0.21914

  Beta  occ. eigenvalues --  -11.02156 -10.79775  -1.18827  -0.93484  -0.91862
  Beta  occ. eigenvalues --   -0.88130  -0.83259
  Beta virt. eigenvalues --   -0.34871  -0.19291  -0.15999  -0.13888  -0.11875
  Beta virt. eigenvalues --   -0.10987  -0.09196  -0.04170  -0.01750  -0.00342
  Beta virt. eigenvalues --    0.01155   0.03757   0.04076   0.17142   0.17475

 Mulliken charges and spin densities:
               1          2
     1  C   -0.117749   0.069156
     2  C   -0.117749   0.069156
     3  H    0.308810   0.214886
     4  H    0.308939   0.215958
     5  H    0.308810   0.214886
     6  H    0.308939   0.215958
 Sum of Mulliken charges =   1.00000   1.00000

 Dipole moment (field-independent basis, Debye):
    X=              0.0000    Y=             -0.0000    Z=              0.0000  Tot=              0.0000
 Quadrupole moment (field-independent basis, Debye-Ang):
   XX=             -2.2789   YY=             -8.1909   ZZ=            -10.8662
   XY=             -0.0065   XZ=             -0.0000   YZ=             -0.0000

 Normal termination of Gaussian 16 at Tue Nov 19 10:24:14 2024.
