 Gaussian 16, Revision A.03,
 Gaussian 16:  ES64L-G16RevA.03 25-Dec-2016

 --------------------------------------------
 #p opt UM062X/6-311+G** nosymm int=superfine
 --------------------------------------------

 -------------------
 Title Card Required
 -------------------
 Symbolic Z-matrix:
 Charge =  0 Multiplicity = 1

 SCF Done:  E(UM062X) =  -114.094338855     A.U. after   13 cycles
 SCF Done:  E(UM062X) =  -114.096082083     A.U. after   10 cycles
 SCF Done:  E(UM062X) =  -114.096623106     A.U. after    9 cycles
 SCF Done:  E(UM062X) =  -114.096628276     A.U. after    8 cycles
 Optimization completed.
    -- Stationary point found.

                          Input orientation:
 ---------------------------------------------------------------------
 Center     Atomic      Atomic             Coordinates (Angstroms)
 Number     Number       Type             X           Y           Z
 ---------------------------------------------------------------------
      1          6           0       -1.598311    0.000000    0.000000
      2          8           0        1.598311    0.000000    0.000000
      3          1           0       -2.263829   -0.879875   -0.000002
      4          1           0       -2.263834    0.879871   -0.000001
 ---------------------------------------------------------------------

 Alpha  occ. eigenvalues --  -19.72206 -10.64554  -1.02175  -0.78413  -0.51156
 Alpha  occ. eigenvalues --   -0.41033  -0.41024  -0.33970
 Alpha virt. eigenvalues --   -0.15519  -0.10715   0.01344   0.05738   0.07574
 Alpha virt. eigenvalues --    0.08069   0.15602   0.17391   0.17924   0.20629
 Alpha virt. eigenvalues --    0.23129   0.27594   0.42918   0.45933   0.56634

  Beta  occ. eigenvalues --  -19.72206 -10.64554  -1.02175  -0.78413  -0.51156
  Beta  occ. eigenvalues --   -0.41033  -0.41024  -0.33970
  Beta virt. eigenvalues --   -0.15519  -0.10715   0.01344   0.05738   0.07574
  Beta virt. eigenvalues --    0.08069   0.15602   0.17391   0.17924   0.20629
  Beta virt. eigenvalues --    0.23129   0.27594   0.42918   0.45933   0.56634

 Mulliken charges and spin densities:
               1          2
     1  C   -0.248817  -0.000000
     2  O   -0.062312  -0.000000
     3  H    0.155564   0.000000
     4  H    0.155565   0.000000
 Sum of Mulliken charges =  -0.00000   0.00000

 Dipole moment (field-independent basis, Debye):
    X=             -3.4468    Y=             -0.0000    Z=             -0.0000  Tot=              3.4468
 Quadrupole moment (field-independent basis, Debye-Ang):
   XX=             -6.0709   YY=            -12.9482   ZZ=            -12.5051
   XY=              0.0000   XZ=              0.0000   YZ=             -0.0000

 Normal termination of Gaussian 16 at Mon Apr 21 18:45:21 2025.
