 Gaussian 16, Revision A.03,
 Gaussian 16:  ES64L-G16RevA.03 25-Dec-2016

 --------------------------------------------
 #p opt UM062X/6-311+G** nosymm int=superfine
 --------------------------------------------

 -------------------
 Title Card Required
 -------------------
 Symbolic Z-matrix:
 Charge = -1 Multiplicity = 2

 SCF Done:  E(UM062X) =  -51.8502317916     A.U. after   11 cycles
 SCF Done:  E(UM062X) =  -51.8502491143     A.U. after   15 cycles
 SCF Done:  E(UM062X) =  -51.8502547011     A.U. after   14 cycles
 SCF Done:  E(UM062X) =  -51.8502550648     A.U. after   13 cycles
 Optimization completed.
    -- Stationary point found.

                          Input orientation:
 ---------------------------------------------------------------------
 Center     Atomic      Atomic             Coordinates (Angstroms)
 Number     Number       Type             X           Y           Z
 ---------------------------------------------------------------------
      1          5           0       -1.797274    0.000000    0.000000
      2          5           0        1.797274    0.000000    0.000000
      3          1           0       -2.474311   -1.010139    0.000185
      4          1           0        2.474311    1.010139   -0.000285
      5          1           0       -2.474314    1.010137    0.000231
      6          1           0        2.474314   -1.010137    0.000707
 ---------------------------------------------------------------------

 Alpha  occ. eigenvalues --   -6.86936  -6.86936  -0.37216  -0.36976  -0.21192
 Alpha  occ. eigenvalues --   -0.21037  -0.05826   0.00013
 Alpha virt. eigenvalues --    0.12065   0.13937   0.15494   0.16138   0.16425
 Alpha virt. eigenvalues --    0.17945   0.20430   0.21260   0.21540   0.23497
 Alpha virt. eigenvalues --    0.32537   0.33977   0.34801   0.38638   0.50262

  Beta  occ. eigenvalues --   -6.86317  -6.86317  -0.35925  -0.35622  -0.20543
  Beta  occ. eigenvalues --   -0.20369   0.00883
  Beta virt. eigenvalues --    0.13252   0.13258   0.14387   0.14675   0.18134
  Beta virt. eigenvalues --    0.18185   0.18229   0.22685   0.22891   0.23766
  Beta virt. eigenvalues --    0.25099   0.32591   0.34000   0.34809   0.39389

 Mulliken charges and spin densities:
               1          2
     1  B   -0.336662   0.491173
     2  B   -0.336662   0.491173
     3  H   -0.081669   0.004413
     4  H   -0.081669   0.004413
     5  H   -0.081669   0.004413
     6  H   -0.081669   0.004413
 Sum of Mulliken charges =  -1.00000   1.00000

 Dipole moment (field-independent basis, Debye):
    X=              0.0000    Y=              0.0000    Z=              0.0015  Tot=              0.0015
 Quadrupole moment (field-independent basis, Debye-Ang):
   XX=            -41.4242   YY=            -24.6737   ZZ=            -18.9902
   XY=             -0.0000   XZ=             -0.0000   YZ=              0.0013

 Normal termination of Gaussian 16 at Mon Apr 21 17:25:19 2025.
