 Gaussian 16, Revision A.03,
 Gaussian 16:  ES64L-G16RevA.03 25-Dec-2016

 --------------------------------------------
 #p opt UM062X/6-311+G** nosymm int=superfine
 --------------------------------------------

 -------------------
 Title Card Required
 -------------------
 Symbolic Z-matrix:
 Charge =  0 Multiplicity = 1

 SCF Done:  E(UM062X) =  -115.566947274     A.U. after   11 cycles
 SCF Done:  E(UM062X) =  -115.580512111     A.U. after   11 cycles
 SCF Done:  E(UM062X) =  -115.584493443     A.U. after   11 cycles
 SCF Done:  E(UM062X) =  -115.584520859     A.U. after    9 cycles
 SCF Done:  E(UM062X) =  -115.584530856     A.U. after    9 cycles
 SCF Done:  E(UM062X) =  -115.584531458     A.U. after    8 cycles
 SCF Done:  E(UM062X) =  -115.584531600     A.U. after    7 cycles
 Optimization completed.
    -- Stationary point found.

                          Input orientation:
 ---------------------------------------------------------------------
 Center     Atomic      Atomic             Coordinates (Angstroms)
 Number     Number       Type             X           Y           Z
 ---------------------------------------------------------------------
      1          6           0       -1.132203    0.000000    0.000000
      2          8           0        1.132203    0.000000    0.000000
      3          1           0        1.220452   -0.960968    0.000205
      4          1           0       -1.298582   -0.522840    0.931330
      5          1           0       -1.208960    1.077418   -0.000788
      6          1           0       -1.298648   -0.524203   -0.930553
 ---------------------------------------------------------------------

 Alpha  occ. eigenvalues --  -19.60853 -10.63846  -1.03503  -0.81623  -0.53597
 Alpha  occ. eigenvalues --   -0.53506  -0.47460  -0.35105  -0.34482
 Alpha virt. eigenvalues --   -0.07431   0.01051   0.04564   0.05063   0.06790
 Alpha virt. eigenvalues --    0.14806   0.16842   0.17021   0.20283   0.22919
 Alpha virt. eigenvalues --    0.23251   0.24275   0.33029   0.40737   0.41639

  Beta  occ. eigenvalues --  -19.60853 -10.63846  -1.03503  -0.81623  -0.53597
  Beta  occ. eigenvalues --   -0.53506  -0.47460  -0.35105  -0.34482
  Beta virt. eigenvalues --   -0.07431   0.01051   0.04564   0.05063   0.06790
  Beta virt. eigenvalues --    0.14806   0.16842   0.17021   0.20283   0.22919
  Beta virt. eigenvalues --    0.23251   0.24275   0.33029   0.40737   0.41639

 Mulliken charges and spin densities:
               1          2
     1  C   -0.302211   0.000000
     2  O   -0.517433  -0.000000
     3  H    0.222950  -0.000000
     4  H    0.193185  -0.000000
     5  H    0.210344  -0.000000
     6  H    0.193165  -0.000000
 Sum of Mulliken charges =  -0.00000   0.00000

 Dipole moment (field-independent basis, Debye):
    X=             -3.6475    Y=             -1.5353    Z=              0.0003  Tot=              3.9574
 Quadrupole moment (field-independent basis, Debye-Ang):
   XX=            -13.3961   YY=            -11.4101   ZZ=            -13.8148
   XY=             -2.1859   XZ=              0.0005   YZ=             -0.0005

 Normal termination of Gaussian 16 at Mon Apr 21 18:41:38 2025.
