 Gaussian 16, Revision A.03,
 Gaussian 16:  ES64L-G16RevA.03 25-Dec-2016

 ---------------------------------------------------
 #p UM062X/6-311+G** force int=superfine pop=saveNBO
 ---------------------------------------------------

 -------------------
 Title Card Required
 -------------------
 Symbolic Z-matrix:
 Charge =  0 Multiplicity = 1

                         Standard orientation:
 ---------------------------------------------------------------------
 Center     Atomic      Atomic             Coordinates (Angstroms)
 Number     Number       Type             X           Y           Z
 ---------------------------------------------------------------------
      1          8           0        0.000000    0.000000   -1.626757
      2         16           0        0.000000    0.000000    0.813379
 ---------------------------------------------------------------------

 SCF Done:  E(UM062X) =  -473.067192092     A.U. after   17 cycles

 Unable to determine electronic state:  an orbital has unidentified symmetry.
 Alpha  occ. eigenvalues --  -90.03570 -19.75767  -8.39068  -6.31110  -6.31103
 Alpha  occ. eigenvalues --   -6.30191  -1.04873  -0.80995  -0.43209  -0.42246
 Alpha  occ. eigenvalues --   -0.37453  -0.37045
 Alpha virt. eigenvalues --   -0.23184  -0.17273   0.02638   0.04728   0.05229
 Alpha virt. eigenvalues --    0.05621   0.18082   0.20015   0.20286   0.26560
 Alpha virt. eigenvalues --    0.32720   0.33641   0.34059   0.59120   0.74250

  Beta  occ. eigenvalues --  -90.03570 -19.75767  -8.39068  -6.31110  -6.31103
  Beta  occ. eigenvalues --   -6.30191  -1.04873  -0.80995  -0.43209  -0.42246
  Beta  occ. eigenvalues --   -0.37453  -0.37045
  Beta virt. eigenvalues --   -0.23184  -0.17273   0.02638   0.04728   0.05229
  Beta virt. eigenvalues --    0.05621   0.18082   0.20015   0.20286   0.26560
  Beta virt. eigenvalues --    0.32720   0.33641   0.34059   0.59120   0.74250

 Mulliken charges and spin densities:
               1          2
     1  O   -0.226794   0.000000
     2  S    0.226794  -0.000000
 Sum of Mulliken charges =  -0.00000   0.00000

 Dipole moment (field-independent basis, Debye):
    X=              0.0000    Y=              0.0000    Z=              2.6509  Tot=              2.6509
 Quadrupole moment (field-independent basis, Debye-Ang):
   XX=            -20.6646   YY=            -17.2489   ZZ=            -18.3326
   XY=              0.0000   XZ=              0.0000   YZ=              0.0000

 Summary of Natural Population Analysis:

                                       Natural Population
                Natural  -----------------------------------------------
    Atom  No    Charge         Core      Valence    Rydberg      Total
 -----------------------------------------------------------------------
      O    1   -0.15172      1.00000     3.15054    0.00119     4.15172
      S    2    0.15172      4.99999     2.84657    0.00172     7.84828
 =======================================================================
   * Total *   -0.00000      5.99999     5.99710    0.00291    12.00000

 Normal termination of Gaussian 16 at Mon Apr 21 19:59:52 2025.
