 Gaussian 16, Revision A.03,
 Gaussian 16:  ES64L-G16RevA.03 25-Dec-2016

 --------------------------------------------
 #p opt UM062X/6-311+G** nosymm int=superfine
 --------------------------------------------

 -------------------
 Title Card Required
 -------------------
 Symbolic Z-matrix:
 Charge =  0 Multiplicity = 1

 SCF Done:  E(UM062X) =  -437.176878812     A.U. after   17 cycles
 SCF Done:  E(UM062X) =  -437.178080149     A.U. after   14 cycles
 SCF Done:  E(UM062X) =  -437.178502337     A.U. after   14 cycles
 SCF Done:  E(UM062X) =  -437.178502153     A.U. after   14 cycles
 SCF Done:  E(UM062X) =  -437.178502510     A.U. after   11 cycles
 SCF Done:  E(UM062X) =  -437.178502612     A.U. after   13 cycles
 Optimization completed.
    -- Stationary point found.

                          Input orientation:
 ---------------------------------------------------------------------
 Center     Atomic      Atomic             Coordinates (Angstroms)
 Number     Number       Type             X           Y           Z
 ---------------------------------------------------------------------
      1          6           0       -1.652140    0.000000    0.000000
      2         16           0        1.652140    0.000000    0.000000
      3          1           0       -2.305623   -0.886295    0.000066
      4          1           0       -2.306411    0.885714   -0.000067
 ---------------------------------------------------------------------

 Alpha  occ. eigenvalues --  -89.92190 -10.66009  -8.28189  -6.20915  -6.19437
 Alpha  occ. eigenvalues --   -6.19428  -0.79524  -0.72435  -0.52534  -0.35427
 Alpha  occ. eigenvalues --   -0.29904  -0.29878
 Alpha virt. eigenvalues --   -0.14277  -0.11810   0.00800   0.05275   0.05419
 Alpha virt. eigenvalues --    0.06633   0.08383   0.08886   0.09312   0.14148
 Alpha virt. eigenvalues --    0.16739   0.17309   0.36439   0.37199   0.37221

  Beta  occ. eigenvalues --  -89.92190 -10.66009  -8.28189  -6.20915  -6.19437
  Beta  occ. eigenvalues --   -6.19428  -0.79524  -0.72435  -0.52534  -0.35427
  Beta  occ. eigenvalues --   -0.29904  -0.29878
  Beta virt. eigenvalues --   -0.14277  -0.11810   0.00800   0.05275   0.05419
  Beta virt. eigenvalues --    0.06633   0.08383   0.08886   0.09312   0.14148
  Beta virt. eigenvalues --    0.16739   0.17309   0.36439   0.37199   0.37221

 Mulliken charges and spin densities:
               1          2
     1  C   -0.261151   0.000000
     2  S   -0.070304  -0.000000
     3  H    0.165722  -0.000000
     4  H    0.165732   0.000000
 Sum of Mulliken charges =  -0.00000   0.00000

 Dipole moment (field-independent basis, Debye):
    X=             -3.8355    Y=             -0.0008    Z=             -0.0000  Tot=              3.8355
 Quadrupole moment (field-independent basis, Debye-Ang):
   XX=            -11.9183   YY=            -22.2782   ZZ=            -21.9789
   XY=             -0.0000   XZ=             -0.0000   YZ=              0.0000

 Normal termination of Gaussian 16 at Mon Apr 21 19:45:15 2025.
