 Gaussian 16, Revision A.03,
 Gaussian 16:  ES64L-G16RevA.03 25-Dec-2016

 --------------------------------------------
 #p opt UM062X/6-311+G** nosymm int=superfine
 --------------------------------------------

 -------------------
 Title Card Required
 -------------------
 Symbolic Z-matrix:
 Charge =  1 Multiplicity = 2

 SCF Done:  E(UM062X) =  -76.7000864386     A.U. after   11 cycles
 SCF Done:  E(UM062X) =  -76.7364744103     A.U. after   10 cycles
 SCF Done:  E(UM062X) =  -76.7715854997     A.U. after   11 cycles
 SCF Done:  E(UM062X) =  -76.7718054995     A.U. after   15 cycles
 Optimization completed.
    -- Stationary point found.

                          Input orientation:
 ---------------------------------------------------------------------
 Center     Atomic      Atomic             Coordinates (Angstroms)
 Number     Number       Type             X           Y           Z
 ---------------------------------------------------------------------
      1          6           0       -0.807745    0.000000    0.000000
      2          6           0        0.807745    0.000000    0.000000
      3          1           0       -1.901316   -0.000000    0.000000
      4          1           0        1.901322   -0.000000    0.000000
 ---------------------------------------------------------------------

 Alpha  occ. eigenvalues --  -10.99306 -10.99263  -1.11729  -0.98955  -0.85394
 Alpha  occ. eigenvalues --   -0.64759  -0.62584
 Alpha virt. eigenvalues --   -0.35173  -0.33171  -0.25046  -0.14240  -0.10889
 Alpha virt. eigenvalues --   -0.10754  -0.09245  -0.09005  -0.05276  -0.04947
 Alpha virt. eigenvalues --    0.01641   0.03957   0.08486   0.22018   0.31434

  Beta  occ. eigenvalues --  -10.99061 -10.99030  -1.07715  -0.97221  -0.84614
  Beta  occ. eigenvalues --   -0.60531
  Beta virt. eigenvalues --   -0.41506  -0.31460  -0.27237  -0.22920  -0.15317
  Beta virt. eigenvalues --   -0.11169  -0.11149  -0.09611  -0.09424  -0.05162
  Beta virt. eigenvalues --   -0.04830   0.00835   0.04069   0.08882   0.22831

 Mulliken charges and spin densities:
               1          2
     1  C    0.144392   0.521326
     2  C    0.144393   0.521330
     3  H    0.355606  -0.021328
     4  H    0.355609  -0.021328
 Sum of Mulliken charges =   1.00000   1.00000

 Dipole moment (field-independent basis, Debye):
    X=              0.0000    Y=             -0.0000    Z=              0.0000  Tot=              0.0000
 Quadrupole moment (field-independent basis, Debye-Ang):
   XX=              2.4626   YY=            -12.5240   ZZ=            -10.5786
   XY=              0.0000   XZ=              0.0000   YZ=              0.3202

 Normal termination of Gaussian 16 at Tue Nov 19 13:12:53 2024.
