 Gaussian 16, Revision A.03,
 Gaussian 16:  ES64L-G16RevA.03 25-Dec-2016

 --------------------------------------------
 #p opt UM062X/6-311+G** nosymm int=superfine
 --------------------------------------------

 -------------------
 Title Card Required
 -------------------
 Symbolic Z-matrix:
 Charge =  0 Multiplicity = 1

 SCF Done:  E(UM062X) =  -474.536798974     A.U. after   12 cycles
 SCF Done:  E(UM062X) =  -474.538836091     A.U. after   12 cycles
 SCF Done:  E(UM062X) =  -474.538660944     A.U. after   14 cycles
 SCF Done:  E(UM062X) =  -474.538994146     A.U. after   11 cycles
 SCF Done:  E(UM062X) =  -474.538994300     A.U. after    8 cycles
 Optimization completed.
    -- Stationary point found.

                          Input orientation:
 ---------------------------------------------------------------------
 Center     Atomic      Atomic             Coordinates (Angstroms)
 Number     Number       Type             X           Y           Z
 ---------------------------------------------------------------------
      1          8           0       -0.989392    0.000000    0.000000
      2         16           0        0.989392    0.000000    0.000000
      3          1           0       -1.155898   -0.949253   -0.050881
      4          1           0        1.037256    0.205378    1.326531
 ---------------------------------------------------------------------

 Alpha  occ. eigenvalues --  -89.95832 -19.66836  -8.31918  -6.24145  -6.23772
 Alpha  occ. eigenvalues --   -6.23255  -1.11695  -0.82164  -0.55311  -0.50040
 Alpha  occ. eigenvalues --   -0.44123  -0.39646  -0.33326
 Alpha virt. eigenvalues --   -0.06778   0.01485   0.04291   0.05080   0.06265
 Alpha virt. eigenvalues --    0.08179   0.15947   0.19062   0.20054   0.22427
 Alpha virt. eigenvalues --    0.28192   0.31911   0.33715   0.35138   0.41036

  Beta  occ. eigenvalues --  -89.95832 -19.66836  -8.31918  -6.24145  -6.23772
  Beta  occ. eigenvalues --   -6.23255  -1.11695  -0.82164  -0.55311  -0.50040
  Beta  occ. eigenvalues --   -0.44123  -0.39646  -0.33326
  Beta virt. eigenvalues --   -0.06778   0.01485   0.04291   0.05080   0.06265
  Beta virt. eigenvalues --    0.08179   0.15947   0.19062   0.20054   0.22427
  Beta virt. eigenvalues --    0.28192   0.31911   0.33715   0.35138   0.41036

 Mulliken charges and spin densities:
               1          2
     1  O   -0.433885   0.000000
     2  S    0.078342   0.000000
     3  H    0.264598  -0.000000
     4  H    0.090946   0.000000
 Sum of Mulliken charges =   0.00000   0.00000

 Dipole moment (field-independent basis, Debye):
    X=              1.1324    Y=             -1.4765    Z=              0.9952  Tot=              2.1101
 Quadrupole moment (field-independent basis, Debye-Ang):
   XX=            -18.7883   YY=            -19.7330   ZZ=            -18.4026
   XY=              2.6651   XZ=              1.5848   YZ=              0.7528

 Normal termination of Gaussian 16 at Thu May 15 12:52:56 2025.
