 Gaussian 16, Revision A.03,
 Gaussian 16:  ES64L-G16RevA.03 25-Dec-2016

 --------------------------------------------
 #p opt UM062X/6-311+G** nosymm int=superfine
 --------------------------------------------

 -------------------
 Title Card Required
 -------------------
 Symbolic Z-matrix:
 Charge =  0 Multiplicity = 1

 SCF Done:  E(UM062X) =  -581.271748308     A.U. after    9 cycles
 SCF Done:  E(UM062X) =  -581.271753272     A.U. after    6 cycles
 SCF Done:  E(UM062X) =  -581.271754611     A.U. after    6 cycles
 Optimization completed.
    -- Stationary point found.

                          Input orientation:
 ---------------------------------------------------------------------
 Center     Atomic      Atomic             Coordinates (Angstroms)
 Number     Number       Type             X           Y           Z
 ---------------------------------------------------------------------
      1         14           0       -1.087518    0.000000    0.000000
      2         14           0        1.087518    0.000000    0.000000
      3          1           0       -1.863861   -1.251015    0.000435
      4          1           0        1.863861    1.251015   -0.000351
      5          1           0       -1.863861    1.251015   -0.000426
      6          1           0        1.863861   -1.251015    0.000360
 ---------------------------------------------------------------------

 Alpha  occ. eigenvalues --  -67.00259 -67.00259  -5.55440  -5.55421  -3.86628
 Alpha  occ. eigenvalues --   -3.86613  -3.86540  -3.86444  -3.86431  -3.86424
 Alpha  occ. eigenvalues --   -0.63751  -0.55914  -0.43907  -0.41402  -0.37980
 Alpha  occ. eigenvalues --   -0.24578
 Alpha virt. eigenvalues --   -0.04301   0.01160   0.02249   0.03019   0.03624
 Alpha virt. eigenvalues --    0.04799   0.04863   0.05812   0.06803   0.07352
 Alpha virt. eigenvalues --    0.07663   0.09234   0.13483   0.23691   0.25520

  Beta  occ. eigenvalues --  -67.00259 -67.00259  -5.55440  -5.55421  -3.86628
  Beta  occ. eigenvalues --   -3.86613  -3.86540  -3.86444  -3.86431  -3.86424
  Beta  occ. eigenvalues --   -0.63751  -0.55914  -0.43907  -0.41402  -0.37980
  Beta  occ. eigenvalues --   -0.24578
  Beta virt. eigenvalues --   -0.04301   0.01160   0.02249   0.03019   0.03624
  Beta virt. eigenvalues --    0.04799   0.04863   0.05812   0.06803   0.07352
  Beta virt. eigenvalues --    0.07663   0.09234   0.13483   0.23691   0.25520

 Mulliken charges and spin densities:
               1          2
     1  Si   0.132656  -0.000000
     2  Si   0.132656   0.000000
     3  H   -0.066328   0.000000
     4  H   -0.066328  -0.000000
     5  H   -0.066328  -0.000000
     6  H   -0.066328   0.000000
 Sum of Mulliken charges =  -0.00000   0.00000

 Dipole moment (field-independent basis, Debye):
    X=              0.0000    Y=              0.0000    Z=             -0.0000  Tot=              0.0000
 Quadrupole moment (field-independent basis, Debye-Ang):
   XX=            -27.5141   YY=            -29.1395   ZZ=            -32.1587
   XY=              0.0000   XZ=              0.0000   YZ=             -0.0009

 Normal termination of Gaussian 16 at Mon Apr 21 20:28:44 2025.
