 Gaussian 16, Revision A.03,
 Gaussian 16:  ES64L-G16RevA.03 25-Dec-2016

 ---------------------------------------
 #p UM062X/6-311+G** force int=superfine
 ---------------------------------------

 -------------------
 Title Card Required
 -------------------
 Symbolic Z-matrix:
 Charge =  1 Multiplicity = 2

                         Standard orientation:
 ---------------------------------------------------------------------
 Center     Atomic      Atomic             Coordinates (Angstroms)
 Number     Number       Type             X           Y           Z
 ---------------------------------------------------------------------
      1          6           0       -0.798794    0.000012   -0.016902
      2          6           0        0.798719    0.000028    0.016956
      3          1           0        1.264698    0.920977   -0.319013
      4          1           0       -1.264874    0.920548    0.320093
      5          1           0        1.265553   -0.919804   -0.321057
      6          1           0        0.637018   -0.001685    1.143979
      7          1           0       -1.265488   -0.920396    0.319540
      8          1           0       -0.636453    0.000121   -1.143869
 ---------------------------------------------------------------------

 SCF Done:  E(UM062X) =  -79.3719058963     A.U. after   11 cycles

 The electronic state is 2-A.
 Alpha  occ. eigenvalues --  -10.85451 -10.85422  -1.17276  -0.99236  -0.82816
 Alpha  occ. eigenvalues --   -0.80445  -0.75316  -0.71379  -0.64473
 Alpha virt. eigenvalues --   -0.17378  -0.13181  -0.12073  -0.11679  -0.10536
 Alpha virt. eigenvalues --   -0.07672  -0.06472  -0.06443  -0.05711  -0.01933
 Alpha virt. eigenvalues --   -0.00369  -0.00309   0.02587   0.03554   0.03851

  Beta  occ. eigenvalues --  -10.85214 -10.85188  -1.14309  -0.96269  -0.79614
  Beta  occ. eigenvalues --   -0.77986  -0.73773  -0.70806
  Beta virt. eigenvalues --   -0.42332  -0.17051  -0.13162  -0.11537  -0.11516
  Beta virt. eigenvalues --   -0.10159  -0.07763  -0.06531  -0.05474  -0.03988
  Beta virt. eigenvalues --   -0.01555   0.00096   0.00190   0.03290   0.04253

 Mulliken charges and spin densities:
               1          2
     1  C   -0.355954   0.390345
     2  C   -0.356224   0.389966
     3  H    0.276609  -0.017583
     4  H    0.276645  -0.017596
     5  H    0.276628  -0.017550
     6  H    0.302829   0.144996
     7  H    0.276631  -0.017575
     8  H    0.302837   0.144997
 Sum of Mulliken charges =   1.00000   1.00000

 Dipole moment (field-independent basis, Debye):
    X=             -0.0002    Y=             -0.0008    Z=             -0.0003  Tot=              0.0009
 Quadrupole moment (field-independent basis, Debye-Ang):
   XX=             -8.0780   YY=            -10.8607   ZZ=            -10.0550
   XY=             -0.0004   XZ=              0.2191   YZ=             -0.0010

 Normal termination of Gaussian 16 at Tue Nov 19 08:43:18 2024.
