 Gaussian 16, Revision A.03,
 Gaussian 16:  ES64L-G16RevA.03 25-Dec-2016

 --------------------------------------------
 #p opt UM062X/6-311+G** nosymm int=superfine
 --------------------------------------------

 -------------------
 Title Card Required
 -------------------
 Symbolic Z-matrix:
 Charge =  0 Multiplicity = 1

 SCF Done:  E(UM062X) =  -110.353541763     A.U. after   11 cycles
 SCF Done:  E(UM062X) =  -110.366705416     A.U. after   12 cycles
 SCF Done:  E(UM062X) =  -110.368932825     A.U. after   12 cycles
 SCF Done:  E(UM062X) =  -110.368934379     A.U. after    8 cycles
 Optimization completed.
    -- Stationary point found.

                          Input orientation:
 ---------------------------------------------------------------------
 Center     Atomic      Atomic             Coordinates (Angstroms)
 Number     Number       Type             X           Y           Z
 ---------------------------------------------------------------------
      1          7           0       -1.065428    0.000000    0.000000
      2          7           0        1.065428    0.000000    0.000000
      3          1           0       -1.017641   -1.033326   -0.000000
      4          1           0        1.017641    1.033326   -0.000000
 ---------------------------------------------------------------------

 Alpha  occ. eigenvalues --  -14.88169 -14.88160  -0.95622  -0.88836  -0.50150
 Alpha  occ. eigenvalues --   -0.47231  -0.38220  -0.33939
 Alpha virt. eigenvalues --   -0.16455  -0.08842   0.05763   0.07952   0.10799
 Alpha virt. eigenvalues --    0.12333   0.13145   0.14900   0.16201   0.19028
 Alpha virt. eigenvalues --    0.20761   0.25409   0.53582   0.56620   0.75743

  Beta  occ. eigenvalues --  -14.88169 -14.88160  -0.95622  -0.88836  -0.50150
  Beta  occ. eigenvalues --   -0.47231  -0.38220  -0.33939
  Beta virt. eigenvalues --   -0.16455  -0.08842   0.05763   0.07952   0.10799
  Beta virt. eigenvalues --    0.12333   0.13145   0.14900   0.16201   0.19028
  Beta virt. eigenvalues --    0.20761   0.25409   0.53582   0.56620   0.75743

 Mulliken charges and spin densities:
               1          2
     1  N   -0.248978  -0.000000
     2  N   -0.248978   0.000000
     3  H    0.248978   0.000000
     4  H    0.248978  -0.000000
 Sum of Mulliken charges =  -0.00000  -0.00000

 Dipole moment (field-independent basis, Debye):
    X=             -0.0000    Y=             -0.0000    Z=             -0.0000  Tot=              0.0000
 Quadrupole moment (field-independent basis, Debye-Ang):
   XX=            -13.6657   YY=            -10.7856   ZZ=            -13.9586
   XY=              4.0400   XZ=             -0.0000   YZ=              0.0000

 Normal termination of Gaussian 16 at Thu May 15 15:35:08 2025.
