 Gaussian 16, Revision A.03,
 Gaussian 16:  ES64L-G16RevA.03 25-Dec-2016

 ---------------------------------------
 #p UM062X/6-311+G** force int=superfine
 ---------------------------------------

 -------------------
 Title Card Required
 -------------------
 Symbolic Z-matrix:
 Charge =  0 Multiplicity = 1

                         Standard orientation:
 ---------------------------------------------------------------------
 Center     Atomic      Atomic             Coordinates (Angstroms)
 Number     Number       Type             X           Y           Z
 ---------------------------------------------------------------------
      1          6           0       -0.930413   -0.002317    0.046446
      2          6           0        0.930414    0.002316   -0.046446
      3          1           0        1.208654   -0.516720   -0.959546
      4          1           0       -1.298262    0.514743   -0.835545
      5          1           0        1.298262   -0.514743    0.835544
      6          1           0        1.249518    1.040801   -0.063518
      7          1           0       -1.208655    0.516720    0.959547
      8          1           0       -1.249520   -1.040800    0.063518
 ---------------------------------------------------------------------

 SCF Done:  E(UM062X) =  -79.7647370916     A.U. after    8 cycles

 The electronic state is 1-A.
 Alpha  occ. eigenvalues --  -10.53929 -10.53916  -0.80293  -0.71820  -0.48712
 Alpha  occ. eigenvalues --   -0.48712  -0.43274  -0.43274  -0.35898
 Alpha virt. eigenvalues --    0.02273   0.03433   0.05637   0.05637   0.08583
 Alpha virt. eigenvalues --    0.08583   0.09294   0.13215   0.16188   0.18309
 Alpha virt. eigenvalues --    0.18309   0.21858   0.21858   0.24251   0.27359

  Beta  occ. eigenvalues --  -10.53929 -10.53916  -0.80293  -0.71820  -0.48712
  Beta  occ. eigenvalues --   -0.48712  -0.43274  -0.43274  -0.35898
  Beta virt. eigenvalues --    0.02273   0.03433   0.05637   0.05637   0.08583
  Beta virt. eigenvalues --    0.08583   0.09294   0.13215   0.16188   0.18309
  Beta virt. eigenvalues --    0.18309   0.21858   0.21858   0.24251   0.27359

 Mulliken charges and spin densities:
               1          2
     1  C   -0.491341  -0.000000
     2  C   -0.491341  -0.000000
     3  H    0.163781   0.000000
     4  H    0.163780  -0.000000
     5  H    0.163780   0.000000
     6  H    0.163780   0.000000
     7  H    0.163781   0.000000
     8  H    0.163780  -0.000000
 Sum of Mulliken charges =  -0.00000   0.00000

 Dipole moment (field-independent basis, Debye):
    X=              0.0000    Y=             -0.0000    Z=             -0.0000  Tot=              0.0000
 Quadrupole moment (field-independent basis, Debye-Ang):
   XX=            -15.6030   YY=            -14.9164   ZZ=            -14.9182
   XY=             -0.0017   XZ=              0.0343   YZ=              0.0001

 Normal termination of Gaussian 16 at Tue Nov 19 12:48:28 2024.
