 Gaussian 16, Revision A.03,
 Gaussian 16:  ES64L-G16RevA.03 25-Dec-2016

 --------------------------------------------
 #p opt UM062X/6-311+G** nosymm int=superfine
 --------------------------------------------

 -------------------
 Title Card Required
 -------------------
 Symbolic Z-matrix:
 Charge =  0 Multiplicity = 1

 SCF Done:  E(UM062X) =  -78.3426145328     A.U. after    8 cycles

 Alpha  occ. eigenvalues --  -10.61586 -10.61574  -0.77018  -0.72016  -0.53075
 Alpha  occ. eigenvalues --   -0.50530  -0.36473  -0.25521
 Alpha virt. eigenvalues --   -0.07518   0.00426   0.03363   0.05377   0.07245
 Alpha virt. eigenvalues --    0.07650   0.09212   0.09944   0.11323   0.15154
 Alpha virt. eigenvalues --    0.16394   0.20193   0.21354   0.27886   0.39432

  Beta  occ. eigenvalues --  -10.61586 -10.61574  -0.77018  -0.72016  -0.53075
  Beta  occ. eigenvalues --   -0.50530  -0.36473  -0.25521
  Beta virt. eigenvalues --   -0.07518   0.00426   0.03363   0.05377   0.07245
  Beta virt. eigenvalues --    0.07650   0.09212   0.09944   0.11323   0.15154
  Beta virt. eigenvalues --    0.16394   0.20193   0.21354   0.27886   0.39432

 Mulliken charges and spin densities:
               1          2
     1  C   -0.366432   0.000000
     2  C   -0.366432  -0.000000
     3  H    0.183219  -0.000000
     4  H    0.183213   0.000000
     5  H    0.183219  -0.000000
     6  H    0.183213   0.000000
 Sum of Mulliken charges =  -0.00000  -0.00000

 Dipole moment (field-independent basis, Debye):
    X=              0.0000    Y=              0.0000    Z=              0.0000  Tot=              0.0000
 Quadrupole moment (field-independent basis, Debye-Ang):
   XX=            -11.0333   YY=            -12.0455   ZZ=            -18.3826
   XY=              0.0003   XZ=             -0.0000   YZ=             -0.0000

 Optimization completed.
    -- Stationary point found.

                          Input orientation:
 ---------------------------------------------------------------------
 Center     Atomic      Atomic             Coordinates (Angstroms)
 Number     Number       Type             X           Y           Z
 ---------------------------------------------------------------------
      1          6           0       -1.060595    0.000000    0.000000
      2          6           0        1.060595    0.000000    0.000000
      3          1           0       -1.512265   -0.978710    0.000000
      4          1           0       -1.512181    0.978605    0.000000
      5          1           0        1.512265    0.978710    0.000000
      6          1           0        1.512181   -0.978605    0.000000
 ---------------------------------------------------------------------

 Normal termination of Gaussian 16 at Tue Dec  3 11:04:01 2024.
