 Gaussian 16, Revision A.03,
 Gaussian 16:  ES64L-G16RevA.03 25-Dec-2016

 --------------------------------------------
 #p opt UM062X/6-311+G** nosymm int=superfine
 --------------------------------------------

 -------------------
 Title Card Required
 -------------------
 Symbolic Z-matrix:
 Charge =  1 Multiplicity = 2

 SCF Done:  E(UM062X) =  -76.7226611051     A.U. after    9 cycles
 SCF Done:  E(UM062X) =  -76.7778840902     A.U. after   10 cycles
 SCF Done:  E(UM062X) =  -76.7844922677     A.U. after    9 cycles
 SCF Done:  E(UM062X) =  -76.7845290779     A.U. after    8 cycles
 Optimization completed.
    -- Stationary point found.

                          Input orientation:
 ---------------------------------------------------------------------
 Center     Atomic      Atomic             Coordinates (Angstroms)
 Number     Number       Type             X           Y           Z
 ---------------------------------------------------------------------
      1          6           0       -0.515714    0.000000    0.000000
      2          6           0        0.515714    0.000000    0.000000
      3          1           0       -1.590364    0.000000   -0.000000
      4          1           0        1.590363    0.000000   -0.000000
 ---------------------------------------------------------------------

 Alpha  occ. eigenvalues --  -10.90964 -10.89893  -1.30614  -0.95555  -0.91064
 Alpha  occ. eigenvalues --   -0.80238  -0.76931
 Alpha virt. eigenvalues --   -0.21068  -0.19234  -0.14681  -0.14013  -0.11917
 Alpha virt. eigenvalues --   -0.11211  -0.10893  -0.03842  -0.03203  -0.02917
 Alpha virt. eigenvalues --    0.02410   0.04375   0.17255   0.20005   0.26438

  Beta  occ. eigenvalues --  -10.90643 -10.89623  -1.24977  -0.94026  -0.90303
  Beta  occ. eigenvalues --   -0.74305
  Beta virt. eigenvalues --   -0.50688  -0.17984  -0.16428  -0.15603  -0.13556
  Beta virt. eigenvalues --   -0.11880  -0.11400  -0.11002  -0.02784  -0.02392
  Beta virt. eigenvalues --   -0.01835   0.02545   0.04765   0.17900   0.20405

 Mulliken charges and spin densities:
               1          2
     1  C    0.227564   0.520266
     2  C    0.227565   0.520266
     3  H    0.272436  -0.020266
     4  H    0.272435  -0.020266
 Sum of Mulliken charges =   1.00000   1.00000

 Dipole moment (field-independent basis, Debye):
    X=             -0.0000    Y=              0.0000    Z=             -0.0000  Tot=              0.0000
 Quadrupole moment (field-independent basis, Debye-Ang):
   XX=             -1.8558   YY=             -9.6193   ZZ=             -9.9461
   XY=              0.0000   XZ=             -0.0000   YZ=              0.7828

 Normal termination of Gaussian 16 at Tue Nov 19 12:54:26 2024.
