 Gaussian 16, Revision A.03,
 Gaussian 16:  ES64L-G16RevA.03 25-Dec-2016

 ---------------------------------------------------
 #p UM062X/6-311+G** force int=superfine pop=saveNBO
 ---------------------------------------------------

 -------------------
 Title Card Required
 -------------------
 Symbolic Z-matrix:
 Charge =  0 Multiplicity = 1

                         Standard orientation:
 ---------------------------------------------------------------------
 Center     Atomic      Atomic             Coordinates (Angstroms)
 Number     Number       Type             X           Y           Z
 ---------------------------------------------------------------------
      1          8           0        0.000000    0.000000   -1.026757
      2         16           0        0.000000    0.000000    0.513379
 ---------------------------------------------------------------------

 SCF Done:  E(UM062X) =  -473.291807650     A.U. after   11 cycles

 Unable to determine electronic state:  an orbital has unidentified symmetry.
 Alpha  occ. eigenvalues --  -90.00311 -19.70864  -8.36325  -6.28501  -6.28341
 Alpha  occ. eigenvalues --   -6.27486  -1.18381  -0.75823  -0.51572  -0.50307
 Alpha  occ. eigenvalues --   -0.48483  -0.29743
 Alpha virt. eigenvalues --   -0.14328   0.01101   0.02205   0.04489   0.05290
 Alpha virt. eigenvalues --    0.10564   0.19469   0.21108   0.21630   0.27247
 Alpha virt. eigenvalues --    0.32668   0.33614   0.37509   0.69226   0.75750

  Beta  occ. eigenvalues --  -90.00311 -19.70864  -8.36325  -6.28501  -6.28341
  Beta  occ. eigenvalues --   -6.27486  -1.18381  -0.75823  -0.51572  -0.50307
  Beta  occ. eigenvalues --   -0.48483  -0.29743
  Beta virt. eigenvalues --   -0.14328   0.01101   0.02205   0.04489   0.05290
  Beta virt. eigenvalues --    0.10564   0.19469   0.21108   0.21630   0.27247
  Beta virt. eigenvalues --    0.32668   0.33614   0.37509   0.69226   0.75750

 Mulliken charges and spin densities:
               1          2
     1  O   -0.230569  -0.000000
     2  S    0.230569   0.000000
 Sum of Mulliken charges =  -0.00000   0.00000

 Dipole moment (field-independent basis, Debye):
    X=              0.0000    Y=              0.0000    Z=              1.9499  Tot=              1.9499
 Quadrupole moment (field-independent basis, Debye-Ang):
   XX=            -20.0122   YY=            -15.8766   ZZ=            -18.9450
   XY=              0.0000   XZ=              0.0000   YZ=              0.0000

 Summary of Natural Population Analysis:

                                       Natural Population
                Natural  -----------------------------------------------
    Atom  No    Charge         Core      Valence    Rydberg      Total
 -----------------------------------------------------------------------
      O    1   -0.29503      0.99996     3.28887    0.00621     4.29503
      S    2    0.29503      4.99978     2.66427    0.04091     7.70497
 =======================================================================
   * Total *   -0.00000      5.99974     5.95314    0.04712    12.00000

 Normal termination of Gaussian 16 at Mon Apr 21 19:59:42 2025.
