 Gaussian 16, Revision A.03,
 Gaussian 16:  ES64L-G16RevA.03 25-Dec-2016

 --------------------------------------------
 #p opt UM062X/6-311+G** nosymm int=superfine
 --------------------------------------------

 -------------------
 Title Card Required
 -------------------
 Symbolic Z-matrix:
 Charge =  1 Multiplicity = 2

 SCF Done:  E(UM062X) =  -92.6536860610     A.U. after   51 cycles
 SCF Done:  E(UM062X) =  -92.6540446098     A.U. after   53 cycles
 SCF Done:  E(UM062X) =  -92.6540477703     A.U. after   36 cycles
 Optimization completed.
    -- Stationary point found.

                          Input orientation:
 ---------------------------------------------------------------------
 Center     Atomic      Atomic             Coordinates (Angstroms)
 Number     Number       Type             X           Y           Z
 ---------------------------------------------------------------------
      1          6           0       -1.351540    0.000000    0.000000
      2          7           0        1.351540    0.000000    0.000000
      3          1           0       -2.471636    0.000000   -0.000000
 ---------------------------------------------------------------------

 Alpha  occ. eigenvalues --  -15.14495 -11.01901  -1.17206  -0.99473  -0.69082
 Alpha  occ. eigenvalues --   -0.69052  -0.66332
 Alpha virt. eigenvalues --   -0.45778  -0.37100  -0.33373  -0.15571  -0.10203
 Alpha virt. eigenvalues --   -0.09270  -0.08291  -0.04315  -0.01742  -0.01547
 Alpha virt. eigenvalues --    0.00813   0.08404   0.23874   0.30439   0.30497

  Beta  occ. eigenvalues --  -15.10733 -11.04360  -1.08586  -0.95905  -0.78107
  Beta  occ. eigenvalues --   -0.67085
  Beta virt. eigenvalues --   -0.42814  -0.30367  -0.29729  -0.29701  -0.15482
  Beta virt. eigenvalues --   -0.11482  -0.09326  -0.09203  -0.06297  -0.00151
  Beta virt. eigenvalues --   -0.00048   0.00121   0.05330   0.23381   0.29755

 Mulliken charges and spin densities:
               1          2
     1  C    0.343201  -1.599779
     2  N    0.296795   2.698637
     3  H    0.360004  -0.098858
 Sum of Mulliken charges =   1.00000   1.00000

 Dipole moment (field-independent basis, Debye):
    X=             -4.5830    Y=              0.0000    Z=             -0.0000  Tot=              4.5830
 Quadrupole moment (field-independent basis, Debye-Ang):
   XX=              6.2511   YY=             -9.7654   ZZ=            -10.2772
   XY=             -0.0000   XZ=              0.0000   YZ=              0.7746

 Normal termination of Gaussian 16 at Mon Apr 21 21:04:05 2025.
