 Gaussian 16, Revision A.03,
 Gaussian 16:  ES64L-G16RevA.03 25-Dec-2016

 --------------------------------------------
 #p opt UM062X/6-311+G** nosymm int=superfine
 --------------------------------------------

 -------------------
 Title Card Required
 -------------------
 Symbolic Z-matrix:
 Charge =  0 Multiplicity = 1

 SCF Done:  E(UM062X) =  -111.813927212     A.U. after   12 cycles
 SCF Done:  E(UM062X) =  -111.822862520     A.U. after   12 cycles
 SCF Done:  E(UM062X) =  -111.823467756     A.U. after   10 cycles
 SCF Done:  E(UM062X) =  -111.823786683     A.U. after   12 cycles
 SCF Done:  E(UM062X) =  -111.824032034     A.U. after   12 cycles
 SCF Done:  E(UM062X) =  -111.801280064     A.U. after   13 cycles
 SCF Done:  E(UM062X) =  -111.824339856     A.U. after   12 cycles
 SCF Done:  E(UM062X) =  -111.824096010     A.U. after   11 cycles
 SCF Done:  E(UM062X) =  -111.824318377     A.U. after   11 cycles
 SCF Done:  E(UM062X) =  -111.824484572     A.U. after    7 cycles
 SCF Done:  E(UM062X) =  -111.824537288     A.U. after   10 cycles
 SCF Done:  E(UM062X) =  -111.824547802     A.U. after    9 cycles
 SCF Done:  E(UM062X) =  -111.824547937     A.U. after    7 cycles
 Optimization completed.
    -- Stationary point found.

                          Input orientation:
 ---------------------------------------------------------------------
 Center     Atomic      Atomic             Coordinates (Angstroms)
 Number     Number       Type             X           Y           Z
 ---------------------------------------------------------------------
      1          7           0       -0.861540    0.000000    0.000000
      2          7           0        0.861540    0.000000    0.000000
      3          1           0       -1.015109   -0.798495   -0.615519
      4          1           0        1.015099    0.388944   -0.930148
      5          1           0       -1.015027   -0.389449    0.929955
      6          1           0        1.015047    0.798830    0.615100
 ---------------------------------------------------------------------

 Alpha  occ. eigenvalues --  -14.77270 -14.77258  -1.00613  -0.87988  -0.57590
 Alpha  occ. eigenvalues --   -0.50077  -0.45429  -0.42393  -0.31510
 Alpha virt. eigenvalues --    0.03236   0.04599   0.08772   0.09190   0.13114
 Alpha virt. eigenvalues --    0.13686   0.14462   0.15939   0.16315   0.22264
 Alpha virt. eigenvalues --    0.22929   0.25952   0.28246   0.52337   0.52526

  Beta  occ. eigenvalues --  -14.77270 -14.77258  -1.00613  -0.87988  -0.57590
  Beta  occ. eigenvalues --   -0.50077  -0.45429  -0.42393  -0.31510
  Beta virt. eigenvalues --    0.03236   0.04599   0.08772   0.09190   0.13114
  Beta virt. eigenvalues --    0.13686   0.14462   0.15939   0.16315   0.22264
  Beta virt. eigenvalues --    0.22929   0.25952   0.28246   0.52337   0.52526

 Mulliken charges and spin densities:
               1          2
     1  N   -0.519949   0.000000
     2  N   -0.519952  -0.000000
     3  H    0.259959  -0.000000
     4  H    0.259959   0.000000
     5  H    0.259991  -0.000000
     6  H    0.259991  -0.000000
 Sum of Mulliken charges =  -0.00000   0.00000

 Dipole moment (field-independent basis, Debye):
    X=              0.0000    Y=             -0.0003    Z=             -0.0009  Tot=              0.0010
 Quadrupole moment (field-independent basis, Debye-Ang):
   XX=            -14.9874   YY=            -14.0263   ZZ=            -11.0576
   XY=              4.6904   XZ=             -1.2427   YZ=              0.8460

 Normal termination of Gaussian 16 at Thu May 15 14:24:37 2025.
