 Gaussian 16, Revision A.03,
 Gaussian 16:  ES64L-G16RevA.03 25-Dec-2016

 --------------------------------------------
 #p opt UM062X/6-311+G** nosymm int=superfine
 --------------------------------------------

 -------------------
 Title Card Required
 -------------------
 Symbolic Z-matrix:
 Charge =  0 Multiplicity = 1

 SCF Done:  E(UM062X) =  -110.341009083     A.U. after   11 cycles
 SCF Done:  E(UM062X) =  -110.354050294     A.U. after   12 cycles
 SCF Done:  E(UM062X) =  -110.356551777     A.U. after   12 cycles
 SCF Done:  E(UM062X) =  -110.356553746     A.U. after    8 cycles
 Optimization completed.
    -- Stationary point found.

                          Input orientation:
 ---------------------------------------------------------------------
 Center     Atomic      Atomic             Coordinates (Angstroms)
 Number     Number       Type             X           Y           Z
 ---------------------------------------------------------------------
      1          7           0       -1.090428    0.000000    0.000000
      2          7           0        1.090428    0.000000    0.000000
      3          1           0       -1.030391   -1.033112   -0.000000
      4          1           0        1.030391    1.033112   -0.000000
 ---------------------------------------------------------------------

 Alpha  occ. eigenvalues --  -14.88298 -14.88289  -0.95317  -0.89146  -0.50069
 Alpha  occ. eigenvalues --   -0.47294  -0.37908  -0.33647
 Alpha virt. eigenvalues --   -0.16843  -0.09784   0.05753   0.07911   0.10754
 Alpha virt. eigenvalues --    0.12329   0.13171   0.14878   0.16169   0.19091
 Alpha virt. eigenvalues --    0.20604   0.25263   0.53510   0.56521   0.75689

  Beta  occ. eigenvalues --  -14.88298 -14.88289  -0.95317  -0.89146  -0.50069
  Beta  occ. eigenvalues --   -0.47294  -0.37908  -0.33647
  Beta virt. eigenvalues --   -0.16843  -0.09784   0.05753   0.07911   0.10754
  Beta virt. eigenvalues --    0.12329   0.13171   0.14878   0.16169   0.19091
  Beta virt. eigenvalues --    0.20604   0.25263   0.53510   0.56521   0.75689

 Mulliken charges and spin densities:
               1          2
     1  N   -0.248616   0.000000
     2  N   -0.248616  -0.000000
     3  H    0.248616  -0.000000
     4  H    0.248616   0.000000
 Sum of Mulliken charges =  -0.00000   0.00000

 Dipole moment (field-independent basis, Debye):
    X=             -0.0000    Y=              0.0000    Z=             -0.0000  Tot=              0.0000
 Quadrupole moment (field-independent basis, Debye-Ang):
   XX=            -13.6629   YY=            -10.8102   ZZ=            -13.9919
   XY=              4.0791   XZ=              0.0000   YZ=              0.0000

 Normal termination of Gaussian 16 at Thu May 15 15:35:21 2025.
