 Gaussian 16, Revision A.03,
 Gaussian 16:  ES64L-G16RevA.03 25-Dec-2016

 --------------------------------------------
 #p opt UM062X/6-311+G** nosymm int=superfine
 --------------------------------------------

 -------------------
 Title Card Required
 -------------------
 Symbolic Z-matrix:
 Charge =  0 Multiplicity = 1

 SCF Done:  E(UM062X) =  -94.2731538880     A.U. after   16 cycles
 SCF Done:  E(UM062X) =  -94.2784640850     A.U. after   15 cycles
 SCF Done:  E(UM062X) =  -94.2823587489     A.U. after   15 cycles
 SCF Done:  E(UM062X) =  -94.2824604593     A.U. after   14 cycles
 SCF Done:  E(UM062X) =  -94.2824356406     A.U. after   17 cycles
 SCF Done:  E(UM062X) =  -94.2823901085     A.U. after   18 cycles
 SCF Done:  E(UM062X) =  -94.2824980795     A.U. after   16 cycles
 SCF Done:  E(UM062X) =  -94.2825009598     A.U. after   12 cycles
 SCF Done:  E(UM062X) =  -94.2825120617     A.U. after   12 cycles
 SCF Done:  E(UM062X) =  -94.2825138012     A.U. after   15 cycles
 Optimization completed.
    -- Stationary point found.

                          Input orientation:
 ---------------------------------------------------------------------
 Center     Atomic      Atomic             Coordinates (Angstroms)
 Number     Number       Type             X           Y           Z
 ---------------------------------------------------------------------
      1          6           0       -1.331637    0.000000    0.000000
      2          7           0        1.331637    0.000000    0.000000
      3          1           0       -2.133081   -0.755211    0.001366
      4          1           0        1.187995   -1.024844    0.001492
      5          1           0       -1.807334    0.991002   -0.001737
 ---------------------------------------------------------------------

 Alpha  occ. eigenvalues --  -14.78934 -10.65427  -0.85436  -0.78800  -0.52075
 Alpha  occ. eigenvalues --   -0.42149  -0.34988  -0.29437
 Alpha virt. eigenvalues --   -0.11108  -0.07239   0.01323   0.05253   0.06629
 Alpha virt. eigenvalues --    0.07566   0.12808   0.14656   0.17143   0.17187
 Alpha virt. eigenvalues --    0.19368   0.20465   0.26772   0.42334   0.45312

  Beta  occ. eigenvalues --  -14.78934 -10.65427  -0.85436  -0.78800  -0.52075
  Beta  occ. eigenvalues --   -0.42149  -0.34988  -0.29437
  Beta virt. eigenvalues --   -0.11108  -0.07239   0.01323   0.05253   0.06629
  Beta virt. eigenvalues --    0.07566   0.12808   0.14656   0.17143   0.17187
  Beta virt. eigenvalues --    0.19368   0.20465   0.26772   0.42334   0.45312

 Mulliken charges and spin densities:
               1          2
     1  C   -0.283830   0.000000
     2  N   -0.243851  -0.000000
     3  H    0.167244  -0.000000
     4  H    0.190784   0.000000
     5  H    0.169654   0.000000
 Sum of Mulliken charges =  -0.00000  -0.00000

 Dipole moment (field-independent basis, Debye):
    X=             -3.6178    Y=             -1.2194    Z=              0.0017  Tot=              3.8178
 Quadrupole moment (field-independent basis, Debye-Ang):
   XX=             -9.5167   YY=            -12.5954   ZZ=            -15.1168
   XY=             -2.4887   XZ=              0.0037   YZ=             -0.0036

 Normal termination of Gaussian 16 at Mon Apr 21 18:25:16 2025.
