 Gaussian 16, Revision A.03,
 Gaussian 16:  ES64L-G16RevA.03 25-Dec-2016

 --------------------------------------------
 #p opt UM062X/6-311+G** nosymm int=superfine
 --------------------------------------------

 -------------------
 Title Card Required
 -------------------
 Symbolic Z-matrix:
 Charge =  0 Multiplicity = 1

 SCF Done:  E(UM062X) =  -110.329098147     A.U. after   12 cycles
 SCF Done:  E(UM062X) =  -110.341951730     A.U. after   12 cycles
 SCF Done:  E(UM062X) =  -110.344697333     A.U. after   12 cycles
 SCF Done:  E(UM062X) =  -110.344699749     A.U. after    9 cycles
 Optimization completed.
    -- Stationary point found.

                          Input orientation:
 ---------------------------------------------------------------------
 Center     Atomic      Atomic             Coordinates (Angstroms)
 Number     Number       Type             X           Y           Z
 ---------------------------------------------------------------------
      1          7           0       -1.115428    0.000000    0.000000
      2          7           0        1.115428    0.000000    0.000000
      3          1           0       -1.043856   -1.032776   -0.000000
      4          1           0        1.043856    1.032776   -0.000000
 ---------------------------------------------------------------------

 Alpha  occ. eigenvalues --  -14.88411 -14.88403  -0.95044  -0.89433  -0.49993
 Alpha  occ. eigenvalues --   -0.47374  -0.37585  -0.33376
 Alpha virt. eigenvalues --   -0.17205  -0.10653   0.05743   0.07871   0.10720
 Alpha virt. eigenvalues --    0.12318   0.13196   0.14859   0.16139   0.19155
 Alpha virt. eigenvalues --    0.20447   0.25117   0.53435   0.56424   0.75653

  Beta  occ. eigenvalues --  -14.88411 -14.88403  -0.95044  -0.89433  -0.49993
  Beta  occ. eigenvalues --   -0.47374  -0.37585  -0.33376
  Beta virt. eigenvalues --   -0.17205  -0.10653   0.05743   0.07871   0.10720
  Beta virt. eigenvalues --    0.12318   0.13196   0.14859   0.16139   0.19155
  Beta virt. eigenvalues --    0.20447   0.25117   0.53435   0.56424   0.75653

 Mulliken charges and spin densities:
               1          2
     1  N   -0.248241   0.000000
     2  N   -0.248241  -0.000000
     3  H    0.248241  -0.000000
     4  H    0.248241   0.000000
 Sum of Mulliken charges =  -0.00000  -0.00000

 Dipole moment (field-independent basis, Debye):
    X=             -0.0000    Y=             -0.0000    Z=             -0.0000  Tot=              0.0000
 Quadrupole moment (field-independent basis, Debye-Ang):
   XX=            -13.6617   YY=            -10.8344   ZZ=            -14.0213
   XY=              4.1219   XZ=              0.0000   YZ=              0.0000

 Normal termination of Gaussian 16 at Thu May 15 15:35:35 2025.
