 Gaussian 16, Revision A.03,
 Gaussian 16:  ES64L-G16RevA.03 25-Dec-2016

 ---------------------------------------------------
 #p UM062X/6-311+G** force int=superfine pop=saveNBO
 ---------------------------------------------------

 -------------------
 Title Card Required
 -------------------
 Symbolic Z-matrix:
 Charge =  0 Multiplicity = 1

                         Standard orientation:
 ---------------------------------------------------------------------
 Center     Atomic      Atomic             Coordinates (Angstroms)
 Number     Number       Type             X           Y           Z
 ---------------------------------------------------------------------
      1          8           0        0.000000    0.000000   -2.460091
      2         16           0        0.000000    0.000000    1.230045
 ---------------------------------------------------------------------

 SCF Done:  E(UM062X) =  -473.005878531     A.U. after   18 cycles

 Unable to determine electronic state:  partially filled degenerate orbitals.
 Alpha  occ. eigenvalues --  -89.97758 -19.76049  -8.33789  -6.26580  -6.25005
 Alpha  occ. eigenvalues --   -6.24964  -1.05844  -0.77696  -0.44722  -0.44702
 Alpha  occ. eigenvalues --   -0.34921  -0.34801
 Alpha virt. eigenvalues --   -0.19997  -0.18942   0.03496   0.04719   0.05622
 Alpha virt. eigenvalues --    0.05756   0.15213   0.18291   0.18519   0.22932
 Alpha virt. eigenvalues --    0.33421   0.34641   0.35487   0.58469   0.76915

  Beta  occ. eigenvalues --  -89.97758 -19.76049  -8.33789  -6.26580  -6.25005
  Beta  occ. eigenvalues --   -6.24964  -1.05844  -0.77696  -0.44722  -0.44702
  Beta  occ. eigenvalues --   -0.34921  -0.34801
  Beta virt. eigenvalues --   -0.19997  -0.18942   0.03496   0.04719   0.05622
  Beta virt. eigenvalues --    0.05756   0.15213   0.18291   0.18519   0.22932
  Beta virt. eigenvalues --    0.33421   0.34641   0.35487   0.58469   0.76915

 Mulliken charges and spin densities:
               1          2
     1  O   -0.029709   0.000000
     2  S    0.029709   0.000000
 Sum of Mulliken charges =  -0.00000   0.00000

 Dipole moment (field-independent basis, Debye):
    X=              0.0000    Y=              0.0000    Z=              0.6456  Tot=              0.6456
 Quadrupole moment (field-independent basis, Debye-Ang):
   XX=            -15.6797   YY=            -21.1041   ZZ=            -19.3104
   XY=              0.0000   XZ=              0.0000   YZ=              0.0000

 Summary of Natural Population Analysis:

                                       Natural Population
                Natural  -----------------------------------------------
    Atom  No    Charge         Core      Valence    Rydberg      Total
 -----------------------------------------------------------------------
      O    1   -0.01680      1.00000     3.01668    0.00012     4.01680
      S    2    0.01680      4.99999     2.98276    0.00045     7.98320
 =======================================================================
   * Total *   -0.00000      5.99999     5.99944    0.00057    12.00000

 Normal termination of Gaussian 16 at Mon Apr 21 19:55:36 2025.
