 Gaussian 16, Revision A.03,
 Gaussian 16:  ES64L-G16RevA.03 25-Dec-2016

 ---------------------------------------
 #p UM062X/6-311+G** force int=superfine
 ---------------------------------------

 -------------------
 Title Card Required
 -------------------
 Symbolic Z-matrix:
 Charge =  1 Multiplicity = 2

                         Standard orientation:
 ---------------------------------------------------------------------
 Center     Atomic      Atomic             Coordinates (Angstroms)
 Number     Number       Type             X           Y           Z
 ---------------------------------------------------------------------
      1          6           0        0.113487    0.419017   -1.656053
      2          6           0       -0.113493   -0.419011    1.656054
      3          1           0       -0.877057   -1.161825    1.455393
      4          1           0        0.400407   -0.589838   -1.929827
      5          1           0       -0.400240    0.589675    1.930635
      6          1           0        0.929422   -0.712514    1.691381
      7          1           0        0.876915    1.161976   -1.455409
      8          1           0       -0.929410    0.712492   -1.692179
 ---------------------------------------------------------------------

 SCF Done:  E(UM062X) =  -79.3280011147     A.U. after   10 cycles

 The electronic state is 2-A.
 Alpha  occ. eigenvalues --  -10.84473 -10.84471  -1.03116  -1.02332  -0.73999
 Alpha  occ. eigenvalues --   -0.73999  -0.73660  -0.73660  -0.50187
 Alpha virt. eigenvalues --   -0.36698  -0.13426  -0.10214  -0.09983  -0.09983
 Alpha virt. eigenvalues --   -0.06246  -0.06246  -0.04711  -0.03245  -0.01182
 Alpha virt. eigenvalues --   -0.01180   0.01272   0.01273   0.03918   0.08008

  Beta  occ. eigenvalues --  -10.84267 -10.84267  -1.00397  -0.99876  -0.73492
  Beta  occ. eigenvalues --   -0.73491  -0.73143  -0.73143
  Beta virt. eigenvalues --   -0.32685  -0.26280  -0.15638  -0.11138  -0.11137
  Beta virt. eigenvalues --   -0.10107  -0.06330  -0.06330  -0.05078  -0.02328
  Beta virt. eigenvalues --   -0.01531  -0.01529   0.01560   0.01562   0.04442

 Mulliken charges and spin densities:
               1          2
     1  C   -0.265762   0.561626
     2  C   -0.265761   0.561626
     3  H    0.255277  -0.020537
     4  H    0.255227  -0.020550
     5  H    0.255251  -0.020549
     6  H    0.255234  -0.020541
     7  H    0.255278  -0.020536
     8  H    0.255256  -0.020539
 Sum of Mulliken charges =   1.00000   1.00000

 Dipole moment (field-independent basis, Debye):
    X=              0.0000    Y=             -0.0001    Z=             -0.0000  Tot=              0.0001
 Quadrupole moment (field-independent basis, Debye-Ang):
   XX=            -11.0153   YY=            -10.2347   ZZ=              2.0721
   XY=              0.2285   XZ=             -0.9024   YZ=             -3.3282

 Normal termination of Gaussian 16 at Wed Nov 13 13:03:39 2024.
