 Gaussian 16, Revision A.03,
 Gaussian 16:  ES64L-G16RevA.03 25-Dec-2016

 --------------------------------------------
 #p opt UM062X/6-311+G** nosymm int=superfine
 --------------------------------------------

 -------------------
 Title Card Required
 -------------------
 Symbolic Z-matrix:
 Charge =  0 Multiplicity = 1

 SCF Done:  E(UM062X) =  -684.906044663     A.U. after   11 cycles
 SCF Done:  E(UM062X) =  -684.906588747     A.U. after   10 cycles
 SCF Done:  E(UM062X) =  -684.906863233     A.U. after   10 cycles
 SCF Done:  E(UM062X) =  -684.907355719     A.U. after   12 cycles
 SCF Done:  E(UM062X) =  -684.907562638     A.U. after   10 cycles
 SCF Done:  E(UM062X) =  -684.907680686     A.U. after   11 cycles
 SCF Done:  E(UM062X) =  -684.907696118     A.U. after   11 cycles
 SCF Done:  E(UM062X) =  -684.907705291     A.U. after   11 cycles
 SCF Done:  E(UM062X) =  -684.907722288     A.U. after   10 cycles
 SCF Done:  E(UM062X) =  -684.907750284     A.U. after   14 cycles
 SCF Done:  E(UM062X) =  -684.907849071     A.U. after   12 cycles
 SCF Done:  E(UM062X) =  -684.907859621     A.U. after   10 cycles
 SCF Done:  E(UM062X) =  -684.907866570     A.U. after   12 cycles
 SCF Done:  E(UM062X) =  -684.907866490     A.U. after   12 cycles
 SCF Done:  E(UM062X) =  -684.907875229     A.U. after   11 cycles
 SCF Done:  E(UM062X) =  -684.907875368     A.U. after   11 cycles
 SCF Done:  E(UM062X) =  -684.907875441     A.U. after    8 cycles
 SCF Done:  E(UM062X) =  -684.907875441     A.U. after    9 cycles
 SCF Done:  E(UM062X) =  -684.907875480     A.U. after    8 cycles
 SCF Done:  E(UM062X) =  -684.907875526     A.U. after   10 cycles
 Optimization completed.
    -- Stationary point found.

                          Input orientation:
 ---------------------------------------------------------------------
 Center     Atomic      Atomic             Coordinates (Angstroms)
 Number     Number       Type             X           Y           Z
 ---------------------------------------------------------------------
      1         15           0       -2.417217    0.000000    0.000000
      2         15           0        2.417217    0.000000    0.000000
      3          1           0        2.295666   -1.018955    0.979846
      4          1           0       -2.302291    1.096920    0.892609
      5          1           0        2.305983   -0.939671   -1.057492
      6          1           0       -2.305548    0.849808   -1.130795
 ---------------------------------------------------------------------

 Alpha  occ. eigenvalues --  -78.04941 -78.04940  -6.87362  -6.87361  -4.98906
 Alpha  occ. eigenvalues --   -4.98905  -4.98787  -4.98786  -4.98605  -4.98604
 Alpha  occ. eigenvalues --   -0.71177  -0.70966  -0.45133  -0.45066  -0.36274
 Alpha  occ. eigenvalues --   -0.36206  -0.23674
 Alpha virt. eigenvalues --   -0.15855   0.01520   0.02832   0.03189   0.04005
 Alpha virt. eigenvalues --    0.04822   0.05839   0.06032   0.06077   0.06111
 Alpha virt. eigenvalues --    0.07849   0.12639   0.18177   0.29118   0.29768

  Beta  occ. eigenvalues --  -78.04941 -78.04940  -6.87362  -6.87361  -4.98906
  Beta  occ. eigenvalues --   -4.98905  -4.98787  -4.98786  -4.98605  -4.98604
  Beta  occ. eigenvalues --   -0.71177  -0.70966  -0.45133  -0.45066  -0.36274
  Beta  occ. eigenvalues --   -0.36206  -0.23674
  Beta virt. eigenvalues --   -0.15855   0.01520   0.02832   0.03189   0.04005
  Beta virt. eigenvalues --    0.04822   0.05839   0.06032   0.06077   0.06111
  Beta virt. eigenvalues --    0.07849   0.12639   0.18177   0.29118   0.29768

 Mulliken charges and spin densities:
               1          2
     1  P    0.009391  -0.000000
     2  P    0.009677   0.000000
     3  H   -0.004361   0.000000
     4  H   -0.004408   0.000000
     5  H   -0.005151   0.000000
     6  H   -0.005148   0.000000
 Sum of Mulliken charges =   0.00000  -0.00000

 Dipole moment (field-independent basis, Debye):
    X=             -0.0015    Y=             -0.0067    Z=             -0.1435  Tot=              0.1437
 Quadrupole moment (field-independent basis, Debye-Ang):
   XX=            -29.1765   YY=            -31.2371   ZZ=            -28.5417
   XY=             -4.7055   XZ=              0.1896   YZ=              0.1110

 Normal termination of Gaussian 16 at Mon Apr 21 21:02:10 2025.
