 Gaussian 16, Revision A.03,
 Gaussian 16:  ES64L-G16RevA.03 25-Dec-2016

 ---------------------------------------
 #p UM062X/6-311+G** force int=superfine
 ---------------------------------------

 -------------------
 Title Card Required
 -------------------
 Symbolic Z-matrix:
 Charge =  1 Multiplicity = 2

                         Standard orientation:
 ---------------------------------------------------------------------
 Center     Atomic      Atomic             Coordinates (Angstroms)
 Number     Number       Type             X           Y           Z
 ---------------------------------------------------------------------
      1          6           0        1.198377    0.967508   -1.684763
      2          6           0       -1.198378   -0.967505    1.684764
      3          1           0       -2.088173   -0.988623    1.067513
      4          1           0        1.008774    0.119612   -2.331517
      5          1           0       -1.009212   -0.120224    2.332454
      6          1           0       -0.528470   -1.818519    1.697565
      7          1           0        2.088147    0.988855   -1.067484
      8          1           0        0.528940    1.818881   -1.698536
 ---------------------------------------------------------------------

 SCF Done:  E(UM062X) =  -79.3131198488     A.U. after   10 cycles

 The electronic state is 2-A.
 Alpha  occ. eigenvalues --  -10.82590 -10.82589  -1.01239  -1.01078  -0.72369
 Alpha  occ. eigenvalues --   -0.72369  -0.72336  -0.72335  -0.45509
 Alpha virt. eigenvalues --   -0.37943  -0.12131  -0.09961  -0.08851  -0.08851
 Alpha virt. eigenvalues --   -0.06182  -0.06182  -0.04494  -0.02355   0.00883
 Alpha virt. eigenvalues --    0.00886   0.01630   0.01632   0.02167   0.09265

  Beta  occ. eigenvalues --  -10.82360 -10.82360  -0.98568  -0.98509  -0.71824
  Beta  occ. eigenvalues --   -0.71823  -0.71787  -0.71786
  Beta virt. eigenvalues --   -0.30514  -0.26670  -0.16967  -0.10252  -0.09809
  Beta virt. eigenvalues --   -0.09807  -0.06090  -0.06089  -0.05890  -0.01378
  Beta virt. eigenvalues --    0.00888   0.00892   0.01876   0.01879   0.02297

 Mulliken charges and spin densities:
               1          2
     1  C   -0.228971   0.560938
     2  C   -0.228976   0.560934
     3  H    0.242990  -0.020331
     4  H    0.242976  -0.020309
     5  H    0.242997  -0.020309
     6  H    0.242989  -0.020294
     7  H    0.242989  -0.020333
     8  H    0.243007  -0.020297
 Sum of Mulliken charges =   1.00000   1.00000

 Dipole moment (field-independent basis, Debye):
    X=              0.0000    Y=             -0.0000    Z=             -0.0000  Tot=              0.0000
 Quadrupole moment (field-independent basis, Debye-Ang):
   XX=             -4.4181   YY=             -6.7542   ZZ=              2.1232
   XY=              5.4129   XZ=             -9.4250   YZ=             -7.6080

 Normal termination of Gaussian 16 at Tue Nov 19 08:39:29 2024.
