 Gaussian 16, Revision A.03,
 Gaussian 16:  ES64L-G16RevA.03 25-Dec-2016

 --------------------------------------------
 #p opt UM062X/6-311+G** nosymm int=superfine
 --------------------------------------------

 -------------------
 Title Card Required
 -------------------
 Symbolic Z-matrix:
 Charge =  1 Multiplicity = 2

 SCF Done:  E(UM062X) =  -80.1674331206     A.U. after   44 cycles
 SCF Done:  E(UM062X) =  -80.1682398799     A.U. after   11 cycles
 SCF Done:  E(UM062X) =  -80.1682427698     A.U. after   10 cycles
 SCF Done:  E(UM062X) =  -80.1682431570     A.U. after   10 cycles
 SCF Done:  E(UM062X) =  -80.1711297881     A.U. after   16 cycles
 SCF Done:  E(UM062X) =  -80.1732820699     A.U. after   16 cycles
 SCF Done:  E(UM062X) =  -80.1742637928     A.U. after   14 cycles
 SCF Done:  E(UM062X) =  -80.1743228809     A.U. after   13 cycles
 SCF Done:  E(UM062X) =  -80.1743238110     A.U. after   11 cycles
 SCF Done:  E(UM062X) =  -80.1743238168     A.U. after   10 cycles
 SCF Done:  E(UM062X) =  -80.1757334262     A.U. after   17 cycles
 SCF Done:  E(UM062X) =  -80.1805825408     A.U. after   17 cycles
 SCF Done:  E(UM062X) =  -80.1816046285     A.U. after   16 cycles
 SCF Done:  E(UM062X) =  -80.1838021301     A.U. after   16 cycles
 SCF Done:  E(UM062X) =  -80.1838683283     A.U. after   13 cycles
 SCF Done:  E(UM062X) =  -80.1838752217     A.U. after   12 cycles
 SCF Done:  E(UM062X) =  -80.1838844304     A.U. after   11 cycles
 Optimization completed.
    -- Stationary point found.

                          Input orientation:
 ---------------------------------------------------------------------
 Center     Atomic      Atomic             Coordinates (Angstroms)
 Number     Number       Type             X           Y           Z
 ---------------------------------------------------------------------
      1          5           0       -1.302734    0.000000    0.000000
      2          7           0        1.302734    0.000000    0.000000
      3          1           0       -1.597489   -0.672601   -0.945235
      4          1           0        2.233869    0.263719    0.369135
 ---------------------------------------------------------------------

 Alpha  occ. eigenvalues --  -15.04983  -7.49998  -1.16968  -0.83430  -0.71735
 Alpha  occ. eigenvalues --   -0.63625  -0.63447
 Alpha virt. eigenvalues --   -0.40226  -0.31561  -0.29498  -0.14243  -0.10693
 Alpha virt. eigenvalues --   -0.09485  -0.09007  -0.07286  -0.04720  -0.01317
 Alpha virt. eigenvalues --   -0.01170   0.03605   0.06195   0.08766   0.15065

  Beta  occ. eigenvalues --  -15.02437  -7.51223  -1.03957  -0.86814  -0.68026
  Beta  occ. eigenvalues --   -0.63116
  Beta virt. eigenvalues --   -0.33979  -0.32206  -0.26666  -0.26487  -0.13934
  Beta virt. eigenvalues --   -0.11020  -0.09606  -0.09045  -0.06185  -0.04172
  Beta virt. eigenvalues --   -0.00097   0.00024   0.02230   0.06401   0.15257

 Mulliken charges and spin densities:
               1          2
     1  B    0.659127  -0.859100
     2  N   -0.175532   2.038401
     3  H    0.193850  -0.121290
     4  H    0.322555  -0.058011
 Sum of Mulliken charges =   1.00000   1.00000

 Dipole moment (field-independent basis, Debye):
    X=             -2.6067    Y=              0.0218    Z=              0.0282  Tot=              2.6070
 Quadrupole moment (field-independent basis, Debye-Ang):
   XX=              4.7097   YY=            -10.1295   ZZ=            -10.0660
   XY=              1.6141   XZ=              2.2628   YZ=              0.0932

 Normal termination of Gaussian 16 at Mon Apr 21 18:00:14 2025.
