 Gaussian 16, Revision A.03,
 Gaussian 16:  ES64L-G16RevA.03 25-Dec-2016

 --------------------------------------------
 #p opt UM062X/6-311+G** nosymm int=superfine
 --------------------------------------------

 -------------------
 Title Card Required
 -------------------
 Symbolic Z-matrix:
 Charge =  0 Multiplicity = 1

 SCF Done:  E(UM062X) =  -682.140386830     A.U. after   11 cycles
 SCF Done:  E(UM062X) =  -682.636137865     A.U. after   11 cycles
 SCF Done:  E(UM062X) =  -683.240120605     A.U. after   12 cycles
 SCF Done:  E(UM062X) =  -683.619965229     A.U. after   11 cycles
 SCF Done:  E(UM062X) =  -683.673670221     A.U. after   12 cycles
 SCF Done:  E(UM062X) =  -683.717444613     A.U. after   10 cycles
 SCF Done:  E(UM062X) =  -683.743307237     A.U. after   10 cycles
 SCF Done:  E(UM062X) =  -683.765692607     A.U. after   10 cycles
 SCF Done:  E(UM062X) =  -683.835352908     A.U. after   10 cycles
 SCF Done:  E(UM062X) =  -683.842830328     A.U. after    9 cycles
 SCF Done:  E(UM062X) =  -683.841541596     A.U. after    9 cycles
 SCF Done:  E(UM062X) =  -683.843541902     A.U. after    7 cycles
 SCF Done:  E(UM062X) =  -683.843547406     A.U. after    7 cycles
 SCF Done:  E(UM062X) =  -683.843549311     A.U. after    7 cycles
 Optimization completed.
    -- Stationary point found.

                          Input orientation:
 ---------------------------------------------------------------------
 Center     Atomic      Atomic             Coordinates (Angstroms)
 Number     Number       Type             X           Y           Z
 ---------------------------------------------------------------------
      1         15           0       -0.974878    0.262073   -0.000000
      2         15           0        0.974878   -0.262073   -0.000000
      3          1           0       -1.442145   -1.079886    0.000000
      4          1           0        1.442145    1.079886    0.000000
 ---------------------------------------------------------------------

 Alpha  occ. eigenvalues --  -78.03967 -78.03967  -6.86624  -6.86603  -4.98126
 Alpha  occ. eigenvalues --   -4.98116  -4.98083  -4.98035  -4.97899  -4.97864
 Alpha  occ. eigenvalues --   -0.77995  -0.61910  -0.42399  -0.41382  -0.32447
 Alpha  occ. eigenvalues --   -0.31201
 Alpha virt. eigenvalues --   -0.08008   0.01783   0.01880   0.03347   0.04052
 Alpha virt. eigenvalues --    0.04720   0.06630   0.07103   0.07186   0.08397
 Alpha virt. eigenvalues --    0.12572   0.13440   0.25121   0.29265   0.30781

  Beta  occ. eigenvalues --  -78.03967 -78.03967  -6.86624  -6.86603  -4.98126
  Beta  occ. eigenvalues --   -4.98116  -4.98083  -4.98035  -4.97899  -4.97864
  Beta  occ. eigenvalues --   -0.77995  -0.61910  -0.42399  -0.41382  -0.32447
  Beta  occ. eigenvalues --   -0.31201
  Beta virt. eigenvalues --   -0.08008   0.01783   0.01880   0.03347   0.04052
  Beta virt. eigenvalues --    0.04720   0.06630   0.07103   0.07186   0.08397
  Beta virt. eigenvalues --    0.12572   0.13440   0.25121   0.29265   0.30781

 Mulliken charges and spin densities:
               1          2
     1  P    0.020799  -0.000000
     2  P    0.020799   0.000000
     3  H   -0.020799   0.000000
     4  H   -0.020799  -0.000000
 Sum of Mulliken charges =  -0.00000   0.00000

 Dipole moment (field-independent basis, Debye):
    X=             -0.0000    Y=              0.0000    Z=             -0.0000  Tot=              0.0000
 Quadrupole moment (field-independent basis, Debye-Ang):
   XX=            -28.0579   YY=            -28.6081   ZZ=            -28.2014
   XY=              2.8145   XZ=              0.0000   YZ=             -0.0000

 Normal termination of Gaussian 16 at Wed Apr 16 05:55:49 2025.
