 Gaussian 16, Revision A.03,
 Gaussian 16:  ES64L-G16RevA.03 25-Dec-2016

 ---------------------------------------------------
 #p UM062X/6-311+G** force int=superfine pop=saveNBO
 ---------------------------------------------------

 -------------------
 Title Card Required
 -------------------
 Symbolic Z-matrix:
 Charge =  0 Multiplicity = 1

                         Standard orientation:
 ---------------------------------------------------------------------
 Center     Atomic      Atomic             Coordinates (Angstroms)
 Number     Number       Type             X           Y           Z
 ---------------------------------------------------------------------
      1          8           0        0.000000    0.000000   -2.726757
      2         16           0        0.000000    0.000000    1.363379
 ---------------------------------------------------------------------

 SCF Done:  E(UM062X) =  -473.003888159     A.U. after   18 cycles

 Unable to determine electronic state:  partially filled degenerate orbitals.
 Alpha  occ. eigenvalues --  -89.96978 -19.76939  -8.33032  -6.25829  -6.24236
 Alpha  occ. eigenvalues --   -6.24219  -1.06646  -0.77089  -0.45535  -0.45522
 Alpha  occ. eigenvalues --   -0.34342  -0.34259
 Alpha virt. eigenvalues --   -0.19565  -0.19482   0.03598   0.04787   0.05682
 Alpha virt. eigenvalues --    0.05708   0.14528   0.17754   0.17922   0.21919
 Alpha virt. eigenvalues --    0.33775   0.34977   0.35785   0.58969   0.77538

  Beta  occ. eigenvalues --  -89.96978 -19.76939  -8.33032  -6.25829  -6.24236
  Beta  occ. eigenvalues --   -6.24219  -1.06646  -0.77089  -0.45535  -0.45522
  Beta  occ. eigenvalues --   -0.34342  -0.34259
  Beta virt. eigenvalues --   -0.19565  -0.19482   0.03598   0.04787   0.05682
  Beta virt. eigenvalues --    0.05708   0.14528   0.17754   0.17922   0.21919
  Beta virt. eigenvalues --    0.33775   0.34977   0.35785   0.58969   0.77538

 Mulliken charges and spin densities:
               1          2
     1  O   -0.009232   0.000000
     2  S    0.009232  -0.000000
 Sum of Mulliken charges =  -0.00000   0.00000

 Dipole moment (field-independent basis, Debye):
    X=              0.0000    Y=              0.0000    Z=              0.2682  Tot=              0.2682
 Quadrupole moment (field-independent basis, Debye-Ang):
   XX=            -21.1453   YY=            -15.6834   ZZ=            -19.0620
   XY=              0.0000   XZ=              0.0000   YZ=              0.0000

 Summary of Natural Population Analysis:

                                       Natural Population
                Natural  -----------------------------------------------
    Atom  No    Charge         Core      Valence    Rydberg      Total
 -----------------------------------------------------------------------
      O    1   -0.00536      1.00000     3.00523    0.00013     4.00536
      S    2    0.00536      4.99999     2.99421    0.00044     7.99464
 =======================================================================
   * Total *   -0.00000      5.99999     5.99944    0.00057    12.00000

 Normal termination of Gaussian 16 at Mon Apr 21 20:01:25 2025.
