 Gaussian 16, Revision A.03,
 Gaussian 16:  ES64L-G16RevA.03 25-Dec-2016

 --------------------------------------------
 #p opt UM062X/6-311+G** nosymm int=superfine
 --------------------------------------------

 -------------------
 Title Card Required
 -------------------
 Symbolic Z-matrix:
 Charge = -1 Multiplicity = 2

 SCF Done:  E(UM062X) =  -50.5508785013     A.U. after   15 cycles
 SCF Done:  E(UM062X) =  -50.5562452020     A.U. after   14 cycles
 SCF Done:  E(UM062X) =  -50.5566997564     A.U. after   15 cycles
 Optimization completed.
    -- Stationary point found.

                          Input orientation:
 ---------------------------------------------------------------------
 Center     Atomic      Atomic             Coordinates (Angstroms)
 Number     Number       Type             X           Y           Z
 ---------------------------------------------------------------------
      1          5           0       -1.641404    0.000000    0.000000
      2          5           0        1.641404    0.000000    0.000000
      3          1           0       -2.922986   -0.000968   -0.000000
      4          1           0        2.922986    0.000968    0.000000
 ---------------------------------------------------------------------

 Alpha  occ. eigenvalues --   -6.90401  -6.90400  -0.33763  -0.33374  -0.10450
 Alpha  occ. eigenvalues --   -0.04065   0.02374
 Alpha virt. eigenvalues --    0.12018   0.12483   0.14683   0.15774   0.16406
 Alpha virt. eigenvalues --    0.22030   0.22196   0.22454   0.22740   0.23799
 Alpha virt. eigenvalues --    0.25915   0.34495   0.37962   0.52779   0.58019

  Beta  occ. eigenvalues --   -6.90323  -6.90323  -0.32704  -0.32469  -0.09259
  Beta  occ. eigenvalues --   -0.03087
  Beta virt. eigenvalues --    0.10322   0.11395   0.12917   0.13527   0.13533
  Beta virt. eigenvalues --    0.14101   0.19076   0.20346   0.20559   0.21438
  Beta virt. eigenvalues --    0.21909   0.22613   0.34191   0.38011   0.52379

 Mulliken charges and spin densities:
               1          2
     1  B   -0.401086   0.508704
     2  B   -0.401086   0.508704
     3  H   -0.098914  -0.008704
     4  H   -0.098914  -0.008704
 Sum of Mulliken charges =  -1.00000   1.00000

 Dipole moment (field-independent basis, Debye):
    X=             -0.0000    Y=              0.0000    Z=             -0.0000  Tot=              0.0000
 Quadrupole moment (field-independent basis, Debye-Ang):
   XX=            -37.8650   YY=            -19.2454   ZZ=            -26.8611
   XY=             -0.0017   XZ=             -0.0000   YZ=              0.0000

 Normal termination of Gaussian 16 at Mon Apr 21 17:27:40 2025.
