 Gaussian 16, Revision A.03,
 Gaussian 16:  ES64L-G16RevA.03 25-Dec-2016

 --------------------------------------------
 #p opt UM062X/6-311+G** nosymm int=superfine
 --------------------------------------------

 -------------------
 Title Card Required
 -------------------
 Symbolic Z-matrix:
 Charge =  0 Multiplicity = 1

 SCF Done:  E(UM062X) =  -111.678228373     A.U. after   16 cycles
 SCF Done:  E(UM062X) =  -111.696895998     A.U. after   14 cycles
 SCF Done:  E(UM062X) =  -111.706032148     A.U. after   14 cycles
 SCF Done:  E(UM062X) =  -111.707057748     A.U. after   12 cycles
 SCF Done:  E(UM062X) =  -111.708434897     A.U. after   12 cycles
 SCF Done:  E(UM062X) =  -111.708811131     A.U. after   13 cycles
 SCF Done:  E(UM062X) =  -111.708905460     A.U. after   12 cycles
 SCF Done:  E(UM062X) =  -111.708932116     A.U. after   11 cycles
 SCF Done:  E(UM062X) =  -111.708941654     A.U. after   10 cycles
 SCF Done:  E(UM062X) =  -111.708942223     A.U. after    9 cycles
 SCF Done:  E(UM062X) =  -111.708942232     A.U. after    8 cycles
 Optimization completed.
    -- Stationary point found.

                          Input orientation:
 ---------------------------------------------------------------------
 Center     Atomic      Atomic             Coordinates (Angstroms)
 Number     Number       Type             X           Y           Z
 ---------------------------------------------------------------------
      1          7           0       -1.286540    0.000000    0.000000
      2          7           0        1.286540    0.000000    0.000000
      3          1           0       -1.240080   -0.821395   -0.613853
      4          1           0        1.240218    0.417040   -0.936801
      5          1           0       -1.240210   -0.417087    0.936780
      6          1           0        1.240074    0.821424    0.613814
 ---------------------------------------------------------------------

 Alpha  occ. eigenvalues --  -14.80159 -14.80156  -0.95634  -0.93200  -0.55238
 Alpha  occ. eigenvalues --   -0.53677  -0.41086  -0.39516  -0.32751
 Alpha virt. eigenvalues --   -0.12322   0.04605   0.07125   0.08772   0.11457
 Alpha virt. eigenvalues --    0.13180   0.13846   0.15593   0.15973   0.19950
 Alpha virt. eigenvalues --    0.21201   0.26904   0.27954   0.51446   0.51659

  Beta  occ. eigenvalues --  -14.80159 -14.80156  -0.95634  -0.93200  -0.55238
  Beta  occ. eigenvalues --   -0.53677  -0.41086  -0.39516  -0.32751
  Beta virt. eigenvalues --   -0.12322   0.04605   0.07125   0.08772   0.11457
  Beta virt. eigenvalues --    0.13180   0.13846   0.15593   0.15973   0.19950
  Beta virt. eigenvalues --    0.21201   0.26904   0.27954   0.51446   0.51659

 Mulliken charges and spin densities:
               1          2
     1  N   -0.510015   0.000000
     2  N   -0.510016  -0.000000
     3  H    0.255008  -0.000000
     4  H    0.255005   0.000000
     5  H    0.255007  -0.000000
     6  H    0.255010   0.000000
 Sum of Mulliken charges =  -0.00000   0.00000

 Dipole moment (field-independent basis, Debye):
    X=              0.0000    Y=             -0.0000    Z=             -0.0001  Tot=              0.0001
 Quadrupole moment (field-independent basis, Debye-Ang):
   XX=            -15.5488   YY=            -14.1037   ZZ=            -11.3747
   XY=              5.6131   XZ=             -1.4641   YZ=              0.7635

 Normal termination of Gaussian 16 at Thu May 15 14:38:41 2025.
