 Gaussian 16, Revision A.03,
 Gaussian 16:  ES64L-G16RevA.03 25-Dec-2016

 --------------------------------------------
 #p opt UM062X/6-311+G** nosymm int=superfine
 --------------------------------------------

 -------------------
 Title Card Required
 -------------------
 Symbolic Z-matrix:
 Charge =  0 Multiplicity = 1

 SCF Done:  E(UM062X) =  -111.708420561     A.U. after   14 cycles
 SCF Done:  E(UM062X) =  -111.728312750     A.U. after   14 cycles
 SCF Done:  E(UM062X) =  -111.736475721     A.U. after   14 cycles
 SCF Done:  E(UM062X) =  -111.737508646     A.U. after   12 cycles
 SCF Done:  E(UM062X) =  -111.738812538     A.U. after   12 cycles
 SCF Done:  E(UM062X) =  -111.739106056     A.U. after   11 cycles
 SCF Done:  E(UM062X) =  -111.739206157     A.U. after   11 cycles
 SCF Done:  E(UM062X) =  -111.739218254     A.U. after    9 cycles
 SCF Done:  E(UM062X) =  -111.739219975     A.U. after    9 cycles
 SCF Done:  E(UM062X) =  -111.739220084     A.U. after    8 cycles
 Optimization completed.
    -- Stationary point found.

                          Input orientation:
 ---------------------------------------------------------------------
 Center     Atomic      Atomic             Coordinates (Angstroms)
 Number     Number       Type             X           Y           Z
 ---------------------------------------------------------------------
      1          7           0       -1.161540    0.000000    0.000000
      2          7           0        1.161540    0.000000    0.000000
      3          1           0       -1.151206   -0.821751   -0.613132
      4          1           0        1.151127    0.417605   -0.936375
      5          1           0       -1.151012   -0.418199    0.936108
      6          1           0        1.151110    0.822131    0.612618
 ---------------------------------------------------------------------

 Alpha  occ. eigenvalues --  -14.79672 -14.79668  -0.96187  -0.92184  -0.55472
 Alpha  occ. eigenvalues --   -0.52952  -0.41274  -0.39345  -0.33890
 Alpha virt. eigenvalues --   -0.09222   0.04573   0.07461   0.08819   0.11522
 Alpha virt. eigenvalues --    0.13328   0.13694   0.15489   0.15986   0.20572
 Alpha virt. eigenvalues --    0.21929   0.27354   0.27728   0.51377   0.51932

  Beta  occ. eigenvalues --  -14.79672 -14.79668  -0.96187  -0.92184  -0.55472
  Beta  occ. eigenvalues --   -0.52952  -0.41274  -0.39345  -0.33890
  Beta virt. eigenvalues --   -0.09222   0.04573   0.07461   0.08819   0.11522
  Beta virt. eigenvalues --    0.13328   0.13694   0.15489   0.15986   0.20572
  Beta virt. eigenvalues --    0.21929   0.27354   0.27728   0.51377   0.51932

 Mulliken charges and spin densities:
               1          2
     1  N   -0.515029  -0.000000
     2  N   -0.515034  -0.000000
     3  H    0.257500   0.000000
     4  H    0.257501  -0.000000
     5  H    0.257531   0.000000
     6  H    0.257531  -0.000000
 Sum of Mulliken charges =  -0.00000  -0.00000

 Dipole moment (field-independent basis, Debye):
    X=              0.0000    Y=             -0.0003    Z=             -0.0012  Tot=              0.0012
 Quadrupole moment (field-independent basis, Debye-Ang):
   XX=            -15.4648   YY=            -14.0318   ZZ=            -11.3083
   XY=              5.2432   XZ=             -1.3672   YZ=              0.7622

 Normal termination of Gaussian 16 at Thu May 15 14:34:05 2025.
