 Gaussian 16, Revision A.03,
 Gaussian 16:  ES64L-G16RevA.03 25-Dec-2016

 --------------------------------------------
 #p opt UM062X/6-311+G** nosymm int=superfine
 --------------------------------------------

 -------------------
 Title Card Required
 -------------------
 Symbolic Z-matrix:
 Charge =  0 Multiplicity = 1

 SCF Done:  E(UM062X) =  -382.213535625     A.U. after   19 cycles
 SCF Done:  E(UM062X) =  -382.224233673     A.U. after   13 cycles
 SCF Done:  E(UM062X) =  -382.231163565     A.U. after   14 cycles
 SCF Done:  E(UM062X) =  -382.231280490     A.U. after   11 cycles
 SCF Done:  E(UM062X) =  -382.231326298     A.U. after   12 cycles
 SCF Done:  E(UM062X) =  -382.231411920     A.U. after   13 cycles
 SCF Done:  E(UM062X) =  -382.231466841     A.U. after   12 cycles
 SCF Done:  E(UM062X) =  -382.231480369     A.U. after   10 cycles
 SCF Done:  E(UM062X) =  -382.231481111     A.U. after   10 cycles
 SCF Done:  E(UM062X) =  -382.231481430     A.U. after    7 cycles
 SCF Done:  E(UM062X) =  -382.231481976     A.U. after    9 cycles
 SCF Done:  E(UM062X) =  -382.231482543     A.U. after   10 cycles
 SCF Done:  E(UM062X) =  -382.231483007     A.U. after    9 cycles
 SCF Done:  E(UM062X) =  -382.231483221     A.U. after   10 cycles
 Optimization completed.
    -- Stationary point found.

                          Input orientation:
 ---------------------------------------------------------------------
 Center     Atomic      Atomic             Coordinates (Angstroms)
 Number     Number       Type             X           Y           Z
 ---------------------------------------------------------------------
      1          6           0       -2.406264    0.000000    0.000000
      2         15           0        2.406264    0.000000    0.000000
      3          1           0        2.315657   -1.416675    0.018043
      4          1           0       -2.410876    1.054926    0.232383
      5          1           0        2.313749    0.068691    1.414970
      6          1           0       -2.411271   -0.325481   -1.030016
      7          1           0       -2.459439   -0.728171    0.796247
 ---------------------------------------------------------------------

 Alpha  occ. eigenvalues --  -78.02850 -10.59797  -6.85299  -4.96817  -4.96748
 Alpha  occ. eigenvalues --   -4.96566  -0.79316  -0.69346  -0.51535  -0.51508
 Alpha  occ. eigenvalues --   -0.43517  -0.34612  -0.22119
 Alpha virt. eigenvalues --   -0.14620   0.02037   0.03695   0.03985   0.04475
 Alpha virt. eigenvalues --    0.06016   0.06444   0.07196   0.07287   0.10698
 Alpha virt. eigenvalues --    0.15846   0.17878   0.17917   0.22313   0.30640

  Beta  occ. eigenvalues --  -78.02850 -10.59797  -6.85299  -4.96817  -4.96748
  Beta  occ. eigenvalues --   -4.96566  -0.79316  -0.69346  -0.51535  -0.51508
  Beta  occ. eigenvalues --   -0.43517  -0.34612  -0.22119
  Beta virt. eigenvalues --   -0.14620   0.02037   0.03695   0.03985   0.04475
  Beta virt. eigenvalues --    0.06016   0.06444   0.07196   0.07287   0.10698
  Beta virt. eigenvalues --    0.15846   0.17878   0.17917   0.22313   0.30640

 Mulliken charges and spin densities:
               1          2
     1  C   -0.474529  -0.000000
     2  P   -0.042162   0.000000
     3  H   -0.013822  -0.000000
     4  H    0.182198   0.000000
     5  H   -0.013824  -0.000000
     6  H    0.182156   0.000000
     7  H    0.179984   0.000000
 Sum of Mulliken charges =  -0.00000   0.00000

 Dipole moment (field-independent basis, Debye):
    X=             -1.9761    Y=             -0.5856    Z=              0.6228  Tot=              2.1531
 Quadrupole moment (field-independent basis, Debye-Ang):
   XX=            -23.0309   YY=            -22.4312   ZZ=            -22.5180
   XY=             -1.4548   XZ=              1.5439   YZ=              0.7069

 Normal termination of Gaussian 16 at Mon Apr 21 19:13:52 2025.
