 Gaussian 16, Revision A.03,
 Gaussian 16:  ES64L-G16RevA.03 25-Dec-2016

 --------------------------------------------
 #p opt UM062X/6-311+G** nosymm int=superfine
 --------------------------------------------

 -------------------
 Title Card Required
 -------------------
 Symbolic Z-matrix:
 Charge = -1 Multiplicity = 2

 SCF Done:  E(UM062X) =  -53.2343562558     A.U. after   11 cycles
 SCF Done:  E(UM062X) =  -53.2344669196     A.U. after    9 cycles
 SCF Done:  E(UM062X) =  -53.2344833134     A.U. after    8 cycles
 Optimization completed.
    -- Stationary point found.

                          Input orientation:
 ---------------------------------------------------------------------
 Center     Atomic      Atomic             Coordinates (Angstroms)
 Number     Number       Type             X           Y           Z
 ---------------------------------------------------------------------
      1          5           0       -1.165672    0.000000    0.000000
      2          5           0        1.165672    0.000000    0.000000
      3          1           0        1.352086   -1.190069   -0.000001
      4          1           0       -1.351809   -0.595076    1.030653
      5          1           0        1.351923    0.595080   -1.030632
      6          1           0        1.351764    0.595063    1.030669
      7          1           0       -1.352092    1.190068    0.000009
      8          1           0       -1.351873   -0.595068   -1.030648
 ---------------------------------------------------------------------

 Alpha  occ. eigenvalues --   -6.80748  -6.80739  -0.40081  -0.34348  -0.20303
 Alpha  occ. eigenvalues --   -0.20303  -0.16902  -0.16902  -0.03287
 Alpha virt. eigenvalues --    0.16071   0.17226   0.17650   0.17650   0.19294
 Alpha virt. eigenvalues --    0.19295   0.20697   0.23417   0.29274   0.33137
 Alpha virt. eigenvalues --    0.33138   0.37760   0.37761   0.38910   0.41951

  Beta  occ. eigenvalues --   -6.80656  -6.80656  -0.37439  -0.32603  -0.19706
  Beta  occ. eigenvalues --   -0.19706  -0.16548  -0.16548
  Beta virt. eigenvalues --    0.13146   0.15195   0.17577   0.17577   0.18045
  Beta virt. eigenvalues --    0.18826   0.18826   0.22135   0.24411   0.33178
  Beta virt. eigenvalues --    0.33178   0.34036   0.38061   0.38062   0.39316

 Mulliken charges and spin densities:
               1          2
     1  B   -0.269585   0.580507
     2  B   -0.269585   0.580507
     3  H   -0.076823  -0.026854
     4  H   -0.076794  -0.026826
     5  H   -0.076801  -0.026828
     6  H   -0.076791  -0.026824
     7  H   -0.076823  -0.026855
     8  H   -0.076798  -0.026827
 Sum of Mulliken charges =  -1.00000   1.00000

 Dipole moment (field-independent basis, Debye):
    X=             -0.0000    Y=              0.0000    Z=             -0.0000  Tot=              0.0000
 Quadrupole moment (field-independent basis, Debye-Ang):
   XX=            -31.8431   YY=            -23.9628   ZZ=            -23.9626
   XY=              0.0002   XZ=              0.0000   YZ=              0.0000

 Normal termination of Gaussian 16 at Mon Apr 21 16:51:50 2025.
