 Gaussian 16, Revision A.03,
 Gaussian 16:  ES64L-G16RevA.03 25-Dec-2016

 --------------------------------------------
 #p opt UM062X/6-311+G** nosymm int=superfine
 --------------------------------------------

 -------------------
 Title Card Required
 -------------------
 Symbolic Z-matrix:
 Charge =  0 Multiplicity = 1

 SCF Done:  E(UM062X) =  -581.141442362     A.U. after    9 cycles
 SCF Done:  E(UM062X) =  -581.161315402     A.U. after    8 cycles
 SCF Done:  E(UM062X) =  -581.173594398     A.U. after    8 cycles
 SCF Done:  E(UM062X) =  -581.173614399     A.U. after    7 cycles
 Optimization completed.
    -- Stationary point found.

                          Input orientation:
 ---------------------------------------------------------------------
 Center     Atomic      Atomic             Coordinates (Angstroms)
 Number     Number       Type             X           Y           Z
 ---------------------------------------------------------------------
      1         14           0       -2.187518    0.000000    0.000000
      2         14           0        2.187518    0.000000    0.000000
      3          1           0       -3.252558   -1.083283    0.000094
      4          1           0        3.252558    1.083283   -0.000491
      5          1           0       -3.252562    1.083279    0.000321
      6          1           0        3.252562   -1.083279    0.000905
 ---------------------------------------------------------------------

 Alpha  occ. eigenvalues --  -67.01186 -67.01186  -5.55912  -5.55912  -3.87155
 Alpha  occ. eigenvalues --   -3.87155  -3.86615  -3.86614  -3.86476  -3.86476
 Alpha  occ. eigenvalues --   -0.57205  -0.57078  -0.37742  -0.37694  -0.29451
 Alpha  occ. eigenvalues --   -0.26745
 Alpha virt. eigenvalues --   -0.08271  -0.07390   0.02091   0.02328   0.03093
 Alpha virt. eigenvalues --    0.04573   0.05772   0.06109   0.06386   0.06909
 Alpha virt. eigenvalues --    0.08609   0.09229   0.11466   0.14124   0.29022

  Beta  occ. eigenvalues --  -67.01186 -67.01186  -5.55912  -5.55912  -3.87155
  Beta  occ. eigenvalues --   -3.87155  -3.86615  -3.86614  -3.86476  -3.86476
  Beta  occ. eigenvalues --   -0.57205  -0.57078  -0.37742  -0.37694  -0.29451
  Beta  occ. eigenvalues --   -0.26745
  Beta virt. eigenvalues --   -0.08271  -0.07390   0.02091   0.02328   0.03093
  Beta virt. eigenvalues --    0.04573   0.05772   0.06109   0.06386   0.06909
  Beta virt. eigenvalues --    0.08609   0.09229   0.11466   0.14124   0.29022

 Mulliken charges and spin densities:
               1          2
     1  Si   0.321176  -0.000000
     2  Si   0.321176  -0.000000
     3  H   -0.160588  -0.000000
     4  H   -0.160588   0.000000
     5  H   -0.160588   0.000000
     6  H   -0.160588   0.000000
 Sum of Mulliken charges =  -0.00000  -0.00000

 Dipole moment (field-independent basis, Debye):
    X=              0.0000    Y=              0.0000    Z=              0.0001  Tot=              0.0001
 Quadrupole moment (field-independent basis, Debye-Ang):
   XX=            -36.0298   YY=            -32.7701   ZZ=            -24.3989
   XY=             -0.0000   XZ=              0.0000   YZ=              0.0023

 Normal termination of Gaussian 16 at Mon Apr 21 20:29:47 2025.
