 Gaussian 16, Revision A.03,
 Gaussian 16:  ES64L-G16RevA.03 25-Dec-2016

 --------------------------------------------
 #p opt UM062X/6-311+G** nosymm int=superfine
 --------------------------------------------

 -------------------
 Title Card Required
 -------------------
 Symbolic Z-matrix:
 Charge =  0 Multiplicity = 1

 SCF Done:  E(UM062X) =  -151.355489756     A.U. after   15 cycles
 SCF Done:  E(UM062X) =  -151.358305024     A.U. after   19 cycles
 SCF Done:  E(UM062X) =  -151.361855437     A.U. after   21 cycles
 SCF Done:  E(UM062X) =  -151.362309934     A.U. after   24 cycles
 SCF Done:  E(UM062X) =  -151.362382535     A.U. after   23 cycles
 SCF Done:  E(UM062X) =  -151.362384061     A.U. after   15 cycles
 SCF Done:  E(UM062X) =  -151.362384128     A.U. after   17 cycles
 Optimization completed.
    -- Stationary point found.

                          Input orientation:
 ---------------------------------------------------------------------
 Center     Atomic      Atomic             Coordinates (Angstroms)
 Number     Number       Type             X           Y           Z
 ---------------------------------------------------------------------
      1          8           0       -1.361938    0.000000    0.000000
      2          8           0        1.361938    0.000000    0.000000
      3          1           0       -1.196596   -0.771509   -0.570946
      4          1           0        1.196529    0.771822    0.570504
 ---------------------------------------------------------------------

 Alpha  occ. eigenvalues --  -19.72739 -19.72737  -1.13438  -1.12239  -0.57194
 Alpha  occ. eigenvalues --   -0.56235  -0.44604  -0.43597  -0.39470
 Alpha virt. eigenvalues --   -0.23645   0.05450   0.08779   0.14708   0.15354
 Alpha virt. eigenvalues --    0.17660   0.19227   0.21044   0.21965   0.24428
 Alpha virt. eigenvalues --    0.32182   0.48798   0.52954   0.93749   0.98847

  Beta  occ. eigenvalues --  -19.72739 -19.72737  -1.13438  -1.12239  -0.57194
  Beta  occ. eigenvalues --   -0.56235  -0.44604  -0.43597  -0.39470
  Beta virt. eigenvalues --   -0.23645   0.05450   0.08779   0.14708   0.15354
  Beta virt. eigenvalues --    0.17660   0.19227   0.21044   0.21965   0.24428
  Beta virt. eigenvalues --    0.32182   0.48798   0.52954   0.93749   0.98847

 Mulliken charges and spin densities:
               1          2
     1  O   -0.270789  -0.000000
     2  O   -0.270780   0.000000
     3  H    0.270784   0.000000
     4  H    0.270786  -0.000000
 Sum of Mulliken charges =   0.00000   0.00000

 Dipole moment (field-independent basis, Debye):
    X=             -0.0001    Y=              0.0006    Z=             -0.0009  Tot=              0.0011
 Quadrupole moment (field-independent basis, Debye-Ang):
   XX=            -12.3975   YY=            -10.4096   ZZ=            -11.9067
   XY=              3.8269   XZ=              2.8304   YZ=              2.4444

 Normal termination of Gaussian 16 at Mon Apr 21 21:36:48 2025.
