 Gaussian 16, Revision A.03,
 Gaussian 16:  ES64L-G16RevA.03 25-Dec-2016

 ---------------------------------------------------
 #p UM062X/6-311+G** force int=superfine pop=saveNBO
 ---------------------------------------------------

 -------------------
 Title Card Required
 -------------------
 Symbolic Z-matrix:
 Charge =  0 Multiplicity = 1

                         Standard orientation:
 ---------------------------------------------------------------------
 Center     Atomic      Atomic             Coordinates (Angstroms)
 Number     Number       Type             X           Y           Z
 ---------------------------------------------------------------------
      1         16           0        0.000000    0.000000    2.275200
      2         16           0        0.000000    0.000000   -2.275200
 ---------------------------------------------------------------------

 SCF Done:  E(UM062X) =  -796.009585177     A.U. after    9 cycles

 Unable to determine electronic state:  partially filled degenerate orbitals.
 Alpha  occ. eigenvalues --  -89.98442 -89.98442  -8.34285  -8.34284  -6.26309
 Alpha  occ. eigenvalues --   -6.26309  -6.26292  -6.26292  -6.25473  -6.25473
 Alpha  occ. eigenvalues --   -0.77824  -0.77452  -0.34674  -0.34488  -0.31257
 Alpha  occ. eigenvalues --   -0.30510
 Alpha virt. eigenvalues --   -0.24199  -0.23405   0.02841   0.03950   0.04610
 Alpha virt. eigenvalues --    0.05014   0.06842   0.06923   0.07367   0.11711
 Alpha virt. eigenvalues --    0.30353   0.33156   0.33981   0.35122   0.35961

  Beta  occ. eigenvalues --  -89.98442 -89.98442  -8.34285  -8.34284  -6.26309
  Beta  occ. eigenvalues --   -6.26309  -6.26292  -6.26292  -6.25473  -6.25473
  Beta  occ. eigenvalues --   -0.77824  -0.77452  -0.34674  -0.34488  -0.31257
  Beta  occ. eigenvalues --   -0.30510
  Beta virt. eigenvalues --   -0.24199  -0.23405   0.02841   0.03950   0.04610
  Beta virt. eigenvalues --    0.05014   0.06842   0.06923   0.07367   0.11711
  Beta virt. eigenvalues --    0.30353   0.33156   0.33981   0.35122   0.35961

 Mulliken charges and spin densities:
               1          2
     1  S   -0.000000   0.000000
     2  S   -0.000000   0.000000
 Sum of Mulliken charges =  -0.00000   0.00000

 Dipole moment (field-independent basis, Debye):
    X=              0.0000    Y=             -0.0000    Z=              0.0000  Tot=              0.0000
 Quadrupole moment (field-independent basis, Debye-Ang):
   XX=            -30.4093   YY=            -25.3321   ZZ=            -23.0538
   XY=              0.0000   XZ=             -0.0000   YZ=              0.0000

 Summary of Natural Population Analysis:

                                       Natural Population
                Natural  -----------------------------------------------
    Atom  No    Charge         Core      Valence    Rydberg      Total
 -----------------------------------------------------------------------
      S    1    0.00000      5.00000     2.99944    0.00057     8.00000
      S    2    0.00000      5.00000     2.99944    0.00057     8.00000
 =======================================================================
   * Total *    0.00000      9.99999     5.99887    0.00114    16.00000

 Normal termination of Gaussian 16 at Mon Apr 21 20:09:31 2025.
