 Gaussian 16, Revision A.03,
 Gaussian 16:  ES64L-G16RevA.03 25-Dec-2016

 ---------------------------------------
 #p UM062X/6-311+G** force int=superfine
 ---------------------------------------

 -------------------
 Title Card Required
 -------------------
 Symbolic Z-matrix:
 Charge =  0 Multiplicity = 1

                         Standard orientation:
 ---------------------------------------------------------------------
 Center     Atomic      Atomic             Coordinates (Angstroms)
 Number     Number       Type             X           Y           Z
 ---------------------------------------------------------------------
      1          6           0        0.641412    0.000006   -0.000004
      2          6           0       -0.641412   -0.000007    0.000003
      3          1           0       -1.094427   -0.957774    0.290643
      4          1           0        1.094421   -0.227170    0.974783
      5          1           0       -1.094422    0.227173   -0.974782
      6          1           0       -1.094459    0.730607    0.684106
      7          1           0        1.094427    0.957775   -0.290639
      8          1           0        1.094461   -0.730607   -0.684104
 ---------------------------------------------------------------------

 SCF Done:  E(UM062X) =  -79.7509522616     A.U. after    8 cycles

 The electronic state is 1-A.
 Alpha  occ. eigenvalues --  -10.50597 -10.50454  -0.90606  -0.68608  -0.52679
 Alpha  occ. eigenvalues --   -0.52678  -0.48319  -0.37194  -0.37193
 Alpha virt. eigenvalues --    0.02117   0.04198   0.05114   0.05114   0.08719
 Alpha virt. eigenvalues --    0.08908   0.08908   0.14181   0.19406   0.19407
 Alpha virt. eigenvalues --    0.19915   0.19915   0.24076   0.27943   0.36330

  Beta  occ. eigenvalues --  -10.50597 -10.50454  -0.90606  -0.68608  -0.52679
  Beta  occ. eigenvalues --   -0.52678  -0.48319  -0.37194  -0.37193
  Beta virt. eigenvalues --    0.02117   0.04198   0.05114   0.05114   0.08719
  Beta virt. eigenvalues --    0.08908   0.08908   0.14181   0.19406   0.19407
  Beta virt. eigenvalues --    0.19915   0.19915   0.24076   0.27943   0.36330

 Mulliken charges and spin densities:
               1          2
     1  C   -0.443865   0.000000
     2  C   -0.443865  -0.000000
     3  H    0.147957   0.000000
     4  H    0.147954  -0.000000
     5  H    0.147954   0.000000
     6  H    0.147955   0.000000
     7  H    0.147957  -0.000000
     8  H    0.147955  -0.000000
 Sum of Mulliken charges =  -0.00000   0.00000

 Dipole moment (field-independent basis, Debye):
    X=              0.0000    Y=              0.0000    Z=              0.0000  Tot=              0.0000
 Quadrupole moment (field-independent basis, Debye-Ang):
   XX=            -15.6268   YY=            -14.9606   ZZ=            -14.9608
   XY=             -0.0000   XZ=             -0.0001   YZ=             -0.0000

 Normal termination of Gaussian 16 at Tue Nov 19 12:39:56 2024.
