 Gaussian 16, Revision A.03,
 Gaussian 16:  ES64L-G16RevA.03 25-Dec-2016

 --------------------------------------------
 #p opt UM062X/6-311+G** nosymm int=superfine
 --------------------------------------------

 -------------------
 Title Card Required
 -------------------
 Symbolic Z-matrix:
 Charge =  1 Multiplicity = 2

 SCF Done:  E(UM062X) =  -92.5766220528     A.U. after   18 cycles
 SCF Done:  E(UM062X) =  -92.5769118573     A.U. after   16 cycles
 Optimization completed.
    -- Stationary point found.

                          Input orientation:
 ---------------------------------------------------------------------
 Center     Atomic      Atomic             Coordinates (Angstroms)
 Number     Number       Type             X           Y           Z
 ---------------------------------------------------------------------
      1          6           0       -1.701540    0.000000    0.000000
      2          7           0        1.701540    0.000000    0.000000
      3          1           0       -2.817421    0.000000    0.000000
 ---------------------------------------------------------------------

 Alpha  occ. eigenvalues --  -15.23339 -10.97599  -1.18544  -0.98766  -0.73507
 Alpha  occ. eigenvalues --   -0.70704  -0.65648
 Alpha virt. eigenvalues --   -0.43703  -0.34283  -0.32644  -0.13781  -0.09842
 Alpha virt. eigenvalues --   -0.08045  -0.07360  -0.04505  -0.02505  -0.01959
 Alpha virt. eigenvalues --   -0.01230   0.07577   0.25379   0.34881   0.35072

  Beta  occ. eigenvalues --  -15.20652 -10.98019  -1.06283  -1.01140  -0.67047
  Beta  occ. eigenvalues --   -0.51718
  Beta virt. eigenvalues --   -0.43078  -0.39981  -0.36344  -0.35229  -0.13581
  Beta virt. eigenvalues --   -0.10468  -0.08528  -0.08034  -0.04907  -0.02626
  Beta virt. eigenvalues --   -0.02160  -0.02053   0.05775   0.25935   0.34394

 Mulliken charges and spin densities:
               1          2
     1  C    0.255177  -0.514641
     2  N    0.489493   1.498210
     3  H    0.255331   0.016431
 Sum of Mulliken charges =   1.00000   1.00000

 Dipole moment (field-independent basis, Debye):
    X=             -2.4901    Y=              0.0000    Z=              0.0000  Tot=              2.4901
 Quadrupole moment (field-independent basis, Debye-Ang):
   XX=             13.1247   YY=            -10.8864   ZZ=             -9.8352
   XY=              0.0000   XZ=              0.0000   YZ=             -0.7584

 Normal termination of Gaussian 16 at Mon Apr 21 18:37:18 2025.
