 Gaussian 16, Revision A.03,
 Gaussian 16:  ES64L-G16RevA.03 25-Dec-2016

 ---------------------------------------
 #p UM062X/6-311+G** force int=superfine
 ---------------------------------------

 -------------------
 Title Card Required
 -------------------
 Symbolic Z-matrix:
 Charge =  0 Multiplicity = 1

                         Standard orientation:
 ---------------------------------------------------------------------
 Center     Atomic      Atomic             Coordinates (Angstroms)
 Number     Number       Type             X           Y           Z
 ---------------------------------------------------------------------
      1          6           0       -0.031785    0.160277   -0.839462
      2          6           0        0.031785   -0.160277    0.839462
      3          1           0       -0.290523   -1.184606    1.017450
      4          1           0        0.629130   -0.531901   -1.358008
      5          1           0       -0.629130    0.531901    1.358010
      6          1           0        1.054592   -0.027540    1.187385
      7          1           0        0.290523    1.184606   -1.017450
      8          1           0       -1.054592    0.027539   -1.187388
 ---------------------------------------------------------------------

 SCF Done:  E(UM062X) =  -79.7849146664     A.U. after    8 cycles

 The electronic state is 1-A.
 Alpha  occ. eigenvalues --  -10.53208 -10.53188  -0.81964  -0.71037  -0.49224
 Alpha  occ. eigenvalues --   -0.49224  -0.42066  -0.42066  -0.38795
 Alpha virt. eigenvalues --    0.02227   0.03848   0.05599   0.05599   0.08671
 Alpha virt. eigenvalues --    0.08671   0.09114   0.13647   0.18460   0.18460
 Alpha virt. eigenvalues --    0.21247   0.21586   0.21587   0.24197   0.27712

  Beta  occ. eigenvalues --  -10.53208 -10.53188  -0.81964  -0.71037  -0.49224
  Beta  occ. eigenvalues --   -0.49224  -0.42066  -0.42066  -0.38795
  Beta virt. eigenvalues --    0.02227   0.03848   0.05599   0.05599   0.08671
  Beta virt. eigenvalues --    0.08671   0.09114   0.13647   0.18460   0.18460
  Beta virt. eigenvalues --    0.21247   0.21586   0.21587   0.24197   0.27712

 Mulliken charges and spin densities:
               1          2
     1  C   -0.483421  -0.000000
     2  C   -0.483421   0.000000
     3  H    0.161140  -0.000000
     4  H    0.161140   0.000000
     5  H    0.161140  -0.000000
     6  H    0.161140  -0.000000
     7  H    0.161140   0.000000
     8  H    0.161140   0.000000
 Sum of Mulliken charges =  -0.00000   0.00000

 Dipole moment (field-independent basis, Debye):
    X=              0.0000    Y=             -0.0000    Z=              0.0000  Tot=              0.0000
 Quadrupole moment (field-independent basis, Debye-Ang):
   XX=            -14.9472   YY=            -14.9699   ZZ=            -15.5966
   XY=              0.0047   XZ=             -0.0247   YZ=              0.1242

 Normal termination of Gaussian 16 at Tue Nov 19 12:46:12 2024.
