 Gaussian 16, Revision A.03,
 Gaussian 16:  ES64L-G16RevA.03 25-Dec-2016

 --------------------------------------------
 #p opt UM062X/6-311+G** nosymm int=superfine
 --------------------------------------------

 -------------------
 Title Card Required
 -------------------
 Symbolic Z-matrix:
 Charge =  1 Multiplicity = 2

 SCF Done:  E(UM062X) =  -79.3172296957     A.U. after   10 cycles
 SCF Done:  E(UM062X) =  -79.3183810710     A.U. after    9 cycles
 SCF Done:  E(UM062X) =  -79.3183888176     A.U. after    9 cycles
 Optimization completed.
    -- Stationary point found.

                          Input orientation:
 ---------------------------------------------------------------------
 Center     Atomic      Atomic             Coordinates (Angstroms)
 Number     Number       Type             X           Y           Z
 ---------------------------------------------------------------------
      1          6           0       -1.968807    0.000000    0.000000
      2          6           0        1.968807    0.000000    0.000000
      3          1           0        1.996484   -0.937574    0.542649
      4          1           0       -1.994759   -0.938672   -0.540828
      5          1           0        1.995747    0.938765    0.540620
      6          1           0        1.994841   -0.001168   -1.083324
      7          1           0       -1.996537    0.937678   -0.542467
      8          1           0       -1.995774    0.000945    1.083302
 ---------------------------------------------------------------------

 Alpha  occ. eigenvalues --  -10.83576 -10.83575  -1.02139  -1.01792  -0.73186
 Alpha  occ. eigenvalues --   -0.73186  -0.73067  -0.73067  -0.47595
 Alpha virt. eigenvalues --   -0.37579  -0.12770  -0.10163  -0.09450  -0.09450
 Alpha virt. eigenvalues --   -0.06220  -0.06220  -0.04388  -0.02941  -0.00110
 Alpha virt. eigenvalues --   -0.00107   0.01362   0.01364   0.02730   0.08684

  Beta  occ. eigenvalues --  -10.83357 -10.83357  -0.99483  -0.99264  -0.72665
  Beta  occ. eigenvalues --   -0.72664  -0.72527  -0.72527
  Beta virt. eigenvalues --   -0.32629  -0.26632  -0.16578  -0.10888  -0.10887
  Beta virt. eigenvalues --   -0.10219  -0.06215  -0.06214  -0.05228  -0.01989
  Beta virt. eigenvalues --   -0.00355  -0.00352   0.01625   0.01627   0.02488

 Mulliken charges and spin densities:
               1          2
     1  C   -0.250991   0.557143
     2  C   -0.250992   0.557143
     3  H    0.250350  -0.019044
     4  H    0.250311  -0.019047
     5  H    0.250331  -0.019050
     6  H    0.250310  -0.019049
     7  H    0.250351  -0.019044
     8  H    0.250329  -0.019051
 Sum of Mulliken charges =   1.00000   1.00000

 Dipole moment (field-independent basis, Debye):
    X=             -0.0000    Y=             -0.0000    Z=             -0.0001  Tot=              0.0001
 Quadrupole moment (field-independent basis, Debye-Ang):
   XX=              7.2619   YY=            -11.1135   ZZ=            -11.1136
   XY=             -0.0018   XZ=              0.0009   YZ=              0.0000

 Normal termination of Gaussian 16 at Wed Nov 13 12:55:10 2024.
