 Gaussian 16, Revision A.03,
 Gaussian 16:  ES64L-G16RevA.03 25-Dec-2016

 --------------------------------------------
 #p opt UM062X/6-311+G** nosymm int=superfine
 --------------------------------------------

 -------------------
 Title Card Required
 -------------------
 Symbolic Z-matrix:
 Charge =  0 Multiplicity = 1

 SCF Done:  E(UM062X) =  -474.409845000     A.U. after   19 cycles
 SCF Done:  E(UM062X) =  -474.412001674     A.U. after   15 cycles
 SCF Done:  E(UM062X) =  -474.414279924     A.U. after   23 cycles
 SCF Done:  E(UM062X) =  -474.414332642     A.U. after   17 cycles
 SCF Done:  E(UM062X) =  -474.414338336     A.U. after   18 cycles
 SCF Done:  E(UM062X) =  -474.414338468     A.U. after   29 cycles
 SCF Done:  E(UM062X) =  -474.414340306     A.U. after   13 cycles
 SCF Done:  E(UM062X) =  -474.414340555     A.U. after   15 cycles
 SCF Done:  E(UM062X) =  -474.414340641     A.U. after   13 cycles
 Optimization completed.
    -- Stationary point found.

                          Input orientation:
 ---------------------------------------------------------------------
 Center     Atomic      Atomic             Coordinates (Angstroms)
 Number     Number       Type             X           Y           Z
 ---------------------------------------------------------------------
      1          8           0       -1.464392    0.000000    0.000000
      2         16           0        1.464392    0.000000    0.000000
      3          1           0       -1.460294   -0.921628   -0.302474
      4          1           0        1.304442    0.447420    1.259600
 ---------------------------------------------------------------------

 Alpha  occ. eigenvalues --  -89.97808 -19.67521  -8.33890  -6.26110  -6.25735
 Alpha  occ. eigenvalues --   -6.25175  -1.08622  -0.83565  -0.52655  -0.49422
 Alpha  occ. eigenvalues --   -0.39877  -0.36560  -0.35386
 Alpha virt. eigenvalues --   -0.19773   0.01618   0.04010   0.04656   0.05561
 Alpha virt. eigenvalues --    0.07185   0.14314   0.19418   0.19938   0.21359
 Alpha virt. eigenvalues --    0.25993   0.31057   0.33972   0.35364   0.39701

  Beta  occ. eigenvalues --  -89.97808 -19.67521  -8.33890  -6.26110  -6.25735
  Beta  occ. eigenvalues --   -6.25175  -1.08622  -0.83565  -0.52655  -0.49422
  Beta  occ. eigenvalues --   -0.39877  -0.36560  -0.35386
  Beta virt. eigenvalues --   -0.19773   0.01618   0.04010   0.04656   0.05561
  Beta virt. eigenvalues --    0.07185   0.14314   0.19418   0.19938   0.21359
  Beta virt. eigenvalues --    0.25993   0.31057   0.33972   0.35364   0.39701

 Mulliken charges and spin densities:
               1          2
     1  O   -0.416980   0.000001
     2  S    0.056642  -0.000001
     3  H    0.248934  -0.000000
     4  H    0.111404   0.000000
 Sum of Mulliken charges =  -0.00000  -0.00000

 Dipole moment (field-independent basis, Debye):
    X=              2.0746    Y=             -1.2396    Z=              0.5713  Tot=              2.4834
 Quadrupole moment (field-independent basis, Debye-Ang):
   XX=            -18.1784   YY=            -19.9320   ZZ=            -18.7519
   XY=              3.2082   XZ=              2.5058   YZ=              2.0491

 Normal termination of Gaussian 16 at Thu May 15 13:04:23 2025.
