 Gaussian 16, Revision A.03,
 Gaussian 16:  ES64L-G16RevA.03 25-Dec-2016

 --------------------------------------------
 #p opt UM062X/6-311+G** nosymm int=superfine
 --------------------------------------------

 -------------------
 Title Card Required
 -------------------
 Symbolic Z-matrix:
 Charge =  0 Multiplicity = 1

 SCF Done:  E(UM062X) =  -79.7418994468     A.U. after    8 cycles
 SCF Done:  E(UM062X) =  -79.7581216522     A.U. after    8 cycles
 SCF Done:  E(UM062X) =  -79.7625026139     A.U. after    8 cycles
 SCF Done:  E(UM062X) =  -79.7625100053     A.U. after    6 cycles
 Optimization completed.
    -- Stationary point found.

                          Input orientation:
 ---------------------------------------------------------------------
 Center     Atomic      Atomic             Coordinates (Angstroms)
 Number     Number       Type             X           Y           Z
 ---------------------------------------------------------------------
      1          6           0       -0.939163    0.000000    0.000000
      2          6           0        0.939259    0.000000    0.000000
      3          1           0        1.258157   -0.898876    0.520146
      4          1           0       -1.258061   -0.899890   -0.518391
      5          1           0        1.258158    0.899890    0.518390
      6          1           0        1.258174   -0.001013   -1.038517
      7          1           0       -1.258060    0.898876   -0.520146
      8          1           0       -1.258079    0.001013    1.038516
 ---------------------------------------------------------------------

 Alpha  occ. eigenvalues --  -10.53995 -10.53982  -0.80155  -0.71894  -0.48674
 Alpha  occ. eigenvalues --   -0.48674  -0.43383  -0.43383  -0.35628
 Alpha virt. eigenvalues --    0.02278   0.03375   0.05638   0.05638   0.08574
 Alpha virt. eigenvalues --    0.08574   0.09313   0.13134   0.15782   0.18297
 Alpha virt. eigenvalues --    0.18297   0.21879   0.21879   0.24256   0.27324

  Beta  occ. eigenvalues --  -10.53995 -10.53982  -0.80155  -0.71894  -0.48674
  Beta  occ. eigenvalues --   -0.48674  -0.43383  -0.43383  -0.35628
  Beta virt. eigenvalues --    0.02278   0.03375   0.05638   0.05638   0.08574
  Beta virt. eigenvalues --    0.08574   0.09313   0.13134   0.15782   0.18297
  Beta virt. eigenvalues --    0.18297   0.21879   0.21879   0.24256   0.27324

 Mulliken charges and spin densities:
               1          2
     1  C   -0.492017  -0.000000
     2  C   -0.492017   0.000000
     3  H    0.164006  -0.000000
     4  H    0.164006   0.000000
     5  H    0.164006  -0.000000
     6  H    0.164005  -0.000000
     7  H    0.164006   0.000000
     8  H    0.164005   0.000000
 Sum of Mulliken charges =  -0.00000   0.00000

 Dipole moment (field-independent basis, Debye):
    X=             -0.0000    Y=             -0.0000    Z=             -0.0000  Tot=              0.0000
 Quadrupole moment (field-independent basis, Debye-Ang):
   XX=            -15.6033   YY=            -14.9131   ZZ=            -14.9130
   XY=              0.0000   XZ=             -0.0000   YZ=             -0.0000

 Normal termination of Gaussian 16 at Tue Nov 19 12:02:03 2024.
