 Gaussian 16, Revision A.03,
 Gaussian 16:  ES64L-G16RevA.03 25-Dec-2016

 --------------------------------------------
 #p opt UM062X/6-311+G** nosymm int=superfine
 --------------------------------------------

 -------------------
 Title Card Required
 -------------------
 Symbolic Z-matrix:
 Charge =  0 Multiplicity = 1

 SCF Done:  E(UM062X) =  -579.991816508     A.U. after    8 cycles

 Alpha  occ. eigenvalues --  -67.02325 -67.02325  -5.57274  -5.57236  -3.88408
 Alpha  occ. eigenvalues --   -3.88408  -3.88382  -3.88382  -3.88374  -3.88161
 Alpha  occ. eigenvalues --   -0.62474  -0.54943  -0.43764  -0.25314  -0.25314
 Alpha virt. eigenvalues --   -0.05645  -0.03850  -0.03850   0.01560   0.02437
 Alpha virt. eigenvalues --    0.03879   0.04913   0.04913   0.07307   0.07307
 Alpha virt. eigenvalues --    0.12173   0.15769   0.23587   0.28223   0.29182

  Beta  occ. eigenvalues --  -67.02325 -67.02325  -5.57274  -5.57236  -3.88408
  Beta  occ. eigenvalues --   -3.88408  -3.88382  -3.88382  -3.88374  -3.88161
  Beta  occ. eigenvalues --   -0.62474  -0.54943  -0.43764  -0.25314  -0.25314
  Beta virt. eigenvalues --   -0.05645  -0.03850  -0.03850   0.01560   0.02437
  Beta virt. eigenvalues --    0.03879   0.04913   0.04913   0.07307   0.07307
  Beta virt. eigenvalues --    0.12173   0.15769   0.23587   0.28223   0.29182

 Mulliken charges and spin densities:
               1          2
     1  Si  -0.023893   0.000000
     2  Si  -0.023893  -0.000000
     3  H    0.023893   0.000000
     4  H    0.023893  -0.000000
 Sum of Mulliken charges =  -0.00000   0.00000

 Dipole moment (field-independent basis, Debye):
    X=             -0.0000    Y=              0.0000    Z=             -0.0000  Tot=              0.0000
 Quadrupole moment (field-independent basis, Debye-Ang):
   XX=            -20.2036   YY=            -30.7946   ZZ=            -30.7946
   XY=              0.0001   XZ=              0.0000   YZ=             -0.0000

 Optimization completed.
    -- Stationary point found.

                          Input orientation:
 ---------------------------------------------------------------------
 Center     Atomic      Atomic             Coordinates (Angstroms)
 Number     Number       Type             X           Y           Z
 ---------------------------------------------------------------------
      1         14           0       -1.028705    0.000000    0.000000
      2         14           0        1.028705    0.000000    0.000000
      3          1           0       -2.487080   -0.000027    0.000000
      4          1           0        2.487080    0.000038    0.000000
 ---------------------------------------------------------------------

 Normal termination of Gaussian 16 at Mon Apr 21 21:22:24 2025.
