 Gaussian 16, Revision A.03,
 Gaussian 16:  ES64L-G16RevA.03 25-Dec-2016

 ----------------------------------------------------------------------
 #p opt UM062X/6-311+G** nosymm int=superfine SCF=(MaxCycle=200,NoVarAc
 c,noincfock) guess=read
 ----------------------------------------------------------------------

 -------------------
 Title Card Required
 -------------------
 Symbolic Z-matrix:
 Charge =  0 Multiplicity = 1

 SCF Done:  E(UM062X) =  -474.455503923     A.U. after   63 cycles
 SCF Done:  E(UM062X) =  -474.455838444     A.U. after   79 cycles
 SCF Done:  E(UM062X) =  -474.455839748     A.U. after   52 cycles
 Optimization completed on the basis of negligible forces.
    -- Stationary point found.

                          Input orientation:
 ---------------------------------------------------------------------
 Center     Atomic      Atomic             Coordinates (Angstroms)
 Number     Number       Type             X           Y           Z
 ---------------------------------------------------------------------
      1          8           0       -1.411007    0.000000    0.000000
      2         16           0        1.411007    0.000000    0.000000
      3          1           0       -2.383627   -0.001294   -0.000609
      4          1           0        2.758471    0.000576   -0.001383
 ---------------------------------------------------------------------

 Alpha  occ. eigenvalues --  -89.91262 -19.67960  -8.27359  -6.20540  -6.19292
 Alpha  occ. eigenvalues --   -6.18725  -1.06615  -0.80926  -0.54455  -0.44822
 Alpha  occ. eigenvalues --   -0.40652  -0.36105  -0.31904
 Alpha virt. eigenvalues --   -0.10908   0.03585   0.04812   0.06565   0.06820
 Alpha virt. eigenvalues --    0.08759   0.13480   0.18956   0.19231   0.22055
 Alpha virt. eigenvalues --    0.32851   0.35854   0.36684   0.40907   0.43907

  Beta  occ. eigenvalues --  -89.90349 -19.69562  -8.27121  -6.19003  -6.18417
  Beta  occ. eigenvalues --   -6.18135  -1.14909  -0.76014  -0.57442  -0.50703
  Beta  occ. eigenvalues --   -0.44299  -0.43399  -0.29838
  Beta virt. eigenvalues --   -0.11941   0.02649   0.04606   0.06489   0.06794
  Beta virt. eigenvalues --    0.08081   0.13454   0.17697   0.18735   0.22876
  Beta virt. eigenvalues --    0.32840   0.33618   0.36314   0.39986   0.43698

 Mulliken charges and spin densities:
               1          2
     1  O   -0.247131  -1.020820
     2  S   -0.143237   1.020042
     3  H    0.302890   0.021936
     4  H    0.087478  -0.021158
 Sum of Mulliken charges =  -0.00000  -0.00000

 Dipole moment (field-independent basis, Debye):
    X=             -1.0853    Y=             -0.0020    Z=             -0.0023  Tot=              1.0853
 Quadrupole moment (field-independent basis, Debye-Ang):
   XX=             -8.8885   YY=            -22.4300   ZZ=            -19.1971
   XY=              0.0082   XZ=              0.0007   YZ=             -1.4963

 Normal termination of Gaussian 16 at Tue Apr 22 05:36:01 2025.
