 Gaussian 16, Revision A.03,
 Gaussian 16:  ES64L-G16RevA.03 25-Dec-2016

 --------------------------------------------
 #p opt UM062X/6-311+G** nosymm int=superfine
 --------------------------------------------

 -------------------
 Title Card Required
 -------------------
 Symbolic Z-matrix:
 Charge =  0 Multiplicity = 1

 SCF Done:  E(UM062X) =  -685.004061109     A.U. after   11 cycles
 SCF Done:  E(UM062X) =  -685.006044178     A.U. after   10 cycles
 SCF Done:  E(UM062X) =  -685.006678750     A.U. after   10 cycles
 SCF Done:  E(UM062X) =  -685.006716335     A.U. after    9 cycles
 SCF Done:  E(UM062X) =  -685.006730851     A.U. after    9 cycles
 SCF Done:  E(UM062X) =  -685.006740490     A.U. after   11 cycles
 SCF Done:  E(UM062X) =  -685.006761282     A.U. after   10 cycles
 SCF Done:  E(UM062X) =  -685.006813831     A.U. after   10 cycles
 SCF Done:  E(UM062X) =  -684.991221151     A.U. after   12 cycles
 SCF Done:  E(UM062X) =  -685.006890424     A.U. after   10 cycles
 SCF Done:  E(UM062X) =  -685.006971243     A.U. after    9 cycles
 SCF Done:  E(UM062X) =  -685.006976401     A.U. after    9 cycles
 SCF Done:  E(UM062X) =  -684.987895311     A.U. after   12 cycles
 SCF Done:  E(UM062X) =  -685.006957297     A.U. after   10 cycles
 SCF Done:  E(UM062X) =  -685.006983106     A.U. after    8 cycles
 SCF Done:  E(UM062X) =  -685.006982932     A.U. after    8 cycles
 SCF Done:  E(UM062X) =  -685.006980957     A.U. after    9 cycles
 SCF Done:  E(UM062X) =  -685.006984402     A.U. after    8 cycles
 SCF Done:  E(UM062X) =  -685.006984400     A.U. after    7 cycles
 SCF Done:  E(UM062X) =  -685.006984425     A.U. after    7 cycles
 Optimization completed.
    -- Stationary point found.

                          Input orientation:
 ---------------------------------------------------------------------
 Center     Atomic      Atomic             Coordinates (Angstroms)
 Number     Number       Type             X           Y           Z
 ---------------------------------------------------------------------
      1         15           0       -1.492217    0.000000    0.000000
      2         15           0        1.492217    0.000000    0.000000
      3          1           0        1.481987   -0.943270    1.058483
      4          1           0       -1.482651    1.023541    0.981269
      5          1           0        1.482510   -1.023453   -0.981350
      6          1           0       -1.482219    0.943197   -1.058562
 ---------------------------------------------------------------------

 Alpha  occ. eigenvalues --  -78.04313 -78.04313  -6.86669  -6.86668  -4.98214
 Alpha  occ. eigenvalues --   -4.98213  -4.98128  -4.98128  -4.97936  -4.97936
 Alpha  occ. eigenvalues --   -0.72234  -0.69243  -0.45441  -0.43929  -0.36533
 Alpha  occ. eigenvalues --   -0.35696  -0.28903
 Alpha virt. eigenvalues --   -0.07941   0.01471   0.03228   0.03359   0.04178
 Alpha virt. eigenvalues --    0.04679   0.05286   0.06216   0.06376   0.06826
 Alpha virt. eigenvalues --    0.09101   0.16571   0.18783   0.28379   0.28657

  Beta  occ. eigenvalues --  -78.04313 -78.04313  -6.86669  -6.86668  -4.98214
  Beta  occ. eigenvalues --   -4.98213  -4.98128  -4.98128  -4.97936  -4.97936
  Beta  occ. eigenvalues --   -0.72234  -0.69243  -0.45441  -0.43929  -0.36533
  Beta  occ. eigenvalues --   -0.35696  -0.28903
  Beta virt. eigenvalues --   -0.07941   0.01471   0.03228   0.03359   0.04178
  Beta virt. eigenvalues --    0.04679   0.05286   0.06216   0.06376   0.06826
  Beta virt. eigenvalues --    0.09101   0.16571   0.18783   0.28379   0.28657

 Mulliken charges and spin densities:
               1          2
     1  P   -0.043599   0.000000
     2  P   -0.043559  -0.000000
     3  H    0.021788   0.000000
     4  H    0.021791  -0.000000
     5  H    0.021791   0.000000
     6  H    0.021788  -0.000000
 Sum of Mulliken charges =  -0.00000  -0.00000

 Dipole moment (field-independent basis, Debye):
    X=              0.0000    Y=             -0.0000    Z=             -0.0001  Tot=              0.0001
 Quadrupole moment (field-independent basis, Debye-Ang):
   XX=            -30.1268   YY=            -30.9838   ZZ=            -28.1823
   XY=             -3.5929   XZ=              0.1407   YZ=              0.1101

 Normal termination of Gaussian 16 at Mon Apr 21 20:51:04 2025.
