 Gaussian 16, Revision A.03,
 Gaussian 16:  ES64L-G16RevA.03 25-Dec-2016

 ---------------------------------------
 #p UM062X/6-311+G** force int=superfine
 ---------------------------------------

 -------------------
 Title Card Required
 -------------------
 Symbolic Z-matrix:
 Charge =  1 Multiplicity = 2

                         Standard orientation:
 ---------------------------------------------------------------------
 Center     Atomic      Atomic             Coordinates (Angstroms)
 Number     Number       Type             X           Y           Z
 ---------------------------------------------------------------------
      1          6           0        0.000000    0.954304    0.000000
      2          6           0       -0.000000   -0.954304    0.000000
      3          1           0        0.974085    1.431211    0.000000
      4          1           0       -0.973989    1.431251    0.000000
      5          1           0       -0.974085   -1.431211    0.000000
      6          1           0        0.973989   -1.431251    0.000000
 ---------------------------------------------------------------------

 SCF Done:  E(UM062X) =  -78.0907117368     A.U. after    9 cycles

 The electronic state is 2-AU.
 Alpha  occ. eigenvalues --  -10.91965 -10.91946  -1.08171  -0.99735  -0.81159
 Alpha  occ. eigenvalues --   -0.76946  -0.69496  -0.57759
 Alpha virt. eigenvalues --   -0.35574  -0.20878  -0.14260  -0.11141  -0.09655
 Alpha virt. eigenvalues --   -0.08579  -0.07398  -0.07284  -0.04738  -0.04305
 Alpha virt. eigenvalues --   -0.02279  -0.00952   0.02326   0.09508   0.18166

  Beta  occ. eigenvalues --  -10.91733 -10.91721  -1.04969  -0.97556  -0.80548
  Beta  occ. eigenvalues --   -0.76595  -0.68080
  Beta virt. eigenvalues --   -0.36384  -0.27123  -0.18495  -0.15693  -0.11506
  Beta virt. eigenvalues --   -0.09475  -0.08212  -0.07802  -0.07354  -0.04341
  Beta virt. eigenvalues --   -0.03978  -0.01854  -0.00345   0.01598   0.10154

 Mulliken charges and spin densities:
               1          2
     1  C   -0.065744   0.540736
     2  C   -0.065744   0.540736
     3  H    0.282875  -0.020369
     4  H    0.282869  -0.020367
     5  H    0.282875  -0.020369
     6  H    0.282869  -0.020367
 Sum of Mulliken charges =   1.00000   1.00000

 Dipole moment (field-independent basis, Debye):
    X=             -0.0000    Y=              0.0000    Z=              0.0000  Tot=              0.0000
 Quadrupole moment (field-independent basis, Debye-Ang):
   XX=             -8.2146   YY=             -2.8339   ZZ=            -12.3605
   XY=              0.0001   XZ=             -0.0000   YZ=             -0.0000

 Normal termination of Gaussian 16 at Tue Nov 19 11:56:02 2024.
