 Gaussian 16, Revision A.03,
 Gaussian 16:  ES64L-G16RevA.03 25-Dec-2016

 --------------------------------------------
 #p opt UM062X/6-311+G** nosymm int=superfine
 --------------------------------------------

 -------------------
 Title Card Required
 -------------------
 Symbolic Z-matrix:
 Charge =  0 Multiplicity = 2

 SCF Done:  E(UM062X) =  -55.8624230336     A.U. after   12 cycles
 SCF Done:  E(UM062X) =  -55.8648353043     A.U. after   10 cycles
 SCF Done:  E(UM062X) =  -55.8649784933     A.U. after   10 cycles
 Optimization completed.
    -- Stationary point found.

                          Input orientation:
 ---------------------------------------------------------------------
 Center     Atomic      Atomic             Coordinates (Angstroms)
 Number     Number       Type             X           Y           Z
 ---------------------------------------------------------------------
      1          7           0        0.638933    0.000000    0.000000
      2          1           0        1.274995    0.805016   -0.000107
      3          1           0        1.274994   -0.805016    0.000103
 ---------------------------------------------------------------------

 Alpha  occ. eigenvalues --  -14.77541  -0.96424  -0.55071  -0.40798  -0.38916
 Alpha virt. eigenvalues --    0.04888   0.10571   0.13111   0.13421   0.17707
 Alpha virt. eigenvalues --    0.20130   0.51966   0.59544   0.76554   0.77023
 Alpha virt. eigenvalues --    0.78943   0.95773   1.22345   1.23647   1.39972

  Beta  occ. eigenvalues --  -14.76451  -0.90115  -0.53227  -0.37389
  Beta virt. eigenvalues --   -0.06890   0.03677   0.10417   0.13490   0.14383
  Beta virt. eigenvalues --    0.18207   0.20656   0.52156   0.60248   0.77769
  Beta virt. eigenvalues --    0.78350   0.82915   0.97757   1.23643   1.26229

 Mulliken charges and spin densities:
               1          2
     1  N   -0.432010   1.082551
     2  H    0.216005  -0.041276
     3  H    0.216005  -0.041276
 Sum of Mulliken charges =  -0.00000   1.00000

 Dipole moment (field-independent basis, Debye):
    X=              2.1139    Y=             -0.0000    Z=             -0.0000  Tot=              2.1139
 Quadrupole moment (field-independent basis, Debye-Ang):
   XX=             -4.5470   YY=             -5.6039   ZZ=             -7.2496
   XY=              0.0000   XZ=             -0.0000   YZ=             -0.0002

 1\1\GINC-NODE02\FOpt\UM062X\6-311+G(d,p)\H2N1(2)\SZHAO\16-Apr-2025\0\\
 #p opt UM062X/6-311+G** nosymm int=superfine\\Title Card Required\\0,2
 \N,0.6389331503,0.0000002831,0.0000001751\H,1.2749952596,0.805015766,-
 0.0001069827\H,1.2749936,-0.8050164891,0.0001033877\\Version=ES64L-G16
 RevA.03\HF=-55.8649785\S2=0.753796\S2-1=0.\S2A=0.750011\RMSD=6.580e-09
 \RMSF=1.884e-04\Dipole=0.8316592,-0.0000009,-0.0000026\Quadrupole=0.93
 17124,0.1459327,-1.0776451,0.0000007,-0.0000028,-0.0001599\PG=C01 [X(H
 2N1)]\\@

 Normal termination of Gaussian 16 at Wed Apr 16 07:42:29 2025.
