 Gaussian 16, Revision A.03,
 Gaussian 16:  ES64L-G16RevA.03 25-Dec-2016

 ---------------------------------------
 #p UM062X/6-311+G** force int=superfine
 ---------------------------------------

 -------------------
 Title Card Required
 -------------------
 Symbolic Z-matrix:
 Charge =  0 Multiplicity = 1

                         Standard orientation:
 ---------------------------------------------------------------------
 Center     Atomic      Atomic             Coordinates (Angstroms)
 Number     Number       Type             X           Y           Z
 ---------------------------------------------------------------------
      1          6           0       -0.000000    0.623100    0.000000
      2          6           0       -0.000000   -0.623100    0.000000
      3          1           0        0.917048    1.205730    0.000000
      4          1           0       -0.916902    1.205856   -0.000000
      5          1           0       -0.917048   -1.205730    0.000000
      6          1           0        0.916902   -1.205856    0.000000
 ---------------------------------------------------------------------

 SCF Done:  E(UM062X) =  -78.5551381494     A.U. after    8 cycles

 The electronic state is 1-AG.
 Alpha  occ. eigenvalues --  -10.52565 -10.52372  -0.88099  -0.65486  -0.54966
 Alpha  occ. eigenvalues --   -0.49833  -0.40315  -0.35138
 Alpha virt. eigenvalues --    0.03401   0.04031   0.04150   0.04990   0.07488
 Alpha virt. eigenvalues --    0.08342   0.09743   0.14325   0.16083   0.17527
 Alpha virt. eigenvalues --    0.19666   0.23620   0.32024   0.37949   0.44279

  Beta  occ. eigenvalues --  -10.52565 -10.52372  -0.88099  -0.65486  -0.54966
  Beta  occ. eigenvalues --   -0.49833  -0.40315  -0.35138
  Beta virt. eigenvalues --    0.03401   0.04031   0.04150   0.04990   0.07488
  Beta virt. eigenvalues --    0.08342   0.09743   0.14325   0.16083   0.17527
  Beta virt. eigenvalues --    0.19666   0.23620   0.32024   0.37949   0.44279

 Mulliken charges and spin densities:
               1          2
     1  C   -0.286395   0.000000
     2  C   -0.286395   0.000000
     3  H    0.143189  -0.000000
     4  H    0.143206  -0.000000
     5  H    0.143189  -0.000000
     6  H    0.143206  -0.000000
 Sum of Mulliken charges =  -0.00000  -0.00000

 Dipole moment (field-independent basis, Debye):
    X=             -0.0000    Y=             -0.0000    Z=             -0.0000  Tot=              0.0000
 Quadrupole moment (field-independent basis, Debye-Ang):
   XX=            -12.3201   YY=            -12.3435   ZZ=            -15.5398
   XY=             -0.0004   XZ=             -0.0000   YZ=             -0.0000

 Normal termination of Gaussian 16 at Tue Nov 19 11:43:34 2024.
