 Gaussian 16, Revision A.03,
 Gaussian 16:  ES64L-G16RevA.03 25-Dec-2016

 --------------------------------------------
 #p opt UM062X/6-311+G** nosymm int=superfine
 --------------------------------------------

 -------------------
 Title Card Required
 -------------------
 Symbolic Z-matrix:
 Charge =  0 Multiplicity = 1

 SCF Done:  E(UM062X) =  -94.3398778004     A.U. after   13 cycles
 SCF Done:  E(UM062X) =  -94.3495545527     A.U. after   12 cycles
 SCF Done:  E(UM062X) =  -94.3506234655     A.U. after   14 cycles
 SCF Done:  E(UM062X) =  -94.3506837189     A.U. after   15 cycles
 SCF Done:  E(UM062X) =  -94.3492468945     A.U. after   14 cycles
 SCF Done:  E(UM062X) =  -94.3507360723     A.U. after   12 cycles
 SCF Done:  E(UM062X) =  -94.3506928222     A.U. after   13 cycles
 SCF Done:  E(UM062X) =  -94.3507652838     A.U. after   13 cycles
 SCF Done:  E(UM062X) =  -94.3507668869     A.U. after   13 cycles
 Optimization completed.
    -- Stationary point found.

                          Input orientation:
 ---------------------------------------------------------------------
 Center     Atomic      Atomic             Coordinates (Angstroms)
 Number     Number       Type             X           Y           Z
 ---------------------------------------------------------------------
      1          6           0       -1.081637    0.000000    0.000000
      2          7           0        1.081637    0.000000    0.000000
      3          1           0       -1.616218   -0.942886    0.005322
      4          1           0        1.073436   -1.033632    0.005700
      5          1           0       -1.509066    0.993817   -0.005271
 ---------------------------------------------------------------------

 Alpha  occ. eigenvalues --  -14.81849 -10.66853  -0.88009  -0.77885  -0.55433
 Alpha  occ. eigenvalues --   -0.43636  -0.36133  -0.29284
 Alpha virt. eigenvalues --   -0.11751  -0.04058   0.02116   0.04692   0.06423
 Alpha virt. eigenvalues --    0.07880   0.12479   0.14996   0.15823   0.17276
 Alpha virt. eigenvalues --    0.20397   0.22060   0.26917   0.41239   0.43051

  Beta  occ. eigenvalues --  -14.81849 -10.66853  -0.88009  -0.77885  -0.55433
  Beta  occ. eigenvalues --   -0.43636  -0.36133  -0.29284
  Beta virt. eigenvalues --   -0.11751  -0.04058   0.02116   0.04692   0.06423
  Beta virt. eigenvalues --    0.07880   0.12479   0.14996   0.15823   0.17276
  Beta virt. eigenvalues --    0.20397   0.22060   0.26917   0.41239   0.43051

 Mulliken charges and spin densities:
               1          2
     1  C   -0.313841  -0.000000
     2  N   -0.278713   0.000000
     3  H    0.194972  -0.000000
     4  H    0.195240  -0.000000
     5  H    0.202342  -0.000000
 Sum of Mulliken charges =  -0.00000   0.00000

 Dipole moment (field-independent basis, Debye):
    X=             -2.9035    Y=             -1.4592    Z=              0.0084  Tot=              3.2496
 Quadrupole moment (field-independent basis, Debye-Ang):
   XX=            -11.6617   YY=            -11.5624   ZZ=            -15.8018
   XY=             -1.9857   XZ=              0.0108   YZ=             -0.0233

 Normal termination of Gaussian 16 at Mon Apr 21 18:22:26 2025.
