 Gaussian 16, Revision A.03,
 Gaussian 16:  ES64L-G16RevA.03 25-Dec-2016

 --------------------------------------------
 #p opt UM062X/6-311+G** nosymm int=superfine
 --------------------------------------------

 -------------------
 Title Card Required
 -------------------
 Symbolic Z-matrix:
 Charge =  0 Multiplicity = 1

 SCF Done:  E(UM062X) =  -78.2447066151     A.U. after    8 cycles
 SCF Done:  E(UM062X) =  -78.2451836661     A.U. after    8 cycles
 SCF Done:  E(UM062X) =  -78.2454107129     A.U. after    9 cycles
 Optimization completed.
    -- Stationary point found.

                          Input orientation:
 ---------------------------------------------------------------------
 Center     Atomic      Atomic             Coordinates (Angstroms)
 Number     Number       Type             X           Y           Z
 ---------------------------------------------------------------------
      1          6           0       -1.260595    0.000000    0.000000
      2          6           0        1.260595    0.000000    0.000000
      3          1           0       -1.671043   -0.996268    0.000000
      4          1           0       -1.671039    0.996270    0.000000
      5          1           0        1.671043    0.996268    0.000000
      6          1           0        1.671039   -0.996270    0.000000
 ---------------------------------------------------------------------

 Alpha  occ. eigenvalues --  -10.62765 -10.62759  -0.76049  -0.73512  -0.53526
 Alpha  occ. eigenvalues --   -0.52407  -0.32174  -0.23910
 Alpha virt. eigenvalues --   -0.10178  -0.05502   0.03378   0.05305   0.05551
 Alpha virt. eigenvalues --    0.07011   0.09400   0.10208   0.11155   0.14401
 Alpha virt. eigenvalues --    0.16275   0.18971   0.21500   0.27234   0.39360

  Beta  occ. eigenvalues --  -10.62765 -10.62759  -0.76049  -0.73512  -0.53526
  Beta  occ. eigenvalues --   -0.52407  -0.32174  -0.23910
  Beta virt. eigenvalues --   -0.10178  -0.05502   0.03378   0.05305   0.05551
  Beta virt. eigenvalues --    0.07011   0.09400   0.10208   0.11155   0.14401
  Beta virt. eigenvalues --    0.16275   0.18971   0.21500   0.27234   0.39360

 Mulliken charges and spin densities:
               1          2
     1  C   -0.381410  -0.000000
     2  C   -0.381410   0.000000
     3  H    0.190705   0.000000
     4  H    0.190705   0.000000
     5  H    0.190705  -0.000000
     6  H    0.190705  -0.000000
 Sum of Mulliken charges =  -0.00000  -0.00000

 Dipole moment (field-independent basis, Debye):
    X=              0.0000    Y=             -0.0000    Z=              0.0000  Tot=              0.0000
 Quadrupole moment (field-independent basis, Debye-Ang):
   XX=            -10.2494   YY=            -11.8978   ZZ=            -18.9189
   XY=              0.0000   XZ=              0.0000   YZ=              0.0000

 Normal termination of Gaussian 16 at Tue Dec  3 11:06:24 2024.
