 Gaussian 16, Revision A.03,
 Gaussian 16:  ES64L-G16RevA.03 25-Dec-2016

 ---------------------------------------------------
 #p UM062X/6-311+G** force int=superfine pop=saveNBO
 ---------------------------------------------------

 -------------------
 Title Card Required
 -------------------
 Symbolic Z-matrix:
 Charge =  0 Multiplicity = 1

                         Standard orientation:
 ---------------------------------------------------------------------
 Center     Atomic      Atomic             Coordinates (Angstroms)
 Number     Number       Type             X           Y           Z
 ---------------------------------------------------------------------
      1          8           0        0.000000    0.000000    1.318562
      2          8           0        0.000000    0.000000   -1.318562
 ---------------------------------------------------------------------

 SCF Done:  E(UM062X) =  -149.852603083     A.U. after   10 cycles

 Unable to determine electronic state:  partially filled degenerate orbitals.
 Alpha  occ. eigenvalues --  -19.83408 -19.83404  -1.11273  -1.09633  -0.49298
 Alpha  occ. eigenvalues --   -0.48307  -0.43690  -0.41461
 Alpha virt. eigenvalues --   -0.29857  -0.27294   0.10026   0.12727   0.14705
 Alpha virt. eigenvalues --    0.14760   0.20060   0.20341   0.21071   0.30436
 Alpha virt. eigenvalues --    0.90922   0.98431   0.99580   1.03040   1.04369

  Beta  occ. eigenvalues --  -19.83408 -19.83404  -1.11273  -1.09633  -0.49298
  Beta  occ. eigenvalues --   -0.48307  -0.43690  -0.41461
  Beta virt. eigenvalues --   -0.29857  -0.27294   0.10026   0.12727   0.14705
  Beta virt. eigenvalues --    0.14760   0.20060   0.20341   0.21071   0.30436
  Beta virt. eigenvalues --    0.90922   0.98431   0.99580   1.03040   1.04369

 Mulliken charges and spin densities:
               1          2
     1  O   -0.000000   0.000000
     2  O   -0.000000   0.000000
 Sum of Mulliken charges =  -0.00000   0.00000

 Dipole moment (field-independent basis, Debye):
    X=             -0.0000    Y=             -0.0000    Z=              0.0000  Tot=              0.0000
 Quadrupole moment (field-independent basis, Debye-Ang):
   XX=            -10.1918   YY=            -11.9874   ZZ=             -9.1060
   XY=              0.0000   XZ=             -0.0000   YZ=              0.0000

 Summary of Natural Population Analysis:

                                       Natural Population
                Natural  -----------------------------------------------
    Atom  No    Charge         Core      Valence    Rydberg      Total
 -----------------------------------------------------------------------
      O    1   -0.00000      1.00000     2.99909    0.00092     4.00000
      O    2   -0.00000      1.00000     2.99909    0.00092     4.00000
 =======================================================================
   * Total *   -0.00000      2.00000     5.99817    0.00183     8.00000

 Normal termination of Gaussian 16 at Mon Apr 21 19:53:22 2025.
