 Gaussian 16, Revision A.03,
 Gaussian 16:  ES64L-G16RevA.03 25-Dec-2016

 ---------------------------------------
 #p UM062X/6-311+G** force int=superfine
 ---------------------------------------

 -------------------
 Title Card Required
 -------------------
 Symbolic Z-matrix:
 Charge =  1 Multiplicity = 2

                         Standard orientation:
 ---------------------------------------------------------------------
 Center     Atomic      Atomic             Coordinates (Angstroms)
 Number     Number       Type             X           Y           Z
 ---------------------------------------------------------------------
      1          6           0        0.000000    0.607927    0.000000
      2          6           0       -0.000000   -0.607927   -0.000000
      3          1           0        0.915624    1.199851   -0.000000
      4          1           0       -0.915546    1.199882    0.000000
      5          1           0       -0.915624   -1.199851   -0.000000
      6          1           0        0.915546   -1.199882    0.000000
 ---------------------------------------------------------------------

 SCF Done:  E(UM062X) =  -78.1371091393     A.U. after    9 cycles

 The electronic state is 2-AU.
 Alpha  occ. eigenvalues --  -10.88185 -10.87935  -1.25561  -0.96736  -0.87668
 Alpha  occ. eigenvalues --   -0.83350  -0.72566  -0.69916
 Alpha virt. eigenvalues --   -0.25419  -0.14853  -0.13728  -0.12466  -0.10456
 Alpha virt. eigenvalues --   -0.08026  -0.06568  -0.04963  -0.04211  -0.03231
 Alpha virt. eigenvalues --   -0.00063   0.03124   0.11835   0.14293   0.21412

  Beta  occ. eigenvalues --  -10.87927 -10.87692  -1.21035  -0.94887  -0.86251
  Beta  occ. eigenvalues --   -0.82437  -0.69654
  Beta virt. eigenvalues --   -0.45767  -0.19307  -0.16475  -0.13585  -0.12431
  Beta virt. eigenvalues --   -0.11132  -0.08984  -0.06612  -0.04761  -0.02967
  Beta virt. eigenvalues --   -0.02862  -0.00315   0.03298   0.12291   0.14791

 Mulliken charges and spin densities:
               1          2
     1  C   -0.043542   0.536467
     2  C   -0.043542   0.536467
     3  H    0.271771  -0.018234
     4  H    0.271771  -0.018232
     5  H    0.271771  -0.018234
     6  H    0.271771  -0.018232
 Sum of Mulliken charges =   1.00000   1.00000

 Dipole moment (field-independent basis, Debye):
    X=             -0.0000    Y=              0.0000    Z=             -0.0000  Tot=              0.0000
 Quadrupole moment (field-independent basis, Debye-Ang):
   XX=             -8.5157   YY=             -6.2876   ZZ=            -11.0432
   XY=              0.0000   XZ=              0.0000   YZ=              0.0000

 Normal termination of Gaussian 16 at Tue Nov 19 11:53:19 2024.
