 Gaussian 16, Revision A.03,
 Gaussian 16:  ES64L-G16RevA.03 25-Dec-2016

 --------------------------------------------
 #p opt UM062X/6-311+G** nosymm int=superfine
 --------------------------------------------

 -------------------
 Title Card Required
 -------------------
 Symbolic Z-matrix:
 Charge =  0 Multiplicity = 1

 SCF Done:  E(UM062X) =  -77.2576078909     A.U. after    9 cycles
 SCF Done:  E(UM062X) =  -77.2778735085     A.U. after    9 cycles
 SCF Done:  E(UM062X) =  -77.2786029118     A.U. after    8 cycles
 Optimization completed.
    -- Stationary point found.

                          Input orientation:
 ---------------------------------------------------------------------
 Center     Atomic      Atomic             Coordinates (Angstroms)
 Number     Number       Type             X           Y           Z
 ---------------------------------------------------------------------
      1          6           0       -0.676323    0.000000    0.000000
      2          6           0        0.676323    0.000000    0.000000
      3          1           0       -1.743642    0.000000   -0.000000
      4          1           0        1.743643    0.000000   -0.000000
 ---------------------------------------------------------------------

 Alpha  occ. eigenvalues --  -10.59072 -10.58968  -0.82277  -0.66622  -0.56242
 Alpha  occ. eigenvalues --   -0.33563  -0.33563
 Alpha virt. eigenvalues --    0.01796   0.01796   0.02427   0.02494   0.07910
 Alpha virt. eigenvalues --    0.07910   0.09320   0.12796   0.12796   0.13936
 Alpha virt. eigenvalues --    0.18825   0.23875   0.35604   0.45455   0.58083

  Beta  occ. eigenvalues --  -10.59072 -10.58968  -0.82277  -0.66622  -0.56242
  Beta  occ. eigenvalues --   -0.33563  -0.33563
  Beta virt. eigenvalues --    0.01796   0.01796   0.02427   0.02494   0.07910
  Beta virt. eigenvalues --    0.07910   0.09320   0.12796   0.12796   0.13936
  Beta virt. eigenvalues --    0.18825   0.23875   0.35604   0.45455   0.58083

 Mulliken charges and spin densities:
               1          2
     1  C   -0.202151   0.000000
     2  C   -0.202151  -0.000000
     3  H    0.202151   0.000000
     4  H    0.202151   0.000000
 Sum of Mulliken charges =  -0.00000   0.00000

 Dipole moment (field-independent basis, Debye):
    X=              0.0000    Y=              0.0000    Z=             -0.0000  Tot=              0.0000
 Quadrupole moment (field-independent basis, Debye-Ang):
   XX=             -6.3398   YY=            -14.5080   ZZ=            -14.5080
   XY=              0.0000   XZ=              0.0000   YZ=             -0.0000

 Normal termination of Gaussian 16 at Tue Dec  3 20:05:48 2024.
