 Gaussian 16, Revision A.03,
 Gaussian 16:  ES64L-G16RevA.03 25-Dec-2016

 --------------------------------------------
 #p opt UM062X/6-311+G** nosymm int=superfine
 --------------------------------------------

 -------------------
 Title Card Required
 -------------------
 Symbolic Z-matrix:
 Charge =  0 Multiplicity = 1

 SCF Done:  E(UM062X) =  -437.163828539     A.U. after   16 cycles
 SCF Done:  E(UM062X) =  -437.165838587     A.U. after    9 cycles
 SCF Done:  E(UM062X) =  -437.166538743     A.U. after   15 cycles
 Optimization completed.
    -- Stationary point found.

                          Input orientation:
 ---------------------------------------------------------------------
 Center     Atomic      Atomic             Coordinates (Angstroms)
 Number     Number       Type             X           Y           Z
 ---------------------------------------------------------------------
      1          6           0       -1.877140    0.000000    0.000000
      2         16           0        1.877140    0.000000    0.000000
      3          1           0       -2.550838   -0.874449   -0.000036
      4          1           0       -2.551796    0.873710   -0.000164
 ---------------------------------------------------------------------

 Alpha  occ. eigenvalues --  -89.93528 -10.63853  -8.29555  -6.22325  -6.20774
 Alpha  occ. eigenvalues --   -6.20772  -0.78064  -0.73682  -0.50565  -0.33892
 Alpha  occ. eigenvalues --   -0.31066  -0.31053
 Alpha virt. eigenvalues --   -0.15989  -0.10467   0.01199   0.04909   0.05400
 Alpha virt. eigenvalues --    0.06587   0.08137   0.08845   0.09181   0.14031
 Alpha virt. eigenvalues --    0.17102   0.18098   0.35561   0.36668   0.36923

  Beta  occ. eigenvalues --  -89.93528 -10.63853  -8.29555  -6.22325  -6.20774
  Beta  occ. eigenvalues --   -6.20772  -0.78064  -0.73682  -0.50565  -0.33892
  Beta  occ. eigenvalues --   -0.31066  -0.31053
  Beta virt. eigenvalues --   -0.15989  -0.10467   0.01199   0.04909   0.05400
  Beta virt. eigenvalues --    0.06587   0.08137   0.08845   0.09181   0.14031
  Beta virt. eigenvalues --    0.17102   0.18098   0.35561   0.36668   0.36923

 Mulliken charges and spin densities:
               1          2
     1  C   -0.276549  -0.000000
     2  S   -0.024999   0.000000
     3  H    0.150769   0.000000
     4  H    0.150779  -0.000000
 Sum of Mulliken charges =  -0.00000  -0.00000

 Dipole moment (field-independent basis, Debye):
    X=             -3.0986    Y=             -0.0011    Z=             -0.0003  Tot=              3.0986
 Quadrupole moment (field-independent basis, Debye-Ang):
   XX=            -10.8699   YY=            -22.3407   ZZ=            -21.8224
   XY=              0.0002   XZ=             -0.0001   YZ=              0.0000

 Normal termination of Gaussian 16 at Mon Apr 21 19:45:20 2025.
