 Gaussian 16, Revision A.03,
 Gaussian 16:  ES64L-G16RevA.03 25-Dec-2016

 --------------------------------------------
 #p opt UM062X/6-311+G** nosymm int=superfine
 --------------------------------------------

 -------------------
 Title Card Required
 -------------------
 Symbolic Z-matrix:
 Charge =  1 Multiplicity = 2

 SCF Done:  E(UM062X) =  -79.3137155719     A.U. after   10 cycles
 SCF Done:  E(UM062X) =  -79.3153069539     A.U. after    9 cycles
 SCF Done:  E(UM062X) =  -79.3153243649     A.U. after    9 cycles
 Optimization completed.
    -- Stationary point found.

                          Input orientation:
 ---------------------------------------------------------------------
 Center     Atomic      Atomic             Coordinates (Angstroms)
 Number     Number       Type             X           Y           Z
 ---------------------------------------------------------------------
      1          6           0       -2.111475    0.000000    0.000000
      2          6           0        2.111475    0.000000    0.000000
      3          1           0        2.135368   -0.937433    0.542571
      4          1           0       -2.133475   -0.938528   -0.540748
      5          1           0        2.134551    0.938623    0.540542
      6          1           0        2.133483   -0.001171   -1.083161
      7          1           0       -2.135426    0.937541   -0.542382
      8          1           0       -2.134499    0.000950    1.083141
 ---------------------------------------------------------------------

 Alpha  occ. eigenvalues --  -10.83095 -10.83094  -1.01697  -1.01460  -0.72791
 Alpha  occ. eigenvalues --   -0.72790  -0.72724  -0.72724  -0.46516
 Alpha virt. eigenvalues --   -0.37805  -0.12467  -0.10082  -0.09162  -0.09162
 Alpha virt. eigenvalues --   -0.06200  -0.06199  -0.04415  -0.02685   0.00379
 Alpha virt. eigenvalues --    0.00382   0.01473   0.01475   0.02392   0.09033

  Beta  occ. eigenvalues --  -10.82870 -10.82870  -0.99035  -0.98909  -0.72256
  Beta  occ. eigenvalues --   -0.72256  -0.72178  -0.72178
  Beta virt. eigenvalues --   -0.31921  -0.26682  -0.17027  -0.10498  -0.10497
  Beta virt. eigenvalues --   -0.10242  -0.06156  -0.06156  -0.05607  -0.01721
  Beta virt. eigenvalues --    0.00250   0.00253   0.01724   0.01726   0.02264

 Mulliken charges and spin densities:
               1          2
     1  C   -0.240814   0.558100
     2  C   -0.240816   0.558100
     3  H    0.246958  -0.019364
     4  H    0.246920  -0.019365
     5  H    0.246940  -0.019368
     6  H    0.246917  -0.019368
     7  H    0.246958  -0.019364
     8  H    0.246936  -0.019371
 Sum of Mulliken charges =   1.00000   1.00000

 Dipole moment (field-independent basis, Debye):
    X=             -0.0000    Y=             -0.0000    Z=             -0.0000  Tot=              0.0001
 Quadrupole moment (field-independent basis, Debye-Ang):
   XX=              9.8372   YY=            -11.1205   ZZ=            -11.1206
   XY=             -0.0020   XZ=              0.0012   YZ=              0.0000

 Normal termination of Gaussian 16 at Sat Nov 16 16:09:50 2024.
