 Gaussian 16, Revision A.03,
 Gaussian 16:  ES64L-G16RevA.03 25-Dec-2016

 --------------------------------------------
 #p opt UM062X/6-311+G** nosymm int=superfine
 --------------------------------------------

 -------------------
 Title Card Required
 -------------------
 Symbolic Z-matrix:
 Charge =  0 Multiplicity = 1

 SCF Done:  E(UM062X) =  -76.9235427172     A.U. after   14 cycles
 SCF Done:  E(UM062X) =  -76.9247984882     A.U. after   13 cycles
 SCF Done:  E(UM062X) =  -76.9255769919     A.U. after   14 cycles
 SCF Done:  E(UM062X) =  -76.9256392204     A.U. after   12 cycles
 Optimization completed.
    -- Stationary point found.

                          Input orientation:
 ---------------------------------------------------------------------
 Center     Atomic      Atomic             Coordinates (Angstroms)
 Number     Number       Type             X           Y           Z
 ---------------------------------------------------------------------
      1          6           0       -1.432625    0.000000    0.000000
      2          6           0        1.432625    0.000000    0.000000
      3          1           0       -1.350876   -0.016286    1.114246
      4          1           0        1.350974    0.934385   -0.607247
 ---------------------------------------------------------------------

 Alpha  occ. eigenvalues --  -10.67145 -10.67142  -0.73345  -0.71175  -0.38743
 Alpha  occ. eigenvalues --   -0.38544  -0.26461
 Alpha virt. eigenvalues --   -0.10234  -0.08952  -0.08078   0.03088   0.05350
 Alpha virt. eigenvalues --    0.07373   0.07543   0.09764   0.09983   0.10648
 Alpha virt. eigenvalues --    0.14839   0.18003   0.19415   0.44394   0.46138

  Beta  occ. eigenvalues --  -10.67145 -10.67142  -0.73345  -0.71175  -0.38743
  Beta  occ. eigenvalues --   -0.38544  -0.26461
  Beta virt. eigenvalues --   -0.10234  -0.08952  -0.08078   0.03088   0.05350
  Beta virt. eigenvalues --    0.07373   0.07543   0.09764   0.09983   0.10648
  Beta virt. eigenvalues --    0.14839   0.18003   0.19415   0.44394   0.46138

 Mulliken charges and spin densities:
               1          2
     1  C   -0.140145  -0.000002
     2  C   -0.140163   0.000002
     3  H    0.140154   0.000000
     4  H    0.140154  -0.000000
 Sum of Mulliken charges =  -0.00000  -0.00000

 Dipole moment (field-independent basis, Debye):
    X=              0.0001    Y=              1.3215    Z=              0.7298  Tot=              1.5096
 Quadrupole moment (field-independent basis, Debye-Ang):
   XX=            -16.9630   YY=            -12.7610   ZZ=            -13.5694
   XY=              2.0462   XZ=             -3.7052   YZ=              0.6423

 Normal termination of Gaussian 16 at Tue Dec  3 22:02:54 2024.
