 Gaussian 16, Revision A.03,
 Gaussian 16:  ES64L-G16RevA.03 25-Dec-2016

 ---------------------------------------------------------------------
 #p opt UM062X/6-311+G** nosymm int=superfine SCF=(Tight,MaxCycle=200)
 ---------------------------------------------------------------------

 -------------------
 Title Card Required
 -------------------
 Symbolic Z-matrix:
 Charge =  1 Multiplicity = 2

 SCF Done:  E(UM062X) =  -1614.34887697     A.U. after   32 cycles
 SCF Done:  E(UM062X) =  -1614.69737781     A.U. after   24 cycles
 SCF Done:  E(UM062X) =  -1615.18565053     A.U. after   33 cycles
 SCF Done:  E(UM062X) =  -1615.33983214     A.U. after   31 cycles
 SCF Done:  E(UM062X) =  -1615.50669072     A.U. after   24 cycles
 SCF Done:  E(UM062X) =  -1615.52585851     A.U. after   21 cycles
 SCF Done:  E(UM062X) =  -1615.47159690     A.U. after   25 cycles
 SCF Done:  E(UM062X) =  -1615.53672462     A.U. after   25 cycles
 SCF Done:  E(UM062X) =  -1615.53180158     A.U. after   26 cycles
 SCF Done:  E(UM062X) =  -1615.55043358     A.U. after   22 cycles
 SCF Done:  E(UM062X) =  -1615.55308022     A.U. after   22 cycles
 SCF Done:  E(UM062X) =  -1615.55399996     A.U. after   22 cycles
 SCF Done:  E(UM062X) =  -1615.55396318     A.U. after   22 cycles
 SCF Done:  E(UM062X) =  -1615.55415653     A.U. after   22 cycles
 SCF Done:  E(UM062X) =  -1615.55426368     A.U. after   20 cycles
 SCF Done:  E(UM062X) =  -1615.55427125     A.U. after   17 cycles
 SCF Done:  E(UM062X) =  -1615.55427433     A.U. after   17 cycles
 SCF Done:  E(UM062X) =  -1615.55427498     A.U. after   16 cycles
 SCF Done:  E(UM062X) =  -1615.55427526     A.U. after   15 cycles
 SCF Done:  E(UM062X) =  -1615.55427540     A.U. after   15 cycles
 Optimization completed.
    -- Stationary point found.

                          Input orientation:
 ---------------------------------------------------------------------
 Center     Atomic      Atomic             Coordinates (Angstroms)
 Number     Number       Type             X           Y           Z
 ---------------------------------------------------------------------
      1          6           0       -0.927330   -0.000000    0.000000
      2          6           0        0.927330    0.000000   -0.000000
      3          6           0       -0.000012   -2.192935    0.023940
      4          6           0       -0.000269   -3.554453    0.037871
      5          6           0       -1.112960   -4.322651    0.416471
      6          6           0       -1.141655   -1.466760    0.375452
      7          6           0        0.642760   -5.726451   -0.160936
      8          1           0        1.232482   -6.611055   -0.355120
      9          6           0       -1.395469    0.956003    1.067528
     10          6           0       -0.646569   -5.721783    0.273373
     11          1           0       -1.237583   -6.602071    0.482644
     12          6           0        1.111087   -4.330675   -0.328308
     13          6           0        1.141350   -1.474473   -0.344325
     14          6           0        1.601432    2.339263   -0.966171
     15          6           0       -1.389785    0.157574   -1.453942
     16          6           0       -1.865969    3.149700    2.068545
     17          1           0       -2.020992    4.213130    1.926630
     18          6           0       -2.243625   -3.621154    0.792540
     19          1           0       -3.149908   -4.130111    1.101294
     20          6           0       -1.505947    1.390299   -2.155847
     21          6           0        2.255414   -2.199660   -0.716406
     22          1           0        3.178274   -1.696434   -0.985162
     23          6           0        1.390360    0.188463    1.450091
     24          6           0        1.505576    1.435753    2.125972
     25          6           0        2.241123   -3.637457   -0.721004
     26          1           0        3.145972   -4.152962   -1.023024
     27          6           0       -1.602709    2.358886    0.916657
     28          6           0       -1.476168    0.446151    2.372042
     29          1           0       -1.298919   -0.605715    2.540562
     30          6           0        1.617853   -0.953420    2.242640
     31          1           0        1.588449   -1.939890    1.809631
     32          6           0       -1.933793    2.614141    3.330971
     33          1           0       -2.136638    3.243050    4.188687
     34          6           0       -2.256898   -2.183783    0.759880
     35          1           0       -3.180121   -1.674776    1.016240
     36          6           0       -1.744046    1.395342   -3.549168
     37          1           0       -1.800672    2.354683   -4.050506
     38          6           0        1.395225    0.933388   -1.087454
     39          6           0       -1.534460    3.112806   -0.298273
     40          1           0       -1.573470    4.188481   -0.154676
     41          6           0       -1.933174    0.237362   -4.268848
     42          1           0       -2.127185    0.271421   -5.333505
     43          6           0       -1.443822    2.707211   -1.587868
     44          1           0       -1.424156    3.507475   -2.321476
     45          6           0        1.744260    1.470211    3.518778
     46          1           0        1.800017    2.439885    3.999913
     47          6           0       -1.734641    1.239523    3.479058
     48          1           0       -1.771694    0.782685    4.460908
     49          6           0       -1.615567   -1.000888   -2.222584
     50          1           0       -1.585270   -1.978066   -1.769052
     51          6           0        1.935010    0.327721    4.262395
     52          1           0        2.129434    0.384175    5.326021
     53          6           0        1.864433    3.105864   -2.134357
     54          1           0        2.018603    4.172166   -2.014840
     55          6           0        1.891090   -0.894611    3.601682
     56          1           0        2.062848   -1.817990    4.141563
     57          6           0        1.932966    2.543880   -3.385218
     58          1           0        2.135600    3.154720   -4.255939
     59          6           0        1.532117    3.118631    0.232551
     60          1           0        1.569864    4.191063    0.066179
     61          6           0       -1.888144   -0.970827   -3.582697
     62          1           0       -2.058515   -1.905511   -4.103215
     63          6           0        1.441802    2.740352    1.530469
     64          1           0        1.421127    3.555898    2.247010
     65          6           0        1.476467    0.396286   -2.380930
     66          1           0        1.299756   -0.658949   -2.527395
     67          6           0        1.734716    1.166354   -3.504335
     68          1           0        1.772206    0.688963   -4.476335
 ---------------------------------------------------------------------

 Alpha  occ. eigenvalues --  -10.71550 -10.71537 -10.68816 -10.68815 -10.68743
 Alpha  occ. eigenvalues --  -10.68742 -10.68354 -10.68353 -10.67636 -10.67634
 Alpha  occ. eigenvalues --  -10.67566 -10.67564 -10.67338 -10.67334 -10.66729
 Alpha  occ. eigenvalues --  -10.66729 -10.66726 -10.66725 -10.66121 -10.66118
 Alpha  occ. eigenvalues --  -10.66019 -10.66017 -10.65718 -10.65717 -10.65680
 Alpha  occ. eigenvalues --  -10.65679 -10.65603 -10.65602 -10.65327 -10.65326
 Alpha  occ. eigenvalues --  -10.65318 -10.65316 -10.65035 -10.65034 -10.64999
 Alpha  occ. eigenvalues --  -10.64998 -10.64599 -10.64599 -10.63838 -10.63743
 Alpha  occ. eigenvalues --  -10.63718 -10.62262  -1.13005  -1.10368  -1.09758
 Alpha  occ. eigenvalues --   -1.08568  -1.07928  -1.06220  -1.03710  -1.03002
 Alpha  occ. eigenvalues --   -1.02536  -1.00579  -0.99497  -0.97997  -0.97924
 Alpha  occ. eigenvalues --   -0.96924  -0.96223  -0.94646  -0.93440  -0.93422
 Alpha  occ. eigenvalues --   -0.92399  -0.91720  -0.88098  -0.86505  -0.84994
 Alpha  occ. eigenvalues --   -0.84841  -0.82433  -0.81661  -0.80972  -0.80047
 Alpha  occ. eigenvalues --   -0.79711  -0.79503  -0.77901  -0.76287  -0.76038
 Alpha  occ. eigenvalues --   -0.75299  -0.74990  -0.73797  -0.70172  -0.70095
 Alpha  occ. eigenvalues --   -0.68788  -0.68014  -0.67756  -0.67618  -0.67221
 Alpha  occ. eigenvalues --   -0.66898  -0.65424  -0.64986  -0.64960  -0.64593
 Alpha  occ. eigenvalues --   -0.63694  -0.63025  -0.62288  -0.61922  -0.61458
 Alpha  occ. eigenvalues --   -0.61444  -0.60581  -0.60317  -0.60021  -0.59691
 Alpha  occ. eigenvalues --   -0.59599  -0.58787  -0.58226  -0.57822  -0.57691
 Alpha  occ. eigenvalues --   -0.57051  -0.56018  -0.55952  -0.55692  -0.55629
 Alpha  occ. eigenvalues --   -0.55215  -0.54547  -0.54335  -0.52966  -0.52853
 Alpha  occ. eigenvalues --   -0.52510  -0.52031  -0.51985  -0.51609  -0.51173
 Alpha  occ. eigenvalues --   -0.50722  -0.50655  -0.50537  -0.48947  -0.48656
 Alpha  occ. eigenvalues --   -0.48466  -0.48157  -0.47865  -0.44117  -0.43659
 Alpha  occ. eigenvalues --   -0.43557  -0.42796  -0.41159  -0.40330  -0.39681
 Alpha  occ. eigenvalues --   -0.38225  -0.37566  -0.36918  -0.36009
 Alpha virt. eigenvalues --   -0.15897  -0.15287  -0.15016  -0.12956  -0.10328
 Alpha virt. eigenvalues --   -0.09888  -0.08894  -0.08865  -0.08408  -0.07781
 Alpha virt. eigenvalues --   -0.07655  -0.07584  -0.07177  -0.06576  -0.06293

  Beta  occ. eigenvalues --  -10.71517 -10.71506 -10.68779 -10.68779 -10.68713
  Beta  occ. eigenvalues --  -10.68712 -10.68336 -10.68335 -10.67606 -10.67604
  Beta  occ. eigenvalues --  -10.67544 -10.67542 -10.67290 -10.67287 -10.66694
  Beta  occ. eigenvalues --  -10.66694 -10.66662 -10.66661 -10.66116 -10.66113
  Beta  occ. eigenvalues --  -10.66035 -10.66034 -10.65707 -10.65706 -10.65681
  Beta  occ. eigenvalues --  -10.65680 -10.65630 -10.65629 -10.65314 -10.65311
  Beta  occ. eigenvalues --  -10.65309 -10.65308 -10.65040 -10.65040 -10.65008
  Beta  occ. eigenvalues --  -10.65007 -10.64598 -10.64597 -10.63838 -10.63743
  Beta  occ. eigenvalues --  -10.63717 -10.62263  -1.12888  -1.10251  -1.09551
  Beta  occ. eigenvalues --   -1.08431  -1.07785  -1.06109  -1.03643  -1.02745
  Beta  occ. eigenvalues --   -1.02310  -1.00481  -0.99400  -0.97811  -0.97765
  Beta  occ. eigenvalues --   -0.96843  -0.96150  -0.94617  -0.93216  -0.93206
  Beta  occ. eigenvalues --   -0.92273  -0.91592  -0.87914  -0.86376  -0.84834
  Beta  occ. eigenvalues --   -0.84688  -0.82373  -0.81542  -0.80902  -0.79915
  Beta  occ. eigenvalues --   -0.79627  -0.79425  -0.77740  -0.76111  -0.75896
  Beta  occ. eigenvalues --   -0.75167  -0.74973  -0.73696  -0.70025  -0.69983
  Beta  occ. eigenvalues --   -0.68717  -0.67883  -0.67668  -0.67481  -0.67081
  Beta  occ. eigenvalues --   -0.66774  -0.65320  -0.64907  -0.64834  -0.64480
  Beta  occ. eigenvalues --   -0.63373  -0.62972  -0.62209  -0.61821  -0.61283
  Beta  occ. eigenvalues --   -0.61273  -0.60468  -0.60221  -0.59915  -0.59596
  Beta  occ. eigenvalues --   -0.59428  -0.58559  -0.58178  -0.57678  -0.57224
  Beta  occ. eigenvalues --   -0.56995  -0.55868  -0.55817  -0.55598  -0.54997
  Beta  occ. eigenvalues --   -0.54753  -0.54465  -0.53986  -0.52842  -0.52749
  Beta  occ. eigenvalues --   -0.52437  -0.51919  -0.51823  -0.51408  -0.51072
  Beta  occ. eigenvalues --   -0.50538  -0.50440  -0.49509  -0.48877  -0.48394
  Beta  occ. eigenvalues --   -0.48172  -0.48012  -0.47586  -0.43527  -0.43024
  Beta  occ. eigenvalues --   -0.42711  -0.42329  -0.40893  -0.39885  -0.39634
  Beta  occ. eigenvalues --   -0.37396  -0.36942  -0.36233
  Beta virt. eigenvalues --   -0.26498  -0.15610  -0.14909  -0.14674  -0.12686
  Beta virt. eigenvalues --   -0.09901  -0.09766  -0.08808  -0.08429  -0.08187
  Beta virt. eigenvalues --   -0.07603  -0.07548  -0.07445  -0.06767  -0.06573

 Mulliken charges and spin densities:
               1          2
     1  C    0.056969  -0.022332
     2  C    0.058273  -0.022504
     3  C    0.200849   0.001711
     4  C    0.099967  -0.000739
     5  C    0.120108   0.004020
     6  C    0.109473   0.005995
     7  C   -0.293664   0.000437
     8  H    0.174855  -0.000028
     9  C    0.141962   0.081281
    10  C   -0.296216   0.000446
    11  H    0.174865  -0.000028
    12  C    0.121114   0.004030
    13  C    0.111113   0.005985
    14  C    0.048202   0.008727
    15  C    0.118863   0.056918
    16  C   -0.155545   0.077354
    17  H    0.169649  -0.002888
    18  C   -0.500877   0.003969
    19  H    0.173130   0.000223
    20  C    0.299084   0.007775
    21  C   -0.164648   0.009627
    22  H    0.173923  -0.000161
    23  C    0.118397   0.056912
    24  C    0.304926   0.007740
    25  C   -0.499532   0.003951
    26  H    0.173178   0.000223
    27  C    0.041273   0.008678
    28  C   -0.154824  -0.061621
    29  H    0.198075   0.001694
    30  C   -0.370518  -0.013033
    31  H    0.210580   0.000535
    32  C   -0.199177  -0.005520
    33  H    0.178901   0.000366
    34  C   -0.165020   0.009655
    35  H    0.173785  -0.000162
    36  C   -0.215437   0.018175
    37  H    0.164332  -0.000844
    38  C    0.141725   0.081263
    39  C   -0.175077   0.117451
    40  H    0.170200  -0.008026
    41  C   -0.289749   0.001369
    42  H    0.176840   0.000247
    43  C   -0.175280   0.072107
    44  H    0.164506  -0.003644
    45  C   -0.218122   0.018238
    46  H    0.164397  -0.000844
    47  C   -0.177005   0.135132
    48  H    0.178422  -0.007083
    49  C   -0.369431  -0.013006
    50  H    0.210332   0.000534
    51  C   -0.291318   0.001368
    52  H    0.176842   0.000247
    53  C   -0.160344   0.077341
    54  H    0.169693  -0.002889
    55  C    0.024371   0.022857
    56  H    0.176024  -0.001568
    57  C   -0.199050  -0.005512
    58  H    0.178898   0.000368
    59  C   -0.175472   0.117820
    60  H    0.170179  -0.008046
    61  C    0.022402   0.022729
    62  H    0.176000  -0.001564
    63  C   -0.176711   0.071970
    64  H    0.164526  -0.003644
    65  C   -0.157168  -0.061733
    66  H    0.197995   0.001684
    67  C   -0.177407   0.135355
    68  H    0.178392  -0.007089
 Sum of Mulliken charges =   1.00000   1.00000

 Dipole moment (field-independent basis, Debye):
    X=             -0.0020    Y=              3.7940    Z=             -0.0455  Tot=              3.7943
 Quadrupole moment (field-independent basis, Debye-Ang):
   XX=           -222.3677   YY=           -173.7761   ZZ=           -177.1035
   XY=             -0.0323   XZ=             -2.5543   YZ=              0.0089

 Normal termination of Gaussian 16 at Fri Mar 21 12:42:27 2025.
