 Gaussian 16, Revision A.03,
 Gaussian 16:  ES64L-G16RevA.03 25-Dec-2016

 ---------------------------------------
 #p UM062X/6-311+G** force int=superfine
 ---------------------------------------

 -------------------
 Title Card Required
 -------------------
 Symbolic Z-matrix:
 Charge =  1 Multiplicity = 2

                         Standard orientation:
 ---------------------------------------------------------------------
 Center     Atomic      Atomic             Coordinates (Angstroms)
 Number     Number       Type             X           Y           Z
 ---------------------------------------------------------------------
      1          6           0        0.931780    0.902101   -1.611649
      2          6           0       -0.931782   -0.902097    1.611650
      3          1           0       -1.845082   -1.031023    1.043192
      4          1           0        0.792838    0.014955   -2.217905
      5          1           0       -0.793117   -0.015507    2.218787
      6          1           0       -0.189332   -1.690992    1.628739
      7          1           0        1.845035    1.031244   -1.043167
      8          1           0        0.189669    1.691297   -1.629653
 ---------------------------------------------------------------------

 SCF Done:  E(UM062X) =  -79.3160991224     A.U. after   10 cycles

 The electronic state is 2-A.
 Alpha  occ. eigenvalues --  -10.83234 -10.83233  -1.01823  -1.01559  -0.72906
 Alpha  occ. eigenvalues --   -0.72905  -0.72826  -0.72826  -0.46813
 Alpha virt. eigenvalues --   -0.37751  -0.12556  -0.10108  -0.09246  -0.09246
 Alpha virt. eigenvalues --   -0.06205  -0.06205  -0.04400  -0.02766   0.00239
 Alpha virt. eigenvalues --    0.00241   0.01438   0.01440   0.02475   0.08937

  Beta  occ. eigenvalues --  -10.83011 -10.83010  -0.99165  -0.99014  -0.72375
  Beta  occ. eigenvalues --   -0.72374  -0.72282  -0.72281
  Beta virt. eigenvalues --   -0.32219  -0.26669  -0.16943  -0.10638  -0.10636
  Beta virt. eigenvalues --   -0.10237  -0.06174  -0.06174  -0.05503  -0.01804
  Beta virt. eigenvalues --    0.00073   0.00076   0.01690   0.01693   0.02285

 Mulliken charges and spin densities:
               1          2
     1  C   -0.243975   0.557514
     2  C   -0.243975   0.557515
     3  H    0.247997  -0.019184
     4  H    0.247979  -0.019163
     5  H    0.247999  -0.019166
     6  H    0.247979  -0.019164
     7  H    0.247999  -0.019184
     8  H    0.247998  -0.019167
 Sum of Mulliken charges =   1.00000   1.00000

 Dipole moment (field-independent basis, Debye):
    X=              0.0000    Y=             -0.0000    Z=             -0.0000  Tot=              0.0000
 Quadrupole moment (field-independent basis, Debye-Ang):
   XX=             -7.0272   YY=             -7.2850   ZZ=              1.1157
   XY=              3.9609   XZ=             -7.0756   YZ=             -6.8490

 Normal termination of Gaussian 16 at Tue Nov 19 08:45:15 2024.
