 Gaussian 16, Revision A.03,
 Gaussian 16:  ES64L-G16RevA.03 25-Dec-2016

 --------------------------------------------
 #p opt UM062X/6-311+G** nosymm int=superfine
 --------------------------------------------

 -------------------
 Title Card Required
 -------------------
 Symbolic Z-matrix:
 Charge =  0 Multiplicity = 1

 SCF Done:  E(UM062X) =  -79.6168266892     A.U. after   10 cycles
 SCF Done:  E(UM062X) =  -79.6186046271     A.U. after    9 cycles
 SCF Done:  E(UM062X) =  -79.6191070932     A.U. after    8 cycles
 Optimization completed.
    -- Stationary point found.

                          Input orientation:
 ---------------------------------------------------------------------
 Center     Atomic      Atomic             Coordinates (Angstroms)
 Number     Number       Type             X           Y           Z
 ---------------------------------------------------------------------
      1          6           0       -1.546675    0.000000    0.000000
      2          6           0        1.546800    0.000000    0.000000
      3          1           0        1.668458   -0.928919    0.537509
      4          1           0       -1.668321   -0.929967   -0.535695
      5          1           0        1.668449    0.929967    0.535694
      6          1           0        1.668446   -0.001047   -1.073225
      7          1           0       -1.668333    0.928919   -0.537508
      8          1           0       -1.668324    0.001046    1.073224
 ---------------------------------------------------------------------

 Alpha  occ. eigenvalues --  -10.56796 -10.56794  -0.76954  -0.75827  -0.48733
 Alpha  occ. eigenvalues --   -0.48733  -0.48139  -0.48139  -0.24217
 Alpha virt. eigenvalues --   -0.07673   0.02910   0.05378   0.05378   0.05654
 Alpha virt. eigenvalues --    0.07825   0.07825   0.11024   0.12506   0.18382
 Alpha virt. eigenvalues --    0.18382   0.21237   0.21238   0.24058   0.25218

  Beta  occ. eigenvalues --  -10.56796 -10.56794  -0.76954  -0.75827  -0.48733
  Beta  occ. eigenvalues --   -0.48733  -0.48139  -0.48139  -0.24217
  Beta virt. eigenvalues --   -0.07673   0.02910   0.05378   0.05378   0.05654
  Beta virt. eigenvalues --    0.07825   0.07825   0.11024   0.12506   0.18382
  Beta virt. eigenvalues --    0.18382   0.21237   0.21238   0.24058   0.25218

 Mulliken charges and spin densities:
               1          2
     1  C   -0.523909  -0.000000
     2  C   -0.523910   0.000000
     3  H    0.174636  -0.000000
     4  H    0.174637   0.000000
     5  H    0.174637  -0.000000
     6  H    0.174636  -0.000000
     7  H    0.174636   0.000000
     8  H    0.174636   0.000000
 Sum of Mulliken charges =  -0.00000  -0.00000

 Dipole moment (field-independent basis, Debye):
    X=             -0.0000    Y=             -0.0000    Z=             -0.0000  Tot=              0.0000
 Quadrupole moment (field-independent basis, Debye-Ang):
   XX=            -15.3939   YY=            -14.8090   ZZ=            -14.8091
   XY=             -0.0000   XZ=             -0.0000   YZ=              0.0000

 Normal termination of Gaussian 16 at Tue Dec  3 10:01:06 2024.
