 Gaussian 16, Revision A.03,
 Gaussian 16:  ES64L-G16RevA.03 25-Dec-2016

 --------------------------------------------
 #p opt UM062X/6-311+G** nosymm int=superfine
 --------------------------------------------

 -------------------
 Title Card Required
 -------------------
 Symbolic Z-matrix:
 Charge =  0 Multiplicity = 1

 SCF Done:  E(UM062X) =  -79.6023042417     A.U. after   10 cycles
 SCF Done:  E(UM062X) =  -79.6047138675     A.U. after    9 cycles
 SCF Done:  E(UM062X) =  -79.6054819287     A.U. after    9 cycles
 SCF Done:  E(UM062X) =  -79.6054834431     A.U. after    7 cycles
 Optimization completed.
    -- Stationary point found.

                          Input orientation:
 ---------------------------------------------------------------------
 Center     Atomic      Atomic             Coordinates (Angstroms)
 Number     Number       Type             X           Y           Z
 ---------------------------------------------------------------------
      1          6           0       -1.646675    0.000000    0.000000
      2          6           0        1.646800    0.000000    0.000000
      3          1           0        1.748525   -0.930816    0.538611
      4          1           0       -1.748390   -0.931866   -0.536794
      5          1           0        1.748518    0.931866    0.536793
      6          1           0        1.748519   -0.001049   -1.075417
      7          1           0       -1.748399    0.930816   -0.538610
      8          1           0       -1.748397    0.001048    1.075417
 ---------------------------------------------------------------------

 Alpha  occ. eigenvalues --  -10.56992 -10.56990  -0.76964  -0.76144  -0.48882
 Alpha  occ. eigenvalues --   -0.48882  -0.48469  -0.48469  -0.23443
 Alpha virt. eigenvalues --   -0.08857   0.02995   0.05358   0.05358   0.05446
 Alpha virt. eigenvalues --    0.07713   0.07713   0.11223   0.12467   0.18448
 Alpha virt. eigenvalues --    0.18448   0.20949   0.20949   0.23756   0.25071

  Beta  occ. eigenvalues --  -10.56992 -10.56990  -0.76964  -0.76144  -0.48882
  Beta  occ. eigenvalues --   -0.48882  -0.48469  -0.48469  -0.23443
  Beta virt. eigenvalues --   -0.08857   0.02995   0.05358   0.05358   0.05446
  Beta virt. eigenvalues --    0.07713   0.07713   0.11223   0.12467   0.18448
  Beta virt. eigenvalues --    0.18448   0.20949   0.20949   0.23756   0.25071

 Mulliken charges and spin densities:
               1          2
     1  C   -0.525973   0.000000
     2  C   -0.525974  -0.000000
     3  H    0.175325   0.000000
     4  H    0.175325  -0.000000
     5  H    0.175325   0.000000
     6  H    0.175324   0.000000
     7  H    0.175325  -0.000000
     8  H    0.175324  -0.000000
 Sum of Mulliken charges =  -0.00000  -0.00000

 Dipole moment (field-independent basis, Debye):
    X=             -0.0000    Y=             -0.0000    Z=             -0.0000  Tot=              0.0000
 Quadrupole moment (field-independent basis, Debye-Ang):
   XX=            -15.4013   YY=            -14.8233   ZZ=            -14.8234
   XY=             -0.0000   XZ=             -0.0000   YZ=              0.0000

 Normal termination of Gaussian 16 at Tue Dec  3 10:02:36 2024.
