 Gaussian 16, Revision A.03,
 Gaussian 16:  ES64L-G16RevA.03 25-Dec-2016

 --------------------------------------------
 #p opt UM062X/6-311+G** nosymm int=superfine
 --------------------------------------------

 -------------------
 Title Card Required
 -------------------
 Symbolic Z-matrix:
 Charge =  0 Multiplicity = 1

 SCF Done:  E(UM062X) =  -151.524032904     A.U. after   13 cycles
 SCF Done:  E(UM062X) =  -151.525202073     A.U. after   13 cycles
 SCF Done:  E(UM062X) =  -151.525270427     A.U. after   14 cycles
 SCF Done:  E(UM062X) =  -151.525354251     A.U. after   12 cycles
 SCF Done:  E(UM062X) =  -151.525354489     A.U. after    9 cycles
 Optimization completed.
    -- Stationary point found.

                          Input orientation:
 ---------------------------------------------------------------------
 Center     Atomic      Atomic             Coordinates (Angstroms)
 Number     Number       Type             X           Y           Z
 ---------------------------------------------------------------------
      1          8           0       -0.786938    0.000000    0.000000
      2          8           0        0.786938    0.000000    0.000000
      3          1           0       -0.900794   -0.948657   -0.140468
      4          1           0        0.900774    0.529503    0.799569
 ---------------------------------------------------------------------

 Alpha  occ. eigenvalues --  -19.70004 -19.69992  -1.22232  -1.04625  -0.59107
 Alpha  occ. eigenvalues --   -0.58383  -0.49693  -0.44132  -0.38367
 Alpha virt. eigenvalues --   -0.00871   0.05890   0.10653   0.15890   0.16339
 Alpha virt. eigenvalues --    0.18290   0.20624   0.20909   0.22093   0.26466
 Alpha virt. eigenvalues --    0.33448   0.50274   0.52765   0.96264   1.00055

  Beta  occ. eigenvalues --  -19.70004 -19.69992  -1.22232  -1.04625  -0.59107
  Beta  occ. eigenvalues --   -0.58383  -0.49693  -0.44132  -0.38367
  Beta virt. eigenvalues --   -0.00871   0.05890   0.10653   0.15890   0.16339
  Beta virt. eigenvalues --    0.18290   0.20624   0.20909   0.22093   0.26466
  Beta virt. eigenvalues --    0.33448   0.50274   0.52765   0.96264   1.00055

 Mulliken charges and spin densities:
               1          2
     1  O   -0.273562  -0.000000
     2  O   -0.273558   0.000000
     3  H    0.273561   0.000000
     4  H    0.273560  -0.000000
 Sum of Mulliken charges =  -0.00000   0.00000

 Dipole moment (field-independent basis, Debye):
    X=             -0.0000    Y=             -0.7880    Z=              1.2390  Tot=              1.4684
 Quadrupole moment (field-independent basis, Debye-Ang):
   XX=            -11.7731   YY=            -10.0617   ZZ=            -11.4957
   XY=              2.9206   XZ=              1.8573   YZ=              1.5312

 Normal termination of Gaussian 16 at Mon Apr 21 21:33:40 2025.
