 Gaussian 16, Revision A.03,
 Gaussian 16:  ES64L-G16RevA.03 25-Dec-2016

 --------------------------------------------
 #p opt UM062X/6-311+G** nosymm int=superfine
 --------------------------------------------

 -------------------
 Title Card Required
 -------------------
 Symbolic Z-matrix:
 Charge =  1 Multiplicity = 2

 SCF Done:  E(UM062X) =  -76.6270298550     A.U. after   12 cycles
 SCF Done:  E(UM062X) =  -76.6270461859     A.U. after    8 cycles
 Optimization completed.
    -- Stationary point found.

                          Input orientation:
 ---------------------------------------------------------------------
 Center     Atomic      Atomic             Coordinates (Angstroms)
 Number     Number       Type             X           Y           Z
 ---------------------------------------------------------------------
      1          6           0       -0.957160    0.000000    0.000000
      2          6           0        0.957160    0.000000    0.000000
      3          1           0       -2.061822   -0.000000   -0.000000
      4          1           0        2.061822    0.000000   -0.000000
 ---------------------------------------------------------------------

 Alpha  occ. eigenvalues --  -11.01137 -11.01114  -1.06844  -0.99703  -0.80597
 Alpha  occ. eigenvalues --   -0.60677  -0.58672
 Alpha virt. eigenvalues --   -0.38785  -0.36816  -0.35622  -0.14083  -0.11889
 Alpha virt. eigenvalues --   -0.10002  -0.08706  -0.08482  -0.05374  -0.05092
 Alpha virt. eigenvalues --    0.00397   0.03062   0.05984   0.23921   0.30858

  Beta  occ. eigenvalues --  -11.00868 -11.00853  -1.03490  -0.97821  -0.79508
  Beta  occ. eigenvalues --   -0.56825
  Beta virt. eigenvalues --   -0.38956  -0.35064  -0.33607  -0.30040  -0.14988
  Beta virt. eigenvalues --   -0.12202  -0.10616  -0.09055  -0.08916  -0.05406
  Beta virt. eigenvalues --   -0.05188  -0.00575   0.03148   0.06071   0.24119

 Mulliken charges and spin densities:
               1          2
     1  C    0.123071   0.523048
     2  C    0.123071   0.523036
     3  H    0.376929  -0.023042
     4  H    0.376929  -0.023042
 Sum of Mulliken charges =   1.00000   1.00000

 Dipole moment (field-independent basis, Debye):
    X=             -0.0000    Y=             -0.0000    Z=              0.0000  Tot=              0.0000
 Quadrupole moment (field-independent basis, Debye-Ang):
   XX=              5.2447   YY=            -11.8801   ZZ=            -12.3975
   XY=              0.0000   XZ=             -0.0000   YZ=             -1.0506

 Normal termination of Gaussian 16 at Tue Dec  3 11:21:46 2024.
