 Gaussian 16, Revision A.03,
 Gaussian 16:  ES64L-G16RevA.03 25-Dec-2016

 ---------------------------------------------------
 #p UM062X/6-311+G** force int=superfine pop=saveNBO
 ---------------------------------------------------

 -------------------
 Title Card Required
 -------------------
 Symbolic Z-matrix:
 Charge =  0 Multiplicity = 1

                         Standard orientation:
 ---------------------------------------------------------------------
 Center     Atomic      Atomic             Coordinates (Angstroms)
 Number     Number       Type             X           Y           Z
 ---------------------------------------------------------------------
      1          8           0        0.000000    0.000000   -1.926757
      2         16           0        0.000000    0.000000    0.963379
 ---------------------------------------------------------------------

 SCF Done:  E(UM062X) =  -472.988059848     A.U. after   22 cycles

 Unable to determine electronic state:  an orbital has unidentified symmetry.
 Alpha  occ. eigenvalues --  -90.03634 -19.75717  -8.39222  -6.31256  -6.31253
 Alpha  occ. eigenvalues --   -6.30338  -1.04272  -0.81320  -0.42776  -0.38701
 Alpha  occ. eigenvalues --   -0.37710  -0.35830
 Alpha virt. eigenvalues --   -0.24961  -0.21732   0.02612   0.04722   0.05206
 Alpha virt. eigenvalues --    0.05638   0.17610   0.19725   0.19940   0.25301
 Alpha virt. eigenvalues --    0.32351   0.33299   0.34441   0.57135   0.73925

  Beta  occ. eigenvalues --  -90.03634 -19.75717  -8.39222  -6.31256  -6.31253
  Beta  occ. eigenvalues --   -6.30338  -1.04272  -0.81320  -0.42776  -0.38701
  Beta  occ. eigenvalues --   -0.37710  -0.35830
  Beta virt. eigenvalues --   -0.24961  -0.21732   0.02612   0.04722   0.05206
  Beta virt. eigenvalues --    0.05638   0.17610   0.19725   0.19940   0.25301
  Beta virt. eigenvalues --    0.32351   0.33299   0.34441   0.57135   0.73925

 Mulliken charges and spin densities:
               1          2
     1  O   -0.203339  -0.000000
     2  S    0.203339   0.000000
 Sum of Mulliken charges =   0.00000  -0.00000

 Dipole moment (field-independent basis, Debye):
    X=              0.0000    Y=              0.0000    Z=              2.8106  Tot=              2.8106
 Quadrupole moment (field-independent basis, Debye-Ang):
   XX=            -20.8271   YY=            -17.3585   ZZ=            -18.5843
   XY=              0.0000   XZ=              0.0000   YZ=              0.0000

 Summary of Natural Population Analysis:

                                       Natural Population
                Natural  -----------------------------------------------
    Atom  No    Charge         Core      Valence    Rydberg      Total
 -----------------------------------------------------------------------
      O    1   -0.12346      1.00000     3.12243    0.00103     4.12346
      S    2    0.12346      5.00000     2.87581    0.00073     7.87654
 =======================================================================
   * Total *   -0.00000      5.99999     5.99824    0.00177    12.00000

 Normal termination of Gaussian 16 at Mon Apr 21 20:01:04 2025.
