 Gaussian 16, Revision A.03,
 Gaussian 16:  ES64L-G16RevA.03 25-Dec-2016

 --------------------------------------------
 #p opt UM062X/6-311+G** nosymm int=superfine
 --------------------------------------------

 -------------------
 Title Card Required
 -------------------
 Symbolic Z-matrix:
 Charge =  1 Multiplicity = 2

 SCF Done:  E(UM062X) =  -582.168798940     A.U. after   11 cycles
 SCF Done:  E(UM062X) =  -582.168911566     A.U. after    8 cycles
 SCF Done:  E(UM062X) =  -582.168917239     A.U. after    8 cycles
 Optimization completed.
    -- Stationary point found.

                          Input orientation:
 ---------------------------------------------------------------------
 Center     Atomic      Atomic             Coordinates (Angstroms)
 Number     Number       Type             X           Y           Z
 ---------------------------------------------------------------------
      1         14           0       -1.576292    0.000000    0.000000
      2         14           0        1.576292    0.000000    0.000000
      3          1           0        1.750794   -1.454958    0.000016
      4          1           0       -1.750598   -0.727380    1.260105
      5          1           0        1.751102    0.727507   -1.259959
      6          1           0        1.750453    0.727472    1.260072
      7          1           0       -1.750819    1.454955   -0.000089
      8          1           0       -1.750932   -0.727606   -1.259926
 ---------------------------------------------------------------------

 Alpha  occ. eigenvalues --  -67.23844 -67.23844  -5.78703  -5.78702  -4.10402
 Alpha  occ. eigenvalues --   -4.10400  -4.09583  -4.09583  -4.09583  -4.09583
 Alpha  occ. eigenvalues --   -0.84203  -0.81329  -0.63476  -0.63476  -0.62352
 Alpha  occ. eigenvalues --   -0.62352  -0.49155
 Alpha virt. eigenvalues --   -0.24623  -0.15199  -0.11771  -0.11591  -0.11590
 Alpha virt. eigenvalues --   -0.10563  -0.10562  -0.09900  -0.08779  -0.08779
 Alpha virt. eigenvalues --   -0.07553  -0.06489  -0.06489  -0.03605   0.00725

  Beta  occ. eigenvalues --  -67.23578 -67.23578  -5.78631  -5.78630  -4.09743
  Beta  occ. eigenvalues --   -4.09742  -4.09494  -4.09494  -4.09494  -4.09494
  Beta  occ. eigenvalues --   -0.81674  -0.79836  -0.63072  -0.63072  -0.62103
  Beta  occ. eigenvalues --   -0.62103
  Beta virt. eigenvalues --   -0.30735  -0.19912  -0.14790  -0.11469  -0.11468
  Beta virt. eigenvalues --   -0.10820  -0.10609  -0.10608  -0.09672  -0.08103
  Beta virt. eigenvalues --   -0.08103  -0.06261  -0.06261  -0.05691  -0.03008

 Mulliken charges and spin densities:
               1          2
     1  Si   0.497482   0.547230
     2  Si   0.497482   0.547230
     3  H    0.000842  -0.015745
     4  H    0.000835  -0.015739
     5  H    0.000847  -0.015752
     6  H    0.000830  -0.015733
     7  H    0.000842  -0.015746
     8  H    0.000841  -0.015746
 Sum of Mulliken charges =   1.00000   1.00000

 Dipole moment (field-independent basis, Debye):
    X=              0.0000    Y=              0.0000    Z=             -0.0000  Tot=              0.0000
 Quadrupole moment (field-independent basis, Debye-Ang):
   XX=             -9.3247   YY=            -25.8131   ZZ=            -25.8133
   XY=             -0.0001   XZ=              0.0000   YZ=              0.0000

 Normal termination of Gaussian 16 at Mon Apr 21 20:14:29 2025.
