 Gaussian 16, Revision A.03,
 Gaussian 16:  ES64L-G16RevA.03 25-Dec-2016

 --------------------------------------------
 #p opt UM062X/6-311+G** nosymm int=superfine
 --------------------------------------------

 -------------------
 Title Card Required
 -------------------
 Symbolic Z-matrix:
 Charge =  1 Multiplicity = 2

 SCF Done:  E(UM062X) =  -582.129227706     A.U. after   11 cycles
 SCF Done:  E(UM062X) =  -582.130062634     A.U. after    9 cycles
 SCF Done:  E(UM062X) =  -582.130385680     A.U. after   10 cycles
 SCF Done:  E(UM062X) =  -582.130386871     A.U. after    8 cycles
 Optimization completed.
    -- Stationary point found.

                          Input orientation:
 ---------------------------------------------------------------------
 Center     Atomic      Atomic             Coordinates (Angstroms)
 Number     Number       Type             X           Y           Z
 ---------------------------------------------------------------------
      1         14           0       -2.626292    0.000000    0.000000
      2         14           0        2.626292    0.000000    0.000000
      3          1           0        2.722826   -1.460907   -0.000016
      4          1           0       -2.722055   -0.730322    1.265315
      5          1           0        2.722595    0.730492   -1.265176
      6          1           0        2.721837    0.730406    1.265284
      7          1           0       -2.722853    1.460906   -0.000143
      8          1           0       -2.722351   -0.730579   -1.265144
 ---------------------------------------------------------------------

 Alpha  occ. eigenvalues --  -67.21745 -67.21745  -5.76604  -5.76604  -4.08298
 Alpha  occ. eigenvalues --   -4.08297  -4.07479  -4.07479  -4.07479  -4.07479
 Alpha  occ. eigenvalues --   -0.80331  -0.80136  -0.60796  -0.60795  -0.60767
 Alpha  occ. eigenvalues --   -0.60766  -0.38375
 Alpha virt. eigenvalues --   -0.30466  -0.11457  -0.11398  -0.09774  -0.08878
 Alpha virt. eigenvalues --   -0.08877  -0.07772  -0.07772  -0.07485  -0.06893
 Alpha virt. eigenvalues --   -0.06893  -0.05933  -0.05933  -0.04874   0.00199

  Beta  occ. eigenvalues --  -67.21464 -67.21464  -5.76519  -5.76519  -4.07638
  Beta  occ. eigenvalues --   -4.07638  -4.07382  -4.07382  -4.07382  -4.07382
  Beta  occ. eigenvalues --   -0.78604  -0.78521  -0.60714  -0.60713  -0.60683
  Beta  occ. eigenvalues --   -0.60682
  Beta virt. eigenvalues --   -0.31061  -0.23558  -0.16091  -0.11395  -0.11394
  Beta virt. eigenvalues --   -0.10528  -0.09969  -0.08355  -0.08354  -0.07426
  Beta virt. eigenvalues --   -0.06363  -0.06363  -0.05452  -0.05451  -0.05431

 Mulliken charges and spin densities:
               1          2
     1  Si   0.516658   0.562061
     2  Si   0.516658   0.562061
     3  H   -0.005555  -0.020694
     4  H   -0.005553  -0.020683
     5  H   -0.005548  -0.020686
     6  H   -0.005555  -0.020682
     7  H   -0.005554  -0.020694
     8  H   -0.005551  -0.020685
 Sum of Mulliken charges =   1.00000   1.00000

 Dipole moment (field-independent basis, Debye):
    X=              0.0000    Y=             -0.0000    Z=              0.0001  Tot=              0.0001
 Quadrupole moment (field-independent basis, Debye-Ang):
   XX=             12.1401   YY=            -26.2525   ZZ=            -26.2522
   XY=              0.0008   XZ=              0.0001   YZ=             -0.0000

 Normal termination of Gaussian 16 at Mon Apr 21 20:16:39 2025.
