 Gaussian 16, Revision A.03,
 Gaussian 16:  ES64L-G16RevA.03 25-Dec-2016

 --------------------------------------------
 #p opt UM062X/6-311+G** nosymm int=superfine
 --------------------------------------------

 -------------------
 Title Card Required
 -------------------
 Symbolic Z-matrix:
 Charge =  0 Multiplicity = 1

 SCF Done:  E(UM062X) =  -579.900562141     A.U. after    9 cycles
 SCF Done:  E(UM062X) =  -579.904493544     A.U. after   10 cycles
 SCF Done:  E(UM062X) =  -579.904515929     A.U. after    8 cycles
 Optimization completed.
    -- Stationary point found.

                          Input orientation:
 ---------------------------------------------------------------------
 Center     Atomic      Atomic             Coordinates (Angstroms)
 Number     Number       Type             X           Y           Z
 ---------------------------------------------------------------------
      1         14           0       -1.578705    0.000000    0.000000
      2         14           0        1.578705    0.000000    0.000000
      3          1           0       -3.117832    0.000052    0.000001
      4          1           0        3.117832    0.000120   -0.000000
 ---------------------------------------------------------------------

 Alpha  occ. eigenvalues --  -67.04289 -67.04289  -5.58710  -5.58710  -3.89781
 Alpha  occ. eigenvalues --   -3.89780  -3.89337  -3.89336  -3.89241  -3.89240
 Alpha  occ. eigenvalues --   -0.55460  -0.53683  -0.36800  -0.27817  -0.19879
 Alpha virt. eigenvalues --   -0.10405  -0.08577  -0.07041   0.02207   0.03066
 Alpha virt. eigenvalues --    0.04411   0.04712   0.05608   0.06169   0.07123
 Alpha virt. eigenvalues --    0.09527   0.10294   0.21941   0.29386   0.29753

  Beta  occ. eigenvalues --  -67.04289 -67.04289  -5.58710  -5.58710  -3.89781
  Beta  occ. eigenvalues --   -3.89780  -3.89337  -3.89336  -3.89241  -3.89240
  Beta  occ. eigenvalues --   -0.55460  -0.53683  -0.36800  -0.27817  -0.19879
  Beta virt. eigenvalues --   -0.10405  -0.08577  -0.07041   0.02207   0.03066
  Beta virt. eigenvalues --    0.04411   0.04712   0.05608   0.06169   0.07123
  Beta virt. eigenvalues --    0.09527   0.10294   0.21941   0.29386   0.29753

 Mulliken charges and spin densities:
               1          2
     1  Si   0.142191   0.000000
     2  Si   0.142191  -0.000000
     3  H   -0.142191  -0.000000
     4  H   -0.142191   0.000000
 Sum of Mulliken charges =  -0.00000   0.00000

 Dipole moment (field-independent basis, Debye):
    X=             -0.0000    Y=              0.0000    Z=              0.0000  Tot=              0.0000
 Quadrupole moment (field-independent basis, Debye-Ang):
   XX=            -32.6774   YY=            -24.0654   ZZ=            -35.1382
   XY=             -0.0002   XZ=              0.0000   YZ=             -0.0702

 Normal termination of Gaussian 16 at Mon Apr 21 21:18:46 2025.
