 Gaussian 16, Revision A.03,
 Gaussian 16:  ES64L-G16RevA.03 25-Dec-2016

 ---------------------------------------
 #p UM062X/6-311+G** force int=superfine
 ---------------------------------------

 -------------------
 Title Card Required
 -------------------
 Symbolic Z-matrix:
 Charge =  0 Multiplicity = 1

                         Standard orientation:
 ---------------------------------------------------------------------
 Center     Atomic      Atomic             Coordinates (Angstroms)
 Number     Number       Type             X           Y           Z
 ---------------------------------------------------------------------
      1          6           0       -0.000000    1.027452   -0.000000
      2          6           0       -0.000000   -1.027452    0.000000
      3          1           0        0.974560    1.487380   -0.000000
      4          1           0       -0.974531    1.487290   -0.000000
      5          1           0       -0.974560   -1.487380    0.000000
      6          1           0        0.974531   -1.487290    0.000000
 ---------------------------------------------------------------------

 SCF Done:  E(UM062X) =  -78.3619528258     A.U. after    8 cycles

 The electronic state is 1-AG.
 Alpha  occ. eigenvalues --  -10.61268 -10.61255  -0.77309  -0.71704  -0.53025
 Alpha  occ. eigenvalues --   -0.50112  -0.37351  -0.25885
 Alpha virt. eigenvalues --   -0.06947   0.01289   0.03360   0.05387   0.07298
 Alpha virt. eigenvalues --    0.08626   0.09145   0.09908   0.11366   0.15272
 Alpha virt. eigenvalues --    0.16445   0.20494   0.21306   0.28045   0.39572

  Beta  occ. eigenvalues --  -10.61268 -10.61255  -0.77309  -0.71704  -0.53025
  Beta  occ. eigenvalues --   -0.50112  -0.37351  -0.25885
  Beta virt. eigenvalues --   -0.06947   0.01289   0.03360   0.05387   0.07298
  Beta virt. eigenvalues --    0.08626   0.09145   0.09908   0.11366   0.15272
  Beta virt. eigenvalues --    0.16445   0.20494   0.21306   0.28045   0.39572

 Mulliken charges and spin densities:
               1          2
     1  C   -0.362719   0.000000
     2  C   -0.362719   0.000000
     3  H    0.181361   0.000000
     4  H    0.181358  -0.000000
     5  H    0.181361   0.000000
     6  H    0.181358  -0.000000
 Sum of Mulliken charges =  -0.00000   0.00000

 Dipole moment (field-independent basis, Debye):
    X=             -0.0000    Y=              0.0000    Z=              0.0000  Tot=              0.0000
 Quadrupole moment (field-independent basis, Debye-Ang):
   XX=            -12.0764   YY=            -11.1533   ZZ=            -18.2513
   XY=              0.0002   XZ=             -0.0000   YZ=             -0.0000

 Normal termination of Gaussian 16 at Tue Nov 19 11:50:03 2024.
