 Gaussian 16, Revision A.03,
 Gaussian 16:  ES64L-G16RevA.03 25-Dec-2016

 -------------------------------------------
 #p UM062X/6-31+G** freq=raman int=superfine
 -------------------------------------------

 -------------------
 Title Card Required
 -------------------
 Symbolic Z-matrix:
 Charge =  1 Multiplicity = 2

                         Standard orientation:
 ---------------------------------------------------------------------
 Center     Atomic      Atomic             Coordinates (Angstroms)
 Number     Number       Type             X           Y           Z
 ---------------------------------------------------------------------
      1          6           0        0.000000    0.000000   -0.621342
      2          6           0        0.000000    0.000000    0.621343
      3          1           0        0.000000    0.000000   -1.702411
      4          1           0        0.000000    0.000000    1.702401
 ---------------------------------------------------------------------

 SCF Done:  E(UM062X) =  -76.8854753648     A.U. after   10 cycles

 Unable to determine electronic state:  an orbital has unidentified symmetry.
 Alpha  occ. eigenvalues --  -10.95440 -10.95220  -1.22760  -0.97062  -0.89298
 Alpha  occ. eigenvalues --   -0.72860  -0.70158
 Alpha virt. eigenvalues --   -0.27205  -0.25171  -0.15348  -0.14285  -0.11340
 Alpha virt. eigenvalues --   -0.10347  -0.09921  -0.05523  -0.04673  -0.04094
 Alpha virt. eigenvalues --    0.02575   0.06658   0.29154   0.39827   0.41803

  Beta  occ. eigenvalues --  -10.95162 -10.94966  -1.18029  -0.95510  -0.88773
  Beta  occ. eigenvalues --   -0.67612
  Beta virt. eigenvalues --   -0.46083  -0.23454  -0.20579  -0.15362  -0.14443
  Beta virt. eigenvalues --   -0.11499  -0.10309  -0.10214  -0.04933  -0.04129
  Beta virt. eigenvalues --   -0.03181   0.02477   0.07503   0.30549   0.40589

 Mulliken charges and spin densities:
               1          2
     1  C    0.142163   0.517850
     2  C    0.142158   0.517850
     3  H    0.357842  -0.017850
     4  H    0.357837  -0.017849
 Sum of Mulliken charges =   1.00000   1.00000

 Dipole moment (field-independent basis, Debye):
    X=              0.0000    Y=              0.0000    Z=             -0.0000  Tot=              0.0000
 Quadrupole moment (field-independent basis, Debye-Ang):
   XX=            -11.3700   YY=             -9.5794   ZZ=             -0.4633
   XY=              0.0000   XZ=              0.0000   YZ=              0.0000

  Exact polarizability:   8.720   0.000   8.163   0.000   0.000  23.951
 Approx polarizability:   9.067  -0.000   8.899  -0.000  -0.000  30.675

                      1                      2                      3
                     PI                     PI                     PI
 Frequencies --    658.7143               709.1076               759.8205
 Red. masses --      1.5606                 1.0848                 1.0848
 Frc consts  --      0.3990                 0.3214                 0.3690
 IR Inten    --      0.0000                33.9036               132.2396
 Raman Activ --      3.4479                 0.0000                 0.0000

                      4                      5                      6
                     PI                     SG                     SG
 Frequencies --    760.2854              1969.9544              3309.2848
 Red. masses --      1.5606                 3.8415                 1.0848
 Frc consts  --      0.5315                 8.7834                 6.9996
 IR Inten    --      0.0000                 0.0000               497.3195
 Raman Activ --      0.2854                56.5049                 0.0000

                      7
                     SG
 Frequencies --   3417.1907
 Red. masses --      1.2266
 Frc consts  --      8.4391
 IR Inten    --      0.0001
 Raman Activ --     48.1366

 - Thermochemistry -
 -------------------
 Temperature   298.150 Kelvin.  Pressure   1.00000 Atm.
 Atom     1 has atomic number  6 and mass  12.00000

 Molecular mass:    26.01565 amu.
 Principal axes and moments of inertia in atomic units:
                           1         2         3
     Eigenvalues --     0.00000  53.94924  53.94924
           X            0.00000  -0.00000   1.00000
           Y            0.00000   1.00000   0.00000
           Z            1.00000   0.00000   0.00000
 This molecule is a prolate symmetric top.
 Rotational symmetry number  1.
 Rotational temperature (Kelvin)      1.60547
 Rotational constant (GHZ):          33.452580
 Zero-point vibrational energy      69289.8 (Joules/Mol)
                                   16.56067 (Kcal/Mol)
 Vibrational temperatures:    947.74  1020.25  1093.21  1093.88  2834.32
          (Kelvin)           4761.32  4916.58

 Zero-point correction=                           0.026391 (Hartree/Particle)
 Thermal correction to Energy=                    0.029173
 Thermal correction to Enthalpy=                  0.030117
 Thermal correction to Gibbs Free Energy=         0.006080
 Sum of electronic and zero-point Energies=            -76.859084
 Sum of electronic and thermal Energies=               -76.856302
 Sum of electronic and thermal Enthalpies=             -76.855358
 Sum of electronic and thermal Free Energies=          -76.879396

                     E (Thermal)             CV                S
                      KCal/Mol        Cal/Mol-Kelvin    Cal/Mol-Kelvin
 Total                   18.306              8.141             50.591
 Electronic               0.000              0.000              1.377
 Translational            0.889              2.981             35.704
 Rotational               0.592              1.987             12.369
 Vibrational             16.825              3.173              1.141

 Normal termination of Gaussian 16 at Mon Nov 25 04:53:14 2024.
