 Gaussian 16, Revision A.03,
 Gaussian 16:  ES64L-G16RevA.03 25-Dec-2016

 --------------------------------------------
 #p opt UM062X/6-311+G** nosymm int=superfine
 --------------------------------------------

 -------------------
 Title Card Required
 -------------------
 Symbolic Z-matrix:
 Charge =  0 Multiplicity = 1

 SCF Done:  E(UM062X) =  -76.8696832271     A.U. after   15 cycles
 SCF Done:  E(UM062X) =  -76.8702759498     A.U. after   15 cycles
 SCF Done:  E(UM062X) =  -76.8714782789     A.U. after   16 cycles
 SCF Done:  E(UM062X) =  -76.8719493485     A.U. after   16 cycles
 SCF Done:  E(UM062X) =  -76.8720457392     A.U. after   15 cycles
 SCF Done:  E(UM062X) =  -76.8720681274     A.U. after   20 cycles
 SCF Done:  E(UM062X) =  -76.8720682391     A.U. after   11 cycles
 Optimization completed.
    -- Stationary point found.

                          Input orientation:
 ---------------------------------------------------------------------
 Center     Atomic      Atomic             Coordinates (Angstroms)
 Number     Number       Type             X           Y           Z
 ---------------------------------------------------------------------
      1          6           0       -1.882625    0.000000    0.000000
      2          6           0        1.882625    0.000000    0.000000
      3          1           0       -1.710486   -0.652217    0.891815
      4          1           0        1.710775    0.653808   -0.890702
 ---------------------------------------------------------------------

 Alpha  occ. eigenvalues --  -10.67681 -10.67680  -0.73004  -0.72518  -0.39157
 Alpha  occ. eigenvalues --   -0.38942  -0.23718
 Alpha virt. eigenvalues --   -0.12851  -0.10385  -0.09579   0.03254   0.04561
 Alpha virt. eigenvalues --    0.07235   0.07301   0.09271   0.09680   0.10922
 Alpha virt. eigenvalues --    0.13910   0.18119   0.19275   0.44380   0.45338

  Beta  occ. eigenvalues --  -10.67681 -10.67680  -0.73004  -0.72518  -0.39157
  Beta  occ. eigenvalues --   -0.38942  -0.23718
  Beta virt. eigenvalues --   -0.12851  -0.10385  -0.09579   0.03254   0.04561
  Beta virt. eigenvalues --    0.07235   0.07301   0.09271   0.09680   0.10922
  Beta virt. eigenvalues --    0.13910   0.18119   0.19275   0.44380   0.45338

 Mulliken charges and spin densities:
               1          2
     1  C   -0.143045   0.000002
     2  C   -0.143083  -0.000002
     3  H    0.143066  -0.000000
     4  H    0.143062   0.000000
 Sum of Mulliken charges =  -0.00000   0.00000

 Dipole moment (field-independent basis, Debye):
    X=              0.0002    Y=              0.0023    Z=              0.0017  Tot=              0.0029
 Quadrupole moment (field-independent basis, Debye-Ang):
   XX=            -17.0300   YY=            -12.9743   ZZ=            -13.7865
   XY=              3.6518   XZ=             -4.9843   YZ=              1.2849

 Normal termination of Gaussian 16 at Tue Dec  3 23:52:49 2024.
