 Gaussian 16, Revision A.03,
 Gaussian 16:  ES64L-G16RevA.03 25-Dec-2016

 --------------------------------------------
 #p opt UM062X/6-311+G** nosymm int=superfine
 --------------------------------------------

 -------------------
 Title Card Required
 -------------------
 Symbolic Z-matrix:
 Charge = -1 Multiplicity = 2

 SCF Done:  E(UM062X) =  -53.1920082704     A.U. after   12 cycles
 SCF Done:  E(UM062X) =  -53.1972801791     A.U. after   11 cycles
 SCF Done:  E(UM062X) =  -53.1984632726     A.U. after   10 cycles
 SCF Done:  E(UM062X) =  -53.1984774418     A.U. after    9 cycles
 Optimization completed.
    -- Stationary point found.

                          Input orientation:
 ---------------------------------------------------------------------
 Center     Atomic      Atomic             Coordinates (Angstroms)
 Number     Number       Type             X           Y           Z
 ---------------------------------------------------------------------
      1          5           0       -2.490672    0.000000    0.000000
      2          5           0        2.490672    0.000000    0.000000
      3          1           0        2.534986   -1.196994   -0.000016
      4          1           0       -2.534695   -0.598503    1.036647
      5          1           0        2.534867    0.598521   -1.036630
      6          1           0        2.534623    0.598489    1.036657
      7          1           0       -2.534995    1.196994   -0.000001
      8          1           0       -2.534786   -0.598508   -1.036640
 ---------------------------------------------------------------------

 Alpha  occ. eigenvalues --   -6.85699  -6.85699  -0.40920  -0.40735  -0.22831
 Alpha  occ. eigenvalues --   -0.22831  -0.22768  -0.22768   0.01555
 Alpha virt. eigenvalues --    0.09316   0.16165   0.17327   0.17327   0.17901
 Alpha virt. eigenvalues --    0.17901   0.17957   0.23688   0.23798   0.32587
 Alpha virt. eigenvalues --    0.32588   0.33111   0.33112   0.33636   0.38289

  Beta  occ. eigenvalues --   -6.85662  -6.85662  -0.39296  -0.39171  -0.22689
  Beta  occ. eigenvalues --   -0.22689  -0.22607  -0.22607
  Beta virt. eigenvalues --    0.03622   0.12503   0.12723   0.13808   0.13809
  Beta virt. eigenvalues --    0.17258   0.17258   0.18817   0.22693   0.24463
  Beta virt. eigenvalues --    0.31117   0.31600   0.31601   0.32121   0.32123

 Mulliken charges and spin densities:
               1          2
     1  B   -0.366982   0.544420
     2  B   -0.366982   0.544420
     3  H   -0.044373  -0.014840
     4  H   -0.044320  -0.014789
     5  H   -0.044327  -0.014791
     6  H   -0.044318  -0.014789
     7  H   -0.044373  -0.014840
     8  H   -0.044325  -0.014791
 Sum of Mulliken charges =  -1.00000   1.00000

 Dipole moment (field-independent basis, Debye):
    X=              0.0000    Y=             -0.0000    Z=              0.0001  Tot=              0.0001
 Quadrupole moment (field-independent basis, Debye-Ang):
   XX=            -53.2257   YY=            -24.4058   ZZ=            -24.4056
   XY=              0.0001   XZ=              0.0000   YZ=              0.0000

 Normal termination of Gaussian 16 at Mon Apr 21 16:55:42 2025.
