 Gaussian 16, Revision A.03,
 Gaussian 16:  ES64L-G16RevA.03 25-Dec-2016

 --------------------------------------------
 #p opt UM062X/6-311+G** nosymm int=superfine
 --------------------------------------------

 -------------------
 Title Card Required
 -------------------
 Symbolic Z-matrix:
 Charge = -1 Multiplicity = 2

 SCF Done:  E(UM062X) =  -51.8455909744     A.U. after   12 cycles
 SCF Done:  E(UM062X) =  -51.8456143708     A.U. after    9 cycles
 SCF Done:  E(UM062X) =  -51.8456154077     A.U. after   12 cycles
 SCF Done:  E(UM062X) =  -51.8456157743     A.U. after   15 cycles
 Optimization completed.
    -- Stationary point found.

                          Input orientation:
 ---------------------------------------------------------------------
 Center     Atomic      Atomic             Coordinates (Angstroms)
 Number     Number       Type             X           Y           Z
 ---------------------------------------------------------------------
      1          5           0       -2.197274    0.000000    0.000000
      2          5           0        2.197274    0.000000    0.000000
      3          1           0       -2.863663   -1.013682    0.000222
      4          1           0        2.863663    1.013682   -0.000254
      5          1           0       -2.863666    1.013681    0.000242
      6          1           0        2.863666   -1.013681    0.000717
 ---------------------------------------------------------------------

 Alpha  occ. eigenvalues --   -6.88203  -6.88203  -0.38331  -0.38275  -0.22490
 Alpha  occ. eigenvalues --   -0.22455  -0.05565  -0.03145
 Alpha virt. eigenvalues --    0.11616   0.12705   0.14836   0.15326   0.15547
 Alpha virt. eigenvalues --    0.17367   0.19600   0.20580   0.20704   0.22962
 Alpha virt. eigenvalues --    0.31975   0.33151   0.33696   0.36280   0.50658

  Beta  occ. eigenvalues --   -6.87613  -6.87613  -0.36986  -0.36858  -0.21787
  Beta  occ. eigenvalues --   -0.21739   0.01949
  Beta virt. eigenvalues --    0.12207   0.12974   0.13848   0.14436   0.15787
  Beta virt. eigenvalues --    0.17760   0.18113   0.21978   0.22198   0.24197
  Beta virt. eigenvalues --    0.25269   0.32043   0.33344   0.33858   0.37102

 Mulliken charges and spin densities:
               1          2
     1  B   -0.345464   0.492143
     2  B   -0.345464   0.492143
     3  H   -0.077268   0.003929
     4  H   -0.077268   0.003929
     5  H   -0.077268   0.003929
     6  H   -0.077268   0.003929
 Sum of Mulliken charges =  -1.00000   1.00000

 Dipole moment (field-independent basis, Debye):
    X=              0.0000    Y=              0.0000    Z=              0.0017  Tot=              0.0017
 Quadrupole moment (field-independent basis, Debye-Ang):
   XX=            -43.2125   YY=            -24.3947   ZZ=            -18.9217
   XY=              0.0000   XZ=              0.0000   YZ=              0.0013

 Normal termination of Gaussian 16 at Mon Apr 21 17:22:42 2025.
