 Gaussian 16, Revision A.03,
 Gaussian 16:  ES64L-G16RevA.03 25-Dec-2016

 --------------------------------------------
 #p opt UM062X/6-311+G** nosymm int=superfine
 --------------------------------------------

 -------------------
 Title Card Required
 -------------------
 Symbolic Z-matrix:
 Charge =  0 Multiplicity = 1

 SCF Done:  E(UM062X) =  -81.7793900538     A.U. after   15 cycles
 SCF Done:  E(UM062X) =  -81.7856632054     A.U. after   11 cycles
 SCF Done:  E(UM062X) =  -81.7892729354     A.U. after   12 cycles
 SCF Done:  E(UM062X) =  -81.7879892539     A.U. after   14 cycles
 SCF Done:  E(UM062X) =  -81.7932601681     A.U. after   13 cycles
 SCF Done:  E(UM062X) =  -81.8021663668     A.U. after   14 cycles
 SCF Done:  E(UM062X) =  -81.8074763783     A.U. after   13 cycles
 SCF Done:  E(UM062X) =  -81.8106316563     A.U. after   11 cycles
 SCF Done:  E(UM062X) =  -81.8114644807     A.U. after   11 cycles
 SCF Done:  E(UM062X) =  -81.8114767961     A.U. after   10 cycles
 SCF Done:  E(UM062X) =  -81.8114793492     A.U. after   10 cycles
 Optimization completed.
    -- Stationary point found.

                          Input orientation:
 ---------------------------------------------------------------------
 Center     Atomic      Atomic             Coordinates (Angstroms)
 Number     Number       Type             X           Y           Z
 ---------------------------------------------------------------------
      1          5           0       -1.345399    0.000000    0.000000
      2          7           0        1.345399    0.000000    0.000000
      3          1           0       -1.747342   -1.101905   -0.028924
      4          1           0        1.427498    0.807411    0.623634
      5          1           0       -1.747342    1.101897   -0.029243
      6          1           0        1.427498   -0.807239    0.623857
 ---------------------------------------------------------------------

 Alpha  occ. eigenvalues --  -14.72287  -7.16369  -0.88056  -0.61241  -0.49647
 Alpha  occ. eigenvalues --   -0.48502  -0.34181  -0.27592
 Alpha virt. eigenvalues --   -0.07176  -0.04628   0.01233   0.03149   0.04371
 Alpha virt. eigenvalues --    0.05419   0.10830   0.13153   0.13780   0.17191
 Alpha virt. eigenvalues --    0.20568   0.20938   0.21325   0.30161   0.33035

  Beta  occ. eigenvalues --  -14.72287  -7.16369  -0.88056  -0.61241  -0.49647
  Beta  occ. eigenvalues --   -0.48502  -0.34181  -0.27592
  Beta virt. eigenvalues --   -0.07176  -0.04628   0.01233   0.03149   0.04371
  Beta virt. eigenvalues --    0.05419   0.10830   0.13153   0.13780   0.17191
  Beta virt. eigenvalues --    0.20568   0.20938   0.21325   0.30161   0.33035

 Mulliken charges and spin densities:
               1          2
     1  B    0.189438  -0.000000
     2  N   -0.733996   0.000000
     3  H    0.050247   0.000000
     4  H    0.222032  -0.000000
     5  H    0.050247   0.000000
     6  H    0.222032  -0.000000
 Sum of Mulliken charges =  -0.00000  -0.00000

 Dipole moment (field-independent basis, Debye):
    X=             -3.5581    Y=              0.0002    Z=              1.7262  Tot=              3.9547
 Quadrupole moment (field-independent basis, Debye-Ang):
   XX=            -14.6920   YY=            -13.3904   ZZ=            -14.4433
   XY=              0.0004   XZ=              2.8682   YZ=             -0.0001

 Normal termination of Gaussian 16 at Mon Apr 21 17:44:44 2025.
