 Gaussian 16, Revision A.03,
 Gaussian 16:  ES64L-G16RevA.03 25-Dec-2016

 --------------------------------------------
 #p opt UM062X/6-311+G** nosymm int=superfine
 --------------------------------------------

 -------------------
 Title Card Required
 -------------------
 Symbolic Z-matrix:
 Charge =  0 Multiplicity = 1

 SCF Done:  E(UM062X) =  -797.553449777     A.U. after   10 cycles
 SCF Done:  E(UM062X) =  -797.553532668     A.U. after   11 cycles
 SCF Done:  E(UM062X) =  -797.552981758     A.U. after   11 cycles
 SCF Done:  E(UM062X) =  -797.553595398     A.U. after   10 cycles
 SCF Done:  E(UM062X) =  -797.553595849     A.U. after    8 cycles
 Optimization completed.
    -- Stationary point found.

                          Input orientation:
 ---------------------------------------------------------------------
 Center     Atomic      Atomic             Coordinates (Angstroms)
 Number     Number       Type             X           Y           Z
 ---------------------------------------------------------------------
      1         16           0       -1.093191    0.000000    0.000000
      2         16           0        1.093191    0.000000    0.000000
      3          1           0       -1.238181   -1.335467   -0.001467
      4          1           0        1.237906    0.037166    1.335068
 ---------------------------------------------------------------------

 Alpha  occ. eigenvalues --  -89.93074 -89.93073  -8.29464  -8.29460  -6.21625
 Alpha  occ. eigenvalues --   -6.21612  -6.21349  -6.21347  -6.20868  -6.20868
 Alpha  occ. eigenvalues --   -0.88510  -0.76676  -0.50836  -0.47266  -0.41013
 Alpha  occ. eigenvalues --   -0.32677  -0.32544
 Alpha virt. eigenvalues --   -0.04029   0.01531   0.03517   0.04953   0.05043
 Alpha virt. eigenvalues --    0.05961   0.07714   0.07784   0.07863   0.12732
 Alpha virt. eigenvalues --    0.13808   0.29573   0.32137   0.33159   0.33358

  Beta  occ. eigenvalues --  -89.93074 -89.93073  -8.29464  -8.29460  -6.21625
  Beta  occ. eigenvalues --   -6.21612  -6.21349  -6.21347  -6.20868  -6.20868
  Beta  occ. eigenvalues --   -0.88510  -0.76676  -0.50836  -0.47266  -0.41013
  Beta  occ. eigenvalues --   -0.32677  -0.32544
  Beta virt. eigenvalues --   -0.04029   0.01531   0.03517   0.04953   0.05043
  Beta virt. eigenvalues --    0.05961   0.07714   0.07784   0.07863   0.12732
  Beta virt. eigenvalues --    0.13808   0.29573   0.32137   0.33159   0.33358

 Mulliken charges and spin densities:
               1          2
     1  S   -0.087184   0.000000
     2  S   -0.087115  -0.000000
     3  H    0.087147  -0.000000
     4  H    0.087152   0.000000
 Sum of Mulliken charges =  -0.00000  -0.00000

 Dipole moment (field-independent basis, Debye):
    X=              0.0001    Y=             -1.0493    Z=              1.0777  Tot=              1.5041
 Quadrupole moment (field-independent basis, Debye-Ang):
   XX=            -26.7705   YY=            -27.3124   ZZ=            -27.3186
   XY=              1.8215   XZ=              1.7729   YZ=              0.1235

 Normal termination of Gaussian 16 at Mon Apr 21 21:15:07 2025.
