 Gaussian 16, Revision A.03,
 Gaussian 16:  ES64L-G16RevA.03 25-Dec-2016

 --------------------------------------------
 #p opt UM062X/6-311+G** nosymm int=superfine
 --------------------------------------------

 -------------------
 Title Card Required
 -------------------
 Symbolic Z-matrix:
 Charge =  0 Multiplicity = 1

 SCF Done:  E(UM062X) =  -683.622029986     A.U. after   12 cycles
 SCF Done:  E(UM062X) =  -683.622653984     A.U. after   10 cycles
 SCF Done:  E(UM062X) =  -683.623185106     A.U. after   12 cycles
 SCF Done:  E(UM062X) =  -683.623187472     A.U. after    8 cycles
 Optimization completed.
    -- Stationary point found.

                          Input orientation:
 ---------------------------------------------------------------------
 Center     Atomic      Atomic             Coordinates (Angstroms)
 Number     Number       Type             X           Y           Z
 ---------------------------------------------------------------------
      1         15           0       -1.909490    0.000000    0.000000
      2         15           0        1.909490    0.000000    0.000000
      3          1           0       -1.800972   -1.419225    0.000000
      4          1           0        1.800972    1.419225    0.000000
 ---------------------------------------------------------------------

 Alpha  occ. eigenvalues --  -78.08538 -78.08538  -6.90533  -6.90532  -5.01944
 Alpha  occ. eigenvalues --   -5.01944  -5.01932  -5.01932  -5.01744  -5.01744
 Alpha  occ. eigenvalues --   -0.68865  -0.67827  -0.40604  -0.40339  -0.26812
 Alpha  occ. eigenvalues --   -0.24582
 Alpha virt. eigenvalues --   -0.16426  -0.14028   0.01979   0.03051   0.03721
 Alpha virt. eigenvalues --    0.04595   0.05481   0.05852   0.06494   0.07861
 Alpha virt. eigenvalues --    0.08634   0.11829   0.27914   0.30173   0.30933

  Beta  occ. eigenvalues --  -78.08538 -78.08538  -6.90533  -6.90532  -5.01944
  Beta  occ. eigenvalues --   -5.01944  -5.01932  -5.01932  -5.01744  -5.01744
  Beta  occ. eigenvalues --   -0.68865  -0.67827  -0.40604  -0.40339  -0.26812
  Beta  occ. eigenvalues --   -0.24582
  Beta virt. eigenvalues --   -0.16426  -0.14028   0.01979   0.03051   0.03721
  Beta virt. eigenvalues --    0.04595   0.05481   0.05852   0.06494   0.07861
  Beta virt. eigenvalues --    0.08634   0.11829   0.27914   0.30173   0.30933

 Mulliken charges and spin densities:
               1          2
     1  P    0.007229   0.000001
     2  P    0.007228  -0.000001
     3  H   -0.007228  -0.000000
     4  H   -0.007228   0.000000
 Sum of Mulliken charges =  -0.00000   0.00000

 Dipole moment (field-independent basis, Debye):
    X=             -0.0000    Y=              0.0000    Z=              0.0000  Tot=              0.0000
 Quadrupole moment (field-independent basis, Debye-Ang):
   XX=            -26.7406   YY=            -28.4543   ZZ=            -30.8566
   XY=              3.0940   XZ=             -0.0000   YZ=             -0.0000

 Normal termination of Gaussian 16 at Mon Apr 21 21:08:01 2025.
