 Gaussian 16, Revision A.03,
 Gaussian 16:  ES64L-G16RevA.03 25-Dec-2016

 ---------------------------------------------------
 #p UM062X/6-311+G** force int=superfine pop=saveNBO
 ---------------------------------------------------

 -------------------
 Title Card Required
 -------------------
 Symbolic Z-matrix:
 Charge =  0 Multiplicity = 1

                         Standard orientation:
 ---------------------------------------------------------------------
 Center     Atomic      Atomic             Coordinates (Angstroms)
 Number     Number       Type             X           Y           Z
 ---------------------------------------------------------------------
      1          6           0        0.000000    0.000000   -2.602612
      2         16           0        0.000000    0.000000    0.975980
 ---------------------------------------------------------------------

 SCF Done:  E(UM062X) =  -435.768259355     A.U. after   32 cycles

 The electronic state is 1-SG.
 Alpha  occ. eigenvalues --  -89.93945 -10.82271  -8.29755  -6.21605  -6.21605
 Alpha  occ. eigenvalues --   -6.21369  -0.73567  -0.70725  -0.30609  -0.28715
 Alpha  occ. eigenvalues --   -0.28715
 Alpha virt. eigenvalues --   -0.20235  -0.20235  -0.17677   0.02737   0.05583
 Alpha virt. eigenvalues --    0.05874   0.05874   0.08479   0.08479   0.08601
 Alpha virt. eigenvalues --    0.13839   0.35967   0.35967   0.36226   0.51568

  Beta  occ. eigenvalues --  -89.93945 -10.82271  -8.29755  -6.21605  -6.21605
  Beta  occ. eigenvalues --   -6.21369  -0.73567  -0.70725  -0.30609  -0.28715
  Beta  occ. eigenvalues --   -0.28715
  Beta virt. eigenvalues --   -0.20235  -0.20235  -0.17677   0.02737   0.05583
  Beta virt. eigenvalues --    0.05874   0.05874   0.08479   0.08479   0.08601
  Beta virt. eigenvalues --    0.13839   0.35967   0.35967   0.36226   0.51568

 Mulliken charges and spin densities:
               1          2
     1  C    0.214705  -0.000000
     2  S   -0.214705   0.000000
 Sum of Mulliken charges =  -0.00000   0.00000

 Dipole moment (field-independent basis, Debye):
    X=              0.0000    Y=              0.0000    Z=             -3.6188  Tot=              3.6188
 Quadrupole moment (field-independent basis, Debye-Ang):
   XX=            -20.8816   YY=            -20.8816   ZZ=            -12.3958
   XY=              0.0000   XZ=              0.0000   YZ=              0.0000

 Summary of Natural Population Analysis:

                                       Natural Population
                Natural  -----------------------------------------------
    Atom  No    Charge         Core      Valence    Rydberg      Total
 -----------------------------------------------------------------------
      C    1    0.12360      1.00000     1.87598    0.00043     2.87640
      S    2   -0.12360      5.00000     3.12329    0.00031     8.12360
 =======================================================================
   * Total *   -0.00000      6.00000     4.99926    0.00074    11.00000

 Normal termination of Gaussian 16 at Mon Apr 21 19:41:13 2025.
