 Gaussian 16, Revision A.03,
 Gaussian 16:  ES64L-G16RevA.03 25-Dec-2016

 ---------------------------------------
 #p UM062X/6-311+G** force int=superfine
 ---------------------------------------

 -------------------
 Title Card Required
 -------------------
 Symbolic Z-matrix:
 Charge =  0 Multiplicity = 1

                         Standard orientation:
 ---------------------------------------------------------------------
 Center     Atomic      Atomic             Coordinates (Angstroms)
 Number     Number       Type             X           Y           Z
 ---------------------------------------------------------------------
      1          6           0       -0.153211   -0.327651    0.841892
      2          6           0        0.153211    0.327651   -0.841892
      3          1           0        0.329236   -0.520067   -1.498228
      4          1           0       -1.025560   -0.973199    0.790365
      5          1           0        1.025560    0.973201   -0.790367
      6          1           0       -0.729995    0.883118   -1.144856
      7          1           0       -0.329236    0.520067    1.498228
      8          1           0        0.729994   -0.883120    1.144859
 ---------------------------------------------------------------------

 SCF Done:  E(UM062X) =  -79.7691124757     A.U. after    8 cycles

 The electronic state is 1-A.
 Alpha  occ. eigenvalues --  -10.53783 -10.53769  -0.80592  -0.71694  -0.48794
 Alpha  occ. eigenvalues --   -0.48794  -0.43055  -0.43054  -0.36468
 Alpha virt. eigenvalues --    0.02263   0.03534   0.05635   0.05635   0.08601
 Alpha virt. eigenvalues --    0.08601   0.09261   0.13343   0.17073   0.18350
 Alpha virt. eigenvalues --    0.18351   0.21815   0.21815   0.24254   0.27445

  Beta  occ. eigenvalues --  -10.53783 -10.53769  -0.80592  -0.71694  -0.48794
  Beta  occ. eigenvalues --   -0.48794  -0.43055  -0.43054  -0.36468
  Beta virt. eigenvalues --    0.02263   0.03534   0.05635   0.05635   0.08601
  Beta virt. eigenvalues --    0.08601   0.09261   0.13343   0.17073   0.18350
  Beta virt. eigenvalues --    0.18351   0.21815   0.21815   0.24254   0.27445

 Mulliken charges and spin densities:
               1          2
     1  C   -0.489816   0.000000
     2  C   -0.489816  -0.000000
     3  H    0.163272   0.000000
     4  H    0.163272   0.000000
     5  H    0.163272   0.000000
     6  H    0.163273  -0.000000
     7  H    0.163272  -0.000000
     8  H    0.163272   0.000000
 Sum of Mulliken charges =  -0.00000   0.00000

 Dipole moment (field-independent basis, Debye):
    X=             -0.0000    Y=              0.0000    Z=             -0.0000  Tot=              0.0000
 Quadrupole moment (field-independent basis, Debye-Ang):
   XX=            -14.9432   YY=            -15.0100   ZZ=            -15.4887
   XY=             -0.0399   XZ=              0.1026   YZ=              0.2196

 Normal termination of Gaussian 16 at Tue Nov 19 12:48:02 2024.
