 Gaussian 16, Revision A.03,
 Gaussian 16:  ES64L-G16RevA.03 25-Dec-2016

 --------------------------------------------
 #p opt UM062X/6-311+G** nosymm int=superfine
 --------------------------------------------

 -------------------
 Title Card Required
 -------------------
 Symbolic Z-matrix:
 Charge =  0 Multiplicity = 1

 SCF Done:  E(UM062X) =  -39.1142946269     A.U. after    9 cycles
 SCF Done:  E(UM062X) =  -39.1185525615     A.U. after    9 cycles
 SCF Done:  E(UM062X) =  -39.1188808282     A.U. after    8 cycles
 SCF Done:  E(UM062X) =  -39.1188814309     A.U. after    7 cycles
 Optimization completed.
    -- Stationary point found.

                          Input orientation:
 ---------------------------------------------------------------------
 Center     Atomic      Atomic             Coordinates (Angstroms)
 Number     Number       Type             X           Y           Z
 ---------------------------------------------------------------------
      1          6           0       -0.548736   -0.005582    0.000008
      2          1           0       -1.290780   -0.830125   -0.000008
      3          1           0       -1.203587    0.889764   -0.000110
 ---------------------------------------------------------------------

 Alpha  occ. eigenvalues --  -10.60951  -0.75847  -0.47717  -0.31579
 Alpha virt. eigenvalues --   -0.08382   0.02261   0.06481   0.08425   0.09045
 Alpha virt. eigenvalues --    0.17485   0.19379   0.43991   0.48398   0.58636
 Alpha virt. eigenvalues --    0.62177   0.63371   0.72855   1.08991   1.10273

  Beta  occ. eigenvalues --  -10.60951  -0.75847  -0.47717  -0.31579
  Beta virt. eigenvalues --   -0.08382   0.02261   0.06481   0.08425   0.09045
  Beta virt. eigenvalues --    0.17485   0.19379   0.43991   0.48398   0.58636
  Beta virt. eigenvalues --    0.62177   0.63371   0.72855   1.08991   1.10273

 Mulliken charges and spin densities:
               1          2
     1  C   -0.254994   0.000000
     2  H    0.127496  -0.000000
     3  H    0.127498  -0.000000
 Sum of Mulliken charges =  -0.00000   0.00000

 Dipole moment (field-independent basis, Debye):
    X=             -2.0878    Y=              0.1058    Z=             -0.0002  Tot=              2.0905
 Quadrupole moment (field-independent basis, Debye-Ang):
   XX=             -6.7837   YY=             -7.2355   ZZ=             -6.4381
   XY=              0.0471   XZ=             -0.0002   YZ=              0.0001

 Normal termination of Gaussian 16 at Wed Apr 16 08:35:39 2025.
