 Gaussian 16, Revision A.03,
 Gaussian 16:  ES64L-G16RevA.03 25-Dec-2016

 --------------------------------------------
 #p opt UM062X/6-311+G** nosymm int=superfine
 --------------------------------------------

 -------------------
 Title Card Required
 -------------------
 Symbolic Z-matrix:
 Charge =  0 Multiplicity = 1

 SCF Done:  E(UM062X) =  -79.7259112040     A.U. after    8 cycles
 SCF Done:  E(UM062X) =  -79.7454863541     A.U. after    8 cycles
 SCF Done:  E(UM062X) =  -79.7533953077     A.U. after    8 cycles
 SCF Done:  E(UM062X) =  -79.7534314472     A.U. after    7 cycles
 Optimization completed.
    -- Stationary point found.

                          Input orientation:
 ---------------------------------------------------------------------
 Center     Atomic      Atomic             Coordinates (Angstroms)
 Number     Number       Type             X           Y           Z
 ---------------------------------------------------------------------
      1          6           0       -0.969705    0.000000    0.000000
      2          6           0        0.969804    0.000000    0.000000
      3          1           0        1.275825   -0.901721    0.521800
      4          1           0       -1.275728   -0.902740   -0.520041
      5          1           0        1.275828    0.902739    0.520039
      6          1           0        1.275866   -0.001017   -1.041801
      7          1           0       -1.275726    0.901722   -0.521800
      8          1           0       -1.275768    0.001016    1.041800
 ---------------------------------------------------------------------

 Alpha  occ. eigenvalues --  -10.54247 -10.54236  -0.79648  -0.72182  -0.48543
 Alpha  occ. eigenvalues --   -0.48543  -0.43800  -0.43800  -0.34588
 Alpha virt. eigenvalues --    0.02300   0.03108   0.05640   0.05640   0.08539
 Alpha virt. eigenvalues --    0.08539   0.09390   0.12588   0.14512   0.18252
 Alpha virt. eigenvalues --    0.18253   0.21953   0.21953   0.24275   0.27184

  Beta  occ. eigenvalues --  -10.54247 -10.54236  -0.79648  -0.72182  -0.48543
  Beta  occ. eigenvalues --   -0.48543  -0.43800  -0.43800  -0.34588
  Beta virt. eigenvalues --    0.02300   0.03108   0.05640   0.05640   0.08539
  Beta virt. eigenvalues --    0.08539   0.09390   0.12588   0.14512   0.18252
  Beta virt. eigenvalues --    0.18253   0.21953   0.21953   0.24275   0.27184

 Mulliken charges and spin densities:
               1          2
     1  C   -0.494587  -0.000000
     2  C   -0.494587   0.000000
     3  H    0.164863   0.000000
     4  H    0.164863   0.000000
     5  H    0.164863   0.000000
     6  H    0.164861   0.000000
     7  H    0.164863   0.000000
     8  H    0.164861   0.000000
 Sum of Mulliken charges =  -0.00000   0.00000

 Dipole moment (field-independent basis, Debye):
    X=              0.0000    Y=              0.0000    Z=              0.0000  Tot=              0.0000
 Quadrupole moment (field-independent basis, Debye-Ang):
   XX=            -15.5985   YY=            -14.8989   ZZ=            -14.8988
   XY=              0.0000   XZ=             -0.0001   YZ=              0.0000

 Normal termination of Gaussian 16 at Tue Nov 19 12:03:54 2024.
