 Gaussian 16, Revision A.03,
 Gaussian 16:  ES64L-G16RevA.03 25-Dec-2016

 --------------------------------------------
 #p opt UM062X/6-311+G** nosymm int=superfine
 --------------------------------------------

 -------------------
 Title Card Required
 -------------------
 Symbolic Z-matrix:
 Charge =  0 Multiplicity = 1

 SCF Done:  E(UM062X) =  -110.221181575     A.U. after   13 cycles
 SCF Done:  E(UM062X) =  -110.227216809     A.U. after   12 cycles
 SCF Done:  E(UM062X) =  -110.232853488     A.U. after   14 cycles
 SCF Done:  E(UM062X) =  -110.232873430     A.U. after   11 cycles
 Optimization completed.
    -- Stationary point found.

                          Input orientation:
 ---------------------------------------------------------------------
 Center     Atomic      Atomic             Coordinates (Angstroms)
 Number     Number       Type             X           Y           Z
 ---------------------------------------------------------------------
      1          7           0       -1.440428    0.000000    0.000000
      2          7           0        1.440428    0.000000    0.000000
      3          1           0       -1.263775   -1.023201   -0.000000
      4          1           0        1.263775    1.023201   -0.000000
 ---------------------------------------------------------------------

 Alpha  occ. eigenvalues --  -14.88804 -14.88801  -0.93276  -0.91664  -0.49386
 Alpha  occ. eigenvalues --   -0.48440  -0.33581  -0.31149
 Alpha virt. eigenvalues --   -0.20270  -0.17619   0.05515   0.07371   0.10675
 Alpha virt. eigenvalues --    0.11838   0.13359   0.14817   0.15763   0.18644
 Alpha virt. eigenvalues --    0.19683   0.23496   0.51998   0.55373   0.70044

  Beta  occ. eigenvalues --  -14.88804 -14.88801  -0.93276  -0.91664  -0.49386
  Beta  occ. eigenvalues --   -0.48440  -0.33581  -0.31149
  Beta virt. eigenvalues --   -0.20270  -0.17619   0.05515   0.07371   0.10675
  Beta virt. eigenvalues --    0.11838   0.13359   0.14817   0.15763   0.18644
  Beta virt. eigenvalues --    0.19683   0.23496   0.51998   0.55373   0.70044

 Mulliken charges and spin densities:
               1          2
     1  N   -0.242113   0.000000
     2  N   -0.242112  -0.000000
     3  H    0.242113  -0.000000
     4  H    0.242113   0.000000
 Sum of Mulliken charges =  -0.00000   0.00000

 Dipole moment (field-independent basis, Debye):
    X=              0.0000    Y=              0.0000    Z=             -0.0000  Tot=              0.0000
 Quadrupole moment (field-independent basis, Debye-Ang):
   XX=            -14.0306   YY=            -11.1135   ZZ=            -14.1889
   XY=              4.8869   XZ=             -0.0000   YZ=             -0.0000

 Normal termination of Gaussian 16 at Thu May 15 15:38:41 2025.
