 Gaussian 16, Revision A.03,
 Gaussian 16:  ES64L-G16RevA.03 25-Dec-2016

 --------------------------------------------
 #p opt UM062X/6-311+G** nosymm int=superfine
 --------------------------------------------

 -------------------
 Title Card Required
 -------------------
 Symbolic Z-matrix:
 Charge =  0 Multiplicity = 1

 SCF Done:  E(UM062X) =  -80.3952438227     A.U. after   25 cycles
 SCF Done:  E(UM062X) =  -80.3995156204     A.U. after   13 cycles
 SCF Done:  E(UM062X) =  -80.4003496547     A.U. after   15 cycles
 SCF Done:  E(UM062X) =  -80.4172425991     A.U. after   15 cycles
 SCF Done:  E(UM062X) =  -80.4300434950     A.U. after   16 cycles
 SCF Done:  E(UM062X) =  -80.4304043067     A.U. after   13 cycles
 SCF Done:  E(UM062X) =  -80.4414313227     A.U. after   18 cycles
 SCF Done:  E(UM062X) =  -80.4434616301     A.U. after   16 cycles
 SCF Done:  E(UM062X) =  -80.4404659603     A.U. after   18 cycles
 SCF Done:  E(UM062X) =  -80.4432581569     A.U. after   16 cycles
 SCF Done:  E(UM062X) =  -80.4459333523     A.U. after   15 cycles
 SCF Done:  E(UM062X) =  -80.4458905976     A.U. after   15 cycles
 SCF Done:  E(UM062X) =  -80.4464897092     A.U. after   16 cycles
 SCF Done:  E(UM062X) =  -80.4465575823     A.U. after   13 cycles
 SCF Done:  E(UM062X) =  -80.4465589259     A.U. after   13 cycles
 Optimization completed.
    -- Stationary point found.

                          Input orientation:
 ---------------------------------------------------------------------
 Center     Atomic      Atomic             Coordinates (Angstroms)
 Number     Number       Type             X           Y           Z
 ---------------------------------------------------------------------
      1          5           0       -1.368521   -0.005772    0.000000
      2          7           0        1.365880    0.003405    0.000000
      3          1           0       -2.534227   -0.301705   -0.161942
      4          1           0        1.289745    0.906738    0.500889
 ---------------------------------------------------------------------

 Alpha  occ. eigenvalues --  -14.77909  -7.18303  -0.84686  -0.59230  -0.41558
 Alpha  occ. eigenvalues --   -0.32527  -0.28768
 Alpha virt. eigenvalues --   -0.08508  -0.07344  -0.05954   0.00982   0.04143
 Alpha virt. eigenvalues --    0.05181   0.05278   0.12137   0.15820   0.17459
 Alpha virt. eigenvalues --    0.18570   0.21140   0.25794   0.35449   0.39222

  Beta  occ. eigenvalues --  -14.77909  -7.18303  -0.84686  -0.59230  -0.41558
  Beta  occ. eigenvalues --   -0.32527  -0.28768
  Beta virt. eigenvalues --   -0.08508  -0.07344  -0.05954   0.00982   0.04143
  Beta virt. eigenvalues --    0.05181   0.05278   0.12137   0.15820   0.17459
  Beta virt. eigenvalues --    0.18570   0.21140   0.25794   0.35449   0.39222

 Mulliken charges and spin densities:
               1          2
     1  B    0.073535  -0.000000
     2  N   -0.290005   0.000000
     3  H    0.038349  -0.000000
     4  H    0.178120   0.000000
 Sum of Mulliken charges =  -0.00000  -0.00000

 Dipole moment (field-independent basis, Debye):
    X=             -3.8824    Y=              0.9287    Z=              0.5219  Tot=              4.0259
 Quadrupole moment (field-independent basis, Debye-Ang):
   XX=            -10.0011   YY=            -13.1477   ZZ=            -14.5593
   XY=              2.1335   XZ=              1.1704   YZ=              1.1232

 Normal termination of Gaussian 16 at Mon Apr 21 18:06:23 2025.
