 Gaussian 16, Revision A.03,
 Gaussian 16:  ES64L-G16RevA.03 25-Dec-2016

 --------------------------------------------
 #p opt UM062X/6-311+G** nosymm int=superfine
 --------------------------------------------

 -------------------
 Title Card Required
 -------------------
 Symbolic Z-matrix:
 Charge =  0 Multiplicity = 1

 SCF Done:  E(UM062X) =  -382.397726281     A.U. after   11 cycles
 SCF Done:  E(UM062X) =  -382.399802057     A.U. after   10 cycles
 SCF Done:  E(UM062X) =  -382.400055980     A.U. after    9 cycles
 SCF Done:  E(UM062X) =  -382.400061432     A.U. after    8 cycles
 SCF Done:  E(UM062X) =  -382.400061872     A.U. after    7 cycles
 Optimization completed.
    -- Stationary point found.

                          Input orientation:
 ---------------------------------------------------------------------
 Center     Atomic      Atomic             Coordinates (Angstroms)
 Number     Number       Type             X           Y           Z
 ---------------------------------------------------------------------
      1          6           0       -1.106264    0.000000    0.000000
      2         15           0        1.106264    0.000000    0.000000
      3          1           0        1.186484   -1.414675    0.017628
      4          1           0       -1.397774    1.022352    0.219906
      5          1           0        1.186552    0.092712    1.411731
      6          1           0       -1.397765   -0.298964   -1.002089
      7          1           0       -1.435482   -0.701927    0.758964
 ---------------------------------------------------------------------

 Alpha  occ. eigenvalues --  -78.02425 -10.55318  -6.84826  -4.96372  -4.96355
 Alpha  occ. eigenvalues --   -4.96126  -0.78681  -0.68499  -0.48349  -0.48000
 Alpha  occ. eigenvalues --   -0.42916  -0.36836  -0.31061
 Alpha virt. eigenvalues --   -0.00035   0.01570   0.03970   0.04505   0.06469
 Alpha virt. eigenvalues --    0.06497   0.06819   0.07946   0.08082   0.13521
 Alpha virt. eigenvalues --    0.17968   0.18789   0.18924   0.27198   0.30255

  Beta  occ. eigenvalues --  -78.02425 -10.55318  -6.84826  -4.96372  -4.96355
  Beta  occ. eigenvalues --   -4.96126  -0.78681  -0.68499  -0.48349  -0.48000
  Beta  occ. eigenvalues --   -0.42916  -0.36836  -0.31061
  Beta virt. eigenvalues --   -0.00035   0.01570   0.03970   0.04505   0.06469
  Beta virt. eigenvalues --    0.06497   0.06819   0.07946   0.08082   0.13521
  Beta virt. eigenvalues --    0.17968   0.18789   0.18924   0.27198   0.30255

 Mulliken charges and spin densities:
               1          2
     1  C   -0.570128   0.000000
     2  P    0.008299  -0.000000
     3  H    0.012224  -0.000000
     4  H    0.178869  -0.000000
     5  H    0.012225  -0.000000
     6  H    0.178871  -0.000000
     7  H    0.179640  -0.000000
 Sum of Mulliken charges =  -0.00000  -0.00000

 Dipole moment (field-independent basis, Debye):
    X=             -0.6750    Y=             -0.4962    Z=              0.5365  Tot=              0.9948
 Quadrupole moment (field-independent basis, Debye-Ang):
   XX=            -23.1998   YY=            -22.0247   ZZ=            -22.1411
   XY=             -1.1030   XZ=              1.1928   YZ=              0.7437

 Normal termination of Gaussian 16 at Mon Apr 21 19:03:40 2025.
