 Gaussian 16, Revision A.03,
 Gaussian 16:  ES64L-G16RevA.03 25-Dec-2016

 --------------------------------------------
 #p opt UM062X/6-311+G** nosymm int=superfine
 --------------------------------------------

 -------------------
 Title Card Required
 -------------------
 Symbolic Z-matrix:
 Charge =  0 Multiplicity = 1

 SCF Done:  E(UM062X) =  -114.084223676     A.U. after   18 cycles
 SCF Done:  E(UM062X) =  -114.087056782     A.U. after   10 cycles
 SCF Done:  E(UM062X) =  -114.087938881     A.U. after    9 cycles
 SCF Done:  E(UM062X) =  -114.087942505     A.U. after    9 cycles
 Optimization completed.
    -- Stationary point found.

                          Input orientation:
 ---------------------------------------------------------------------
 Center     Atomic      Atomic             Coordinates (Angstroms)
 Number     Number       Type             X           Y           Z
 ---------------------------------------------------------------------
      1          6           0       -1.923311    0.000000    0.000000
      2          8           0        1.923311    0.000000    0.000000
      3          1           0       -2.612332   -0.866533    0.000001
      4          1           0       -2.612337    0.866529    0.000002
 ---------------------------------------------------------------------

 Alpha  occ. eigenvalues --  -19.75173 -10.62154  -1.04892  -0.76763  -0.48898
 Alpha  occ. eigenvalues --   -0.43793  -0.43790  -0.32507
 Alpha virt. eigenvalues --   -0.17814  -0.09244   0.01826   0.06081   0.07995
 Alpha virt. eigenvalues --    0.08343   0.15932   0.16178   0.18764   0.19149
 Alpha virt. eigenvalues --    0.21084   0.24848   0.43860   0.47736   0.57988

  Beta  occ. eigenvalues --  -19.75173 -10.62154  -1.04892  -0.76763  -0.48898
  Beta  occ. eigenvalues --   -0.43793  -0.43790  -0.32507
  Beta virt. eigenvalues --   -0.17814  -0.09244   0.01826   0.06081   0.07995
  Beta virt. eigenvalues --    0.08343   0.15932   0.16178   0.18764   0.19149
  Beta virt. eigenvalues --    0.21084   0.24848   0.43860   0.47736   0.57988

 Mulliken charges and spin densities:
               1          2
     1  C   -0.266107  -0.000000
     2  O   -0.010528   0.000000
     3  H    0.138317   0.000000
     4  H    0.138317   0.000000
 Sum of Mulliken charges =  -0.00000   0.00000

 Dipole moment (field-independent basis, Debye):
    X=             -2.5135    Y=             -0.0000    Z=              0.0000  Tot=              2.5135
 Quadrupole moment (field-independent basis, Debye-Ang):
   XX=             -4.7766   YY=            -13.1617   ZZ=            -12.4860
   XY=              0.0000   XZ=             -0.0000   YZ=             -0.0000

 Normal termination of Gaussian 16 at Mon Apr 21 19:01:59 2025.
