 Gaussian 16, Revision A.03,
 Gaussian 16:  ES64L-G16RevA.03 25-Dec-2016

 --------------------------------------------
 #p opt UM062X/6-311+G** nosymm int=superfine
 --------------------------------------------

 -------------------
 Title Card Required
 -------------------
 Symbolic Z-matrix:
 Charge =  0 Multiplicity = 1

 SCF Done:  E(UM062X) =  -80.4084820917     A.U. after   16 cycles
 SCF Done:  E(UM062X) =  -80.4118681985     A.U. after    9 cycles
 SCF Done:  E(UM062X) =  -80.4119178233     A.U. after    9 cycles
 Optimization completed.
    -- Stationary point found.

                          Input orientation:
 ---------------------------------------------------------------------
 Center     Atomic      Atomic             Coordinates (Angstroms)
 Number     Number       Type             X           Y           Z
 ---------------------------------------------------------------------
      1          5           0       -1.867066    0.000000    0.000000
      2          7           0        1.867066    0.000000    0.000000
      3          1           0       -3.100589   -0.000497   -0.000000
      4          1           0        2.906727    0.000688    0.000000
 ---------------------------------------------------------------------

 Alpha  occ. eigenvalues --  -14.82477  -7.11941  -0.88940  -0.54150  -0.45455
 Alpha  occ. eigenvalues --   -0.33121  -0.27109
 Alpha virt. eigenvalues --   -0.12009  -0.03920  -0.03869   0.02616   0.03921
 Alpha virt. eigenvalues --    0.06665   0.06778   0.09600   0.13968   0.14999
 Alpha virt. eigenvalues --    0.17449   0.19714   0.25590   0.38910   0.42487

  Beta  occ. eigenvalues --  -14.82477  -7.11941  -0.88940  -0.54150  -0.45455
  Beta  occ. eigenvalues --   -0.33121  -0.27109
  Beta virt. eigenvalues --   -0.12009  -0.03920  -0.03869   0.02616   0.03921
  Beta virt. eigenvalues --    0.06665   0.06778   0.09600   0.13968   0.14999
  Beta virt. eigenvalues --    0.17449   0.19714   0.25590   0.38910   0.42487

 Mulliken charges and spin densities:
               1          2
     1  B   -0.015496  -0.000000
     2  N   -0.191757   0.000000
     3  H   -0.008030  -0.000000
     4  H    0.215283  -0.000000
 Sum of Mulliken charges =  -0.00000   0.00000

 Dipole moment (field-independent basis, Debye):
    X=              0.2123    Y=              0.0003    Z=             -0.0000  Tot=              0.2123
 Quadrupole moment (field-independent basis, Debye-Ang):
   XX=             -3.9995   YY=            -11.8721   ZZ=            -15.1567
   XY=              0.0019   XZ=             -0.0000   YZ=              0.0000

 Normal termination of Gaussian 16 at Mon Apr 21 18:08:44 2025.
