 Gaussian 16, Revision A.03,
 Gaussian 16:  ES64L-G16RevA.03 25-Dec-2016

 ---------------------------------------------------
 #p UM062X/6-311+G** force int=superfine pop=saveNBO
 ---------------------------------------------------

 -------------------
 Title Card Required
 -------------------
 Symbolic Z-matrix:
 Charge =  0 Multiplicity = 1

                         Standard orientation:
 ---------------------------------------------------------------------
 Center     Atomic      Atomic             Coordinates (Angstroms)
 Number     Number       Type             X           Y           Z
 ---------------------------------------------------------------------
      1          8           0        0.000000    0.000000   -2.993424
      2         16           0        0.000000    0.000000    1.496712
 ---------------------------------------------------------------------

 SCF Done:  E(UM062X) =  -473.003024506     A.U. after   17 cycles

 Unable to determine electronic state:  partially filled degenerate orbitals.
 Alpha  occ. eigenvalues --  -89.96649 -19.77305  -8.32711  -6.25511  -6.23911
 Alpha  occ. eigenvalues --   -6.23903  -1.06988  -0.76822  -0.45875  -0.45866
 Alpha  occ. eigenvalues --   -0.34079  -0.34019
 Alpha virt. eigenvalues --   -0.19886  -0.19255   0.03553   0.04808   0.05568
 Alpha virt. eigenvalues --    0.05696   0.14013   0.17394   0.17516   0.20889
 Alpha virt. eigenvalues --    0.33949   0.35141   0.35718   0.59360   0.77819

  Beta  occ. eigenvalues --  -89.96649 -19.77305  -8.32711  -6.25511  -6.23911
  Beta  occ. eigenvalues --   -6.23903  -1.06988  -0.76822  -0.45875  -0.45866
  Beta  occ. eigenvalues --   -0.34079  -0.34019
  Beta virt. eigenvalues --   -0.19886  -0.19255   0.03553   0.04808   0.05568
  Beta virt. eigenvalues --    0.05696   0.14013   0.17394   0.17516   0.20889
  Beta virt. eigenvalues --    0.33949   0.35141   0.35718   0.59360   0.77819

 Mulliken charges and spin densities:
               1          2
     1  O   -0.003032   0.000000
     2  S    0.003032   0.000000
 Sum of Mulliken charges =  -0.00000   0.00000

 Dipole moment (field-independent basis, Debye):
    X=              0.0000    Y=              0.0000    Z=              0.1210  Tot=              0.1210
 Quadrupole moment (field-independent basis, Debye-Ang):
   XX=            -21.1610   YY=            -15.6836   ZZ=            -18.9565
   XY=              0.0000   XZ=              0.0000   YZ=              0.0000

 Summary of Natural Population Analysis:

                                       Natural Population
                Natural  -----------------------------------------------
    Atom  No    Charge         Core      Valence    Rydberg      Total
 -----------------------------------------------------------------------
      O    1   -0.00170      1.00000     3.00156    0.00014     4.00170
      S    2    0.00170      4.99999     2.99788    0.00043     7.99830
 =======================================================================
   * Total *   -0.00000      5.99999     5.99944    0.00057    12.00000

 Normal termination of Gaussian 16 at Mon Apr 21 20:00:41 2025.
