 Gaussian 16, Revision A.03,
 Gaussian 16:  ES64L-G16RevA.03 25-Dec-2016

 --------------------------------------------
 #p opt UM062X/6-311+G** nosymm int=superfine
 --------------------------------------------

 -------------------
 Title Card Required
 -------------------
 Symbolic Z-matrix:
 Charge =  1 Multiplicity = 2

 SCF Done:  E(UM062X) =  -582.146474422     A.U. after   11 cycles
 SCF Done:  E(UM062X) =  -582.147069227     A.U. after    9 cycles
 SCF Done:  E(UM062X) =  -582.147172980     A.U. after    8 cycles
 Optimization completed.
    -- Stationary point found.

                          Input orientation:
 ---------------------------------------------------------------------
 Center     Atomic      Atomic             Coordinates (Angstroms)
 Number     Number       Type             X           Y           Z
 ---------------------------------------------------------------------
      1         14           0       -2.051292    0.000000    0.000000
      2         14           0        2.051292    0.000000    0.000000
      3          1           0        2.183167   -1.458824   -0.000004
      4          1           0       -2.182709   -0.729294    1.263482
      5          1           0        2.183229    0.729444   -1.263340
      6          1           0        2.182517    0.729384    1.263451
      7          1           0       -2.183193    1.458822   -0.000118
      8          1           0       -2.183010   -0.729539   -1.263309
 ---------------------------------------------------------------------

 Alpha  occ. eigenvalues --  -67.23010 -67.23009  -5.77836  -5.77834  -4.09514
 Alpha  occ. eigenvalues --   -4.09514  -4.08707  -4.08707  -4.08707  -4.08707
 Alpha  occ. eigenvalues --   -0.81712  -0.81010  -0.61933  -0.61932  -0.61715
 Alpha  occ. eigenvalues --   -0.61714  -0.42731
 Alpha virt. eigenvalues --   -0.28908  -0.12915  -0.11984  -0.10241  -0.10241
 Alpha virt. eigenvalues --   -0.09932  -0.08968  -0.08968  -0.07809  -0.07721
 Alpha virt. eigenvalues --   -0.07721  -0.06298  -0.06296  -0.04489   0.00798

  Beta  occ. eigenvalues --  -67.22748 -67.22748  -5.77759  -5.77756  -4.08899
  Beta  occ. eigenvalues --   -4.08899  -4.08617  -4.08617  -4.08617  -4.08617
  Beta  occ. eigenvalues --   -0.79878  -0.79466  -0.61774  -0.61773  -0.61552
  Beta  occ. eigenvalues --   -0.61552
  Beta virt. eigenvalues --   -0.30838  -0.22611  -0.14455  -0.12697  -0.12695
  Beta virt. eigenvalues --   -0.11002  -0.10683  -0.09416  -0.09415  -0.07288
  Beta virt. eigenvalues --   -0.07288  -0.07080  -0.05975  -0.05974  -0.05129

 Mulliken charges and spin densities:
               1          2
     1  Si   0.496908   0.549261
     2  Si   0.496908   0.549261
     3  H    0.001040  -0.016417
     4  H    0.001023  -0.016422
     5  H    0.001034  -0.016424
     6  H    0.001019  -0.016421
     7  H    0.001040  -0.016417
     8  H    0.001029  -0.016422
 Sum of Mulliken charges =   1.00000   1.00000

 Dipole moment (field-independent basis, Debye):
    X=              0.0000    Y=             -0.0000    Z=              0.0000  Tot=              0.0000
 Quadrupole moment (field-independent basis, Debye-Ang):
   XX=             -0.2363   YY=            -26.1524   ZZ=            -26.1525
   XY=              0.0002   XZ=              0.0001   YZ=             -0.0000

 Normal termination of Gaussian 16 at Mon Apr 21 20:15:59 2025.
