 Gaussian 16, Revision A.03,
 Gaussian 16:  ES64L-G16RevA.03 25-Dec-2016

 --------------------------------------------
 #p opt UM062X/6-311+G** nosymm int=superfine
 --------------------------------------------

 -------------------
 Title Card Required
 -------------------
 Symbolic Z-matrix:
 Charge =  0 Multiplicity = 1

 SCF Done:  E(UM062X) =  -79.5821271987     A.U. after   10 cycles
 SCF Done:  E(UM062X) =  -79.5854442068     A.U. after    9 cycles
 SCF Done:  E(UM062X) =  -79.5866938544     A.U. after    9 cycles
 SCF Done:  E(UM062X) =  -79.5866997190     A.U. after    8 cycles
 Optimization completed.
    -- Stationary point found.

                          Input orientation:
 ---------------------------------------------------------------------
 Center     Atomic      Atomic             Coordinates (Angstroms)
 Number     Number       Type             X           Y           Z
 ---------------------------------------------------------------------
      1          6           0       -1.821675    0.000000    0.000000
      2          6           0        1.821800    0.000000    0.000000
      3          1           0        1.896087   -0.932582    0.539636
      4          1           0       -1.895949   -0.933635   -0.537815
      5          1           0        1.896077    0.933635    0.537814
      6          1           0        1.896072   -0.001051   -1.077460
      7          1           0       -1.895962    0.932582   -0.539636
      8          1           0       -1.895951    0.001050    1.077460
 ---------------------------------------------------------------------

 Alpha  occ. eigenvalues --  -10.57188 -10.57187  -0.77048  -0.76568  -0.49123
 Alpha  occ. eigenvalues --   -0.49123  -0.48904  -0.48904  -0.22367
 Alpha virt. eigenvalues --   -0.10433   0.03091   0.05157   0.05325   0.05325
 Alpha virt. eigenvalues --    0.07533   0.07533   0.11423   0.12506   0.18567
 Alpha virt. eigenvalues --    0.18567   0.20496   0.20496   0.22913   0.24993

  Beta  occ. eigenvalues --  -10.57188 -10.57187  -0.77048  -0.76568  -0.49123
  Beta  occ. eigenvalues --   -0.49123  -0.48904  -0.48904  -0.22367
  Beta virt. eigenvalues --   -0.10433   0.03091   0.05157   0.05325   0.05325
  Beta virt. eigenvalues --    0.07533   0.07533   0.11423   0.12506   0.18567
  Beta virt. eigenvalues --    0.18567   0.20496   0.20496   0.22913   0.24993

 Mulliken charges and spin densities:
               1          2
     1  C   -0.526266  -0.000000
     2  C   -0.526266   0.000000
     3  H    0.175422  -0.000000
     4  H    0.175422   0.000000
     5  H    0.175422  -0.000000
     6  H    0.175422  -0.000000
     7  H    0.175422   0.000000
     8  H    0.175422   0.000000
 Sum of Mulliken charges =  -0.00000   0.00000

 Dipole moment (field-independent basis, Debye):
    X=              0.0000    Y=             -0.0000    Z=             -0.0000  Tot=              0.0000
 Quadrupole moment (field-independent basis, Debye-Ang):
   XX=            -15.5259   YY=            -14.8499   ZZ=            -14.8499
   XY=             -0.0000   XZ=              0.0000   YZ=              0.0000

 Normal termination of Gaussian 16 at Tue Dec  3 10:05:25 2024.
