 Gaussian 16, Revision A.03,
 Gaussian 16:  ES64L-G16RevA.03 25-Dec-2016

 --------------------------------------------
 #p opt UM062X/6-311+G** nosymm int=superfine
 --------------------------------------------

 -------------------
 Title Card Required
 -------------------
 Symbolic Z-matrix:
 Charge =  0 Multiplicity = 3

 SCF Done:  E(UM062X) =  -50.6030998470     A.U. after   10 cycles
 SCF Done:  E(UM062X) =  -50.6031182850     A.U. after    7 cycles
 Optimization completed.
    -- Stationary point found.

                          Input orientation:
 ---------------------------------------------------------------------
 Center     Atomic      Atomic             Coordinates (Angstroms)
 Number     Number       Type             X           Y           Z
 ---------------------------------------------------------------------
      1          5           0       -1.128410    0.000000    0.000000
      2          5           0        1.128410    0.000000    0.000000
      3          1           0       -2.305401   -0.000081    0.000000
      4          1           0        2.305401    0.000081   -0.000000
 ---------------------------------------------------------------------

 Alpha  occ. eigenvalues --   -7.14481  -7.14464  -0.58440  -0.55592  -0.39434
 Alpha  occ. eigenvalues --   -0.23022  -0.23022
 Alpha virt. eigenvalues --   -0.05335  -0.05335  -0.02785   0.02522   0.02791
 Alpha virt. eigenvalues --    0.06381   0.06381   0.07544   0.07706   0.07706
 Alpha virt. eigenvalues --    0.13475   0.21616   0.24957   0.38023   0.39027

  Beta  occ. eigenvalues --   -7.14216  -7.14208  -0.54854  -0.53634  -0.37261
  Beta virt. eigenvalues --   -0.06379  -0.06379  -0.00455  -0.00455   0.00695
  Beta virt. eigenvalues --    0.02294   0.03364   0.05445   0.08675   0.08675
  Beta virt. eigenvalues --    0.11507   0.11507   0.12268   0.22644   0.27168

 Mulliken charges and spin densities:
               1          2
     1  B   -0.112810   1.037550
     2  B   -0.112810   1.037550
     3  H    0.112810  -0.037550
     4  H    0.112810  -0.037550
 Sum of Mulliken charges =  -0.00000   2.00000

 Dipole moment (field-independent basis, Debye):
    X=             -0.0000    Y=              0.0000    Z=             -0.0000  Tot=              0.0000
 Quadrupole moment (field-independent basis, Debye-Ang):
   XX=            -10.5820   YY=            -16.2553   ZZ=            -16.2553
   XY=              0.0002   XZ=             -0.0000   YZ=             -0.0000

 1\1\GINC-NODE06\FOpt\UM062X\6-311+G(d,p)\B2H2(3)\SZHAO\21-Apr-2025\0\\
 #p opt UM062X/6-311+G** nosymm int=superfine\\Title Card Required\\0,3
 \B,-1.12841047,0.,0.\B,1.12841047,0.,0.\H,-2.3054013381,-0.0000805268,
 0.0000000005\H,2.3054013381,0.0000805268,-0.0000000005\\Version=ES64L-
 G16RevA.03\HF=-50.6031183\S2=2.009095\S2-1=0.\S2A=2.000025\RMSD=7.423e
 -09\RMSF=2.053e-05\Dipole=0.,0.,0.\Quadrupole=2.8119901,-1.405995,-1.4
 059951,0.0001837,0.,0.\PG=C*V [C*(H1B1B1H1)]\\@

 Normal termination of Gaussian 16 at Mon Apr 21 17:27:53 2025.
