 Gaussian 16, Revision A.03,
 Gaussian 16:  ES64L-G16RevA.03 25-Dec-2016

 --------------------------------------------
 #p opt UM062X/6-311+G** nosymm int=superfine
 --------------------------------------------

 -------------------
 Title Card Required
 -------------------
 Symbolic Z-matrix:
 Charge =  0 Multiplicity = 3

 SCF Done:  E(UM062X) =  -55.2116179583     A.U. after   13 cycles
 SCF Done:  E(UM062X) =  -55.2130802530     A.U. after   11 cycles
 SCF Done:  E(UM062X) =  -55.2130911393     A.U. after    8 cycles
 Optimization completed.
    -- Stationary point found.

                          Input orientation:
 ---------------------------------------------------------------------
 Center     Atomic      Atomic             Coordinates (Angstroms)
 Number     Number       Type             X           Y           Z
 ---------------------------------------------------------------------
      1          7           0        0.595024   -0.000002    0.000000
      2          1           0        1.633261    0.000088    0.000000
 ---------------------------------------------------------------------

 Alpha  occ. eigenvalues --  -14.81740  -0.95184  -0.48466  -0.41361  -0.41361
 Alpha virt. eigenvalues --    0.06519   0.12808   0.12808   0.12953   0.17878
 Alpha virt. eigenvalues --    0.54595   0.75616   0.78217   0.78217   0.94660
 Alpha virt. eigenvalues --    1.29010   1.29010   1.90471   1.95083   1.95083

  Beta  occ. eigenvalues --  -14.79240  -0.82397  -0.42463
  Beta virt. eigenvalues --   -0.06414  -0.06414   0.04545   0.12502   0.14969
  Beta virt. eigenvalues --    0.14969   0.19518   0.56046   0.78332   0.82512
  Beta virt. eigenvalues --    0.82512   0.98383   1.34720   1.34720   1.94577

 Mulliken charges and spin densities:
               1          2
     1  N   -0.195436   2.062846
     2  H    0.195436  -0.062846
 Sum of Mulliken charges =  -0.00000   2.00000

 Dipole moment (field-independent basis, Debye):
    X=              1.7107    Y=              0.0001    Z=             -0.0000  Tot=              1.7107
 Quadrupole moment (field-independent basis, Debye-Ang):
   XX=             -3.5636   YY=             -6.4071   ZZ=             -6.4071
   XY=              0.0002   XZ=             -0.0000   YZ=              0.0000

 1\1\GINC-NODE02\FOpt\UM062X\6-311+G(d,p)\H1N1(3)\SZHAO\16-Apr-2025\0\\
 #p opt UM062X/6-311+G** nosymm int=superfine\\Title Card Required\\0,3
 \N,0.5950235303,-0.0000019086,0.\H,1.6332612597,0.0000879886,0.\\Versi
 on=ES64L-G16RevA.03\HF=-55.2130911\S2=2.007136\S2-1=0.\S2A=2.000018\RM
 SD=7.227e-09\RMSF=7.984e-06\Dipole=0.6730402,0.0000583,0.\Quadrupole=1
 .409405,-0.7047025,-0.7047025,0.0001151,0.,0.\PG=C*V [C*(H1N1)]\\@

 Normal termination of Gaussian 16 at Wed Apr 16 07:42:27 2025.
