 Gaussian 16, Revision A.03,
 Gaussian 16:  ES64L-G16RevA.03 25-Dec-2016

 --------------------------------------------
 #p opt UM062X/6-311+G** nosymm int=superfine
 --------------------------------------------

 -------------------
 Title Card Required
 -------------------
 Symbolic Z-matrix:
 Charge =  0 Multiplicity = 1

 SCF Done:  E(UM062X) =  -438.491336774     A.U. after   13 cycles
 SCF Done:  E(UM062X) =  -438.504814007     A.U. after   11 cycles
 SCF Done:  E(UM062X) =  -438.511418130     A.U. after   11 cycles
 SCF Done:  E(UM062X) =  -438.511489720     A.U. after   11 cycles
 SCF Done:  E(UM062X) =  -438.511511980     A.U. after   10 cycles
 SCF Done:  E(UM062X) =  -438.511537731     A.U. after   11 cycles
 SCF Done:  E(UM062X) =  -438.511541228     A.U. after   11 cycles
 SCF Done:  E(UM062X) =  -438.511541843     A.U. after   11 cycles
 SCF Done:  E(UM062X) =  -438.511542224     A.U. after    8 cycles
 SCF Done:  E(UM062X) =  -438.511542656     A.U. after   12 cycles
 SCF Done:  E(UM062X) =  -438.511542830     A.U. after   11 cycles
 Optimization completed.
    -- Stationary point found.

                          Input orientation:
 ---------------------------------------------------------------------
 Center     Atomic      Atomic             Coordinates (Angstroms)
 Number     Number       Type             X           Y           Z
 ---------------------------------------------------------------------
      1          6           0       -1.860220    0.000000    0.000000
      2         16           0        1.860220    0.000000    0.000000
      3          1           0        1.816879   -1.343856   -0.002568
      4          1           0       -1.860702    1.080974    0.002278
      5          1           0       -1.905224   -0.536027   -0.937748
      6          1           0       -1.905403   -0.539980    0.935468
 ---------------------------------------------------------------------

 Alpha  occ. eigenvalues --  -89.87824 -10.64936  -8.24110  -6.16157  -6.16089
 Alpha  occ. eigenvalues --   -6.15541  -0.83197  -0.75596  -0.55230  -0.55154
 Alpha  occ. eigenvalues --   -0.42133  -0.28071  -0.27289
 Alpha virt. eigenvalues --   -0.15583   0.01106   0.03800   0.04259   0.05609
 Alpha virt. eigenvalues --    0.07538   0.08420   0.08463   0.10815   0.13545
 Alpha virt. eigenvalues --    0.15726   0.16010   0.21019   0.34063   0.35404

  Beta  occ. eigenvalues --  -89.87824 -10.64936  -8.24110  -6.16157  -6.16089
  Beta  occ. eigenvalues --   -6.15541  -0.83197  -0.75596  -0.55230  -0.55154
  Beta  occ. eigenvalues --   -0.42133  -0.28071  -0.27289
  Beta virt. eigenvalues --   -0.15583   0.01106   0.03800   0.04259   0.05609
  Beta virt. eigenvalues --    0.07538   0.08420   0.08463   0.10815   0.13545
  Beta virt. eigenvalues --    0.15726   0.16010   0.21019   0.34063   0.35404

 Mulliken charges and spin densities:
               1          2
     1  C   -0.392615   0.000000
     2  S   -0.284960  -0.000000
     3  H    0.051381   0.000000
     4  H    0.210551  -0.000000
     5  H    0.207825  -0.000000
     6  H    0.207818  -0.000000
 Sum of Mulliken charges =  -0.00000  -0.00000

 Dipole moment (field-independent basis, Debye):
    X=             -4.7920    Y=             -0.9517    Z=             -0.0019  Tot=              4.8856
 Quadrupole moment (field-independent basis, Debye-Ang):
   XX=            -20.7572   YY=            -19.6033   ZZ=            -23.6577
   XY=             -1.8461   XZ=             -0.0037   YZ=              0.0078

 Normal termination of Gaussian 16 at Mon Apr 21 19:38:40 2025.
