 Gaussian 16, Revision A.03,
 Gaussian 16:  ES64L-G16RevA.03 25-Dec-2016

 --------------------------------------------
 #p opt UM062X/6-311+G** nosymm int=superfine
 --------------------------------------------

 -------------------
 Title Card Required
 -------------------
 Symbolic Z-matrix:
 Charge =  0 Multiplicity = 1

 SCF Done:  E(UM062X) =  -437.202922451     A.U. after   18 cycles
 SCF Done:  E(UM062X) =  -437.203142099     A.U. after   12 cycles
 SCF Done:  E(UM062X) =  -437.203231943     A.U. after   14 cycles
 SCF Done:  E(UM062X) =  -437.203223099     A.U. after   13 cycles
 SCF Done:  E(UM062X) =  -437.203232350     A.U. after   13 cycles
 Optimization completed.
    -- Stationary point found.

                          Input orientation:
 ---------------------------------------------------------------------
 Center     Atomic      Atomic             Coordinates (Angstroms)
 Number     Number       Type             X           Y           Z
 ---------------------------------------------------------------------
      1          6           0       -1.427140    0.000000    0.000000
      2         16           0        1.427140    0.000000    0.000000
      3          1           0       -2.038801   -0.908843    0.000109
      4          1           0       -2.039471    0.908393   -0.000046
 ---------------------------------------------------------------------

 Alpha  occ. eigenvalues --  -89.90982 -10.68748  -8.26905  -6.19510  -6.18260
 Alpha  occ. eigenvalues --   -6.18182  -0.81217  -0.71435  -0.55182  -0.37302
 Alpha  occ. eigenvalues --   -0.28783  -0.28732
 Alpha virt. eigenvalues --   -0.13448  -0.11888   0.00558   0.05033   0.05951
 Alpha virt. eigenvalues --    0.06550   0.08631   0.08993   0.09053   0.14141
 Alpha virt. eigenvalues --    0.16526   0.16842   0.36084   0.36868   0.37557

  Beta  occ. eigenvalues --  -89.90982 -10.68748  -8.26905  -6.19510  -6.18260
  Beta  occ. eigenvalues --   -6.18182  -0.81217  -0.71435  -0.55182  -0.37302
  Beta  occ. eigenvalues --   -0.28783  -0.28732
  Beta virt. eigenvalues --   -0.13448  -0.11888   0.00558   0.05033   0.05951
  Beta virt. eigenvalues --    0.06550   0.08631   0.08993   0.09053   0.14141
  Beta virt. eigenvalues --    0.16526   0.16842   0.36084   0.36868   0.37557

 Mulliken charges and spin densities:
               1          2
     1  C   -0.239345   0.000000
     2  S   -0.133066  -0.000000
     3  H    0.186202  -0.000000
     4  H    0.186208   0.000000
 Sum of Mulliken charges =  -0.00000  -0.00000

 Dipole moment (field-independent basis, Debye):
    X=             -4.4327    Y=             -0.0006    Z=              0.0001  Tot=              4.4327
 Quadrupole moment (field-independent basis, Debye-Ang):
   XX=            -13.2569   YY=            -22.0864   ZZ=            -22.1905
   XY=             -0.0003   XZ=              0.0001   YZ=             -0.0000

 Normal termination of Gaussian 16 at Mon Apr 21 19:44:15 2025.
