 Gaussian 16, Revision A.03,
 Gaussian 16:  ES64L-G16RevA.03 25-Dec-2016

 ---------------------------------------
 #p UM062X/6-311+G** force int=superfine
 ---------------------------------------

 -------------------
 Title Card Required
 -------------------
 Symbolic Z-matrix:
 Charge =  1 Multiplicity = 2

                         Standard orientation:
 ---------------------------------------------------------------------
 Center     Atomic      Atomic             Coordinates (Angstroms)
 Number     Number       Type             X           Y           Z
 ---------------------------------------------------------------------
      1          6           0        0.884537   -0.000006   -0.000142
      2          6           0       -0.884537    0.000007    0.000141
      3          1           0       -1.066714   -0.037661   -1.071942
      4          1           0        1.065099   -0.947499   -0.503850
      5          1           0       -1.065134    0.947520    0.503802
      6          1           0       -1.065105   -0.909836    0.569043
      7          1           0        1.066718    0.037605    1.071944
      8          1           0        1.065136    0.909861   -0.568995
 ---------------------------------------------------------------------

 SCF Done:  E(UM062X) =  -79.3645057320     A.U. after   12 cycles

 The electronic state is 2-A.
 Alpha  occ. eigenvalues --  -10.86181 -10.86162  -1.14615  -1.00385  -0.80752
 Alpha  occ. eigenvalues --   -0.80744  -0.72627  -0.72625  -0.67878
 Alpha virt. eigenvalues --   -0.16975  -0.16511  -0.11620  -0.11619  -0.09194
 Alpha virt. eigenvalues --   -0.07800  -0.06737  -0.06730  -0.05867  -0.05865
 Alpha virt. eigenvalues --   -0.01047   0.01182   0.01191   0.03619   0.07717

  Beta  occ. eigenvalues --  -10.85940 -10.85939  -1.11122  -0.96803  -0.79546
  Beta  occ. eigenvalues --   -0.79540  -0.71613  -0.71611
  Beta virt. eigenvalues --   -0.44102  -0.16374  -0.14127  -0.11389  -0.11388
  Beta virt. eigenvalues --   -0.08129  -0.06798  -0.06795  -0.05484  -0.05478
  Beta virt. eigenvalues --   -0.05420   0.00422   0.01940   0.01949   0.04227

 Mulliken charges and spin densities:
               1          2
     1  C   -0.328832   0.521438
     2  C   -0.328832   0.521438
     3  H    0.276253  -0.007331
     4  H    0.276289  -0.007053
     5  H    0.276290  -0.007054
     6  H    0.276289  -0.007053
     7  H    0.276253  -0.007331
     8  H    0.276290  -0.007054
 Sum of Mulliken charges =   1.00000   1.00000

 Dipole moment (field-independent basis, Debye):
    X=             -0.0000    Y=             -0.0000    Z=              0.0000  Tot=              0.0000
 Quadrupole moment (field-independent basis, Debye-Ang):
   XX=             -7.4326   YY=            -10.6354   ZZ=            -10.6379
   XY=             -0.0000   XZ=             -0.0013   YZ=             -0.0000

 Normal termination of Gaussian 16 at Tue Nov 19 08:44:20 2024.
