 Gaussian 16, Revision A.03,
 Gaussian 16:  ES64L-G16RevA.03 25-Dec-2016

 --------------------------------------------
 #p opt UM062X/6-311+G** nosymm int=superfine
 --------------------------------------------

 -------------------
 Title Card Required
 -------------------
 Symbolic Z-matrix:
 Charge =  0 Multiplicity = 1

 SCF Done:  E(UM062X) =  -78.2026181020     A.U. after    9 cycles
 SCF Done:  E(UM062X) =  -78.2193839066     A.U. after    9 cycles
 SCF Done:  E(UM062X) =  -78.2343770559     A.U. after    8 cycles
 SCF Done:  E(UM062X) =  -78.2346970870     A.U. after    8 cycles
 SCF Done:  E(UM062X) =  -78.2346983715     A.U. after    7 cycles
 Optimization completed.
    -- Stationary point found.

                          Input orientation:
 ---------------------------------------------------------------------
 Center     Atomic      Atomic             Coordinates (Angstroms)
 Number     Number       Type             X           Y           Z
 ---------------------------------------------------------------------
      1          6           0       -2.260595    0.000000    0.000000
      2          6           0        2.260595    0.000000    0.000000
      3          1           0       -2.964490   -0.859252    0.000000
      4          1           0       -2.964460    0.859277    0.000000
      5          1           0        2.964490    0.859252   -0.000000
      6          1           0        2.964460   -0.859277   -0.000000
 ---------------------------------------------------------------------

 Alpha  occ. eigenvalues --  -10.59755 -10.59755  -0.74721  -0.74709  -0.46481
 Alpha  occ. eigenvalues --   -0.46467  -0.30639  -0.29849
 Alpha virt. eigenvalues --   -0.07365  -0.07127   0.02513   0.02950   0.06445
 Alpha virt. eigenvalues --    0.08493   0.08552   0.10297   0.11588   0.15533
 Alpha virt. eigenvalues --    0.17480   0.19951   0.20506   0.20744   0.45042

  Beta  occ. eigenvalues --  -10.59755 -10.59755  -0.74721  -0.74709  -0.46481
  Beta  occ. eigenvalues --   -0.46467  -0.30639  -0.29849
  Beta virt. eigenvalues --   -0.07365  -0.07127   0.02513   0.02950   0.06445
  Beta virt. eigenvalues --    0.08493   0.08552   0.10297   0.11588   0.15533
  Beta virt. eigenvalues --    0.17480   0.19951   0.20506   0.20744   0.45042

 Mulliken charges and spin densities:
               1          2
     1  C   -0.241252   0.000000
     2  C   -0.241252  -0.000000
     3  H    0.120626  -0.000000
     4  H    0.120626  -0.000000
     5  H    0.120626  -0.000000
     6  H    0.120626   0.000000
 Sum of Mulliken charges =  -0.00000  -0.00000

 Dipole moment (field-independent basis, Debye):
    X=             -0.0000    Y=              0.0000    Z=              0.0000  Tot=              0.0000
 Quadrupole moment (field-independent basis, Debye-Ang):
   XX=             -0.5752   YY=            -14.5854   ZZ=            -12.8969
   XY=             -0.0001   XZ=             -0.0000   YZ=             -0.0000

 Normal termination of Gaussian 16 at Tue Dec  3 11:23:03 2024.
