 Gaussian 16, Revision A.03,
 Gaussian 16:  ES64L-G16RevA.03 25-Dec-2016

 --------------------------------------------
 #p opt UM062X/6-311+G** nosymm int=superfine
 --------------------------------------------

 -------------------
 Title Card Required
 -------------------
 Symbolic Z-matrix:
 Charge =  0 Multiplicity = 1

 SCF Done:  E(UM062X) =  -437.157638354     A.U. after   16 cycles
 SCF Done:  E(UM062X) =  -437.160343875     A.U. after   16 cycles
 SCF Done:  E(UM062X) =  -437.161248374     A.U. after   17 cycles
 SCF Done:  E(UM062X) =  -437.161249520     A.U. after   16 cycles
 Optimization completed.
    -- Stationary point found.

                          Input orientation:
 ---------------------------------------------------------------------
 Center     Atomic      Atomic             Coordinates (Angstroms)
 Number     Number       Type             X           Y           Z
 ---------------------------------------------------------------------
      1          6           0       -2.102140    0.000000    0.000000
      2         16           0        2.102140    0.000000    0.000000
      3          1           0       -2.790230   -0.867038   -0.000033
      4          1           0       -2.791209    0.866259   -0.000158
 ---------------------------------------------------------------------

 Alpha  occ. eigenvalues --  -89.94445 -10.62416  -8.30493  -6.23281  -6.21696
 Alpha  occ. eigenvalues --   -6.21696  -0.77012  -0.74596  -0.49156  -0.32897
 Alpha  occ. eigenvalues --   -0.31918  -0.31911
 Alpha virt. eigenvalues --   -0.16901  -0.09520   0.01505   0.04597   0.05417
 Alpha virt. eigenvalues --    0.06418   0.07975   0.08679   0.08880   0.13901
 Alpha virt. eigenvalues --    0.17375   0.18678   0.35105   0.36622   0.36648

  Beta  occ. eigenvalues --  -89.94445 -10.62416  -8.30493  -6.23281  -6.21696
  Beta  occ. eigenvalues --   -6.21696  -0.77012  -0.74596  -0.49156  -0.32897
  Beta  occ. eigenvalues --   -0.31918  -0.31911
  Beta virt. eigenvalues --   -0.16901  -0.09520   0.01505   0.04597   0.05417
  Beta virt. eigenvalues --    0.06418   0.07975   0.08679   0.08880   0.13901
  Beta virt. eigenvalues --    0.17375   0.18678   0.35105   0.36622   0.36648

 Mulliken charges and spin densities:
               1          2
     1  C   -0.278204   0.000000
     2  S   -0.001237  -0.000000
     3  H    0.139716  -0.000000
     4  H    0.139725   0.000000
 Sum of Mulliken charges =  -0.00000  -0.00000

 Dipole moment (field-independent basis, Debye):
    X=             -2.5322    Y=             -0.0011    Z=             -0.0003  Tot=              2.5322
 Quadrupole moment (field-independent basis, Debye-Ang):
   XX=             -9.9888   YY=            -22.3756   ZZ=            -21.7142
   XY=              0.0004   XZ=             -0.0000   YZ=              0.0000

 Normal termination of Gaussian 16 at Mon Apr 21 19:45:30 2025.
