 Gaussian 16, Revision A.03,
 Gaussian 16:  ES64L-G16RevA.03 25-Dec-2016

 ---------------------------------------------------
 #p UM062X/6-311+G** force int=superfine pop=saveNBO
 ---------------------------------------------------

 -------------------
 Title Card Required
 -------------------
 Symbolic Z-matrix:
 Charge =  0 Multiplicity = 1

                         Standard orientation:
 ---------------------------------------------------------------------
 Center     Atomic      Atomic             Coordinates (Angstroms)
 Number     Number       Type             X           Y           Z
 ---------------------------------------------------------------------
      1          8           0        0.000000    0.000000   -0.993424
      2         16           0        0.000000    0.000000    0.496712
 ---------------------------------------------------------------------

 SCF Done:  E(UM062X) =  -473.294165417     A.U. after   11 cycles

 Unable to determine electronic state:  an orbital has unidentified symmetry.
 Alpha  occ. eigenvalues --  -89.99912 -19.70323  -8.36060  -6.28233  -6.28088
 Alpha  occ. eigenvalues --   -6.27213  -1.20608  -0.75128  -0.52114  -0.51426
 Alpha  occ. eigenvalues --   -0.49834  -0.28896
 Alpha virt. eigenvalues --   -0.13523   0.01551   0.02222   0.04480   0.05302
 Alpha virt. eigenvalues --    0.11446   0.19698   0.21127   0.21681   0.27153
 Alpha virt. eigenvalues --    0.32564   0.33506   0.38647   0.71310   0.76111

  Beta  occ. eigenvalues --  -89.99912 -19.70323  -8.36060  -6.28233  -6.28088
  Beta  occ. eigenvalues --   -6.27213  -1.20608  -0.75128  -0.52114  -0.51426
  Beta  occ. eigenvalues --   -0.49834  -0.28896
  Beta virt. eigenvalues --   -0.13523   0.01551   0.02222   0.04480   0.05302
  Beta virt. eigenvalues --    0.11446   0.19698   0.21127   0.21681   0.27153
  Beta virt. eigenvalues --    0.32564   0.33506   0.38647   0.71310   0.76111

 Mulliken charges and spin densities:
               1          2
     1  O   -0.221574  -0.000000
     2  S    0.221574   0.000000
 Sum of Mulliken charges =   0.00000  -0.00000

 Dipole moment (field-independent basis, Debye):
    X=              0.0000    Y=              0.0000    Z=              1.8351  Tot=              1.8351
 Quadrupole moment (field-independent basis, Debye-Ang):
   XX=            -15.7544   YY=            -19.9997   ZZ=            -18.9713
   XY=              0.0000   XZ=              0.0000   YZ=              0.0000

 Summary of Natural Population Analysis:

                                       Natural Population
                Natural  -----------------------------------------------
    Atom  No    Charge         Core      Valence    Rydberg      Total
 -----------------------------------------------------------------------
      O    1   -0.30717      0.99995     3.30008    0.00713     4.30717
      S    2    0.30717      4.99974     2.64518    0.04791     7.69283
 =======================================================================
   * Total *   -0.00000      5.99969     5.94526    0.05504    12.00000

 Optimization completed.
    -- Stationary point found.
 Normal termination of Gaussian 16 at Wed Apr 16 05:32:22 2025.
