 Gaussian 16, Revision A.03,
 Gaussian 16:  ES64L-G16RevA.03 25-Dec-2016

 --------------------------------------------
 #p opt UM062X/6-311+G** nosymm int=superfine
 --------------------------------------------

 -------------------
 Title Card Required
 -------------------
 Symbolic Z-matrix:
 Charge =  0 Multiplicity = 1

 SCF Done:  E(UM062X) =  -83.1290612350     A.U. after   10 cycles
 SCF Done:  E(UM062X) =  -83.1434535584     A.U. after    9 cycles
 SCF Done:  E(UM062X) =  -83.1461572441     A.U. after    9 cycles
 SCF Done:  E(UM062X) =  -83.1461717608     A.U. after    7 cycles
 Optimization completed.
    -- Stationary point found.

                          Input orientation:
 ---------------------------------------------------------------------
 Center     Atomic      Atomic             Coordinates (Angstroms)
 Number     Number       Type             X           Y           Z
 ---------------------------------------------------------------------
      1          5           0       -1.577429    0.000000    0.000000
      2          7           0        1.577429    0.000000    0.000000
      3          1           0        1.938044   -0.946528    0.000001
      4          1           0       -1.604136   -0.594217    1.029178
      5          1           0        1.937929    0.473320   -0.819739
      6          1           0        1.937916    0.473316    0.819747
      7          1           0       -1.604154    1.188400    0.000015
      8          1           0       -1.604150   -0.594193   -1.029191
 ---------------------------------------------------------------------

 Alpha  occ. eigenvalues --  -14.73795  -7.03503  -0.96863  -0.56685  -0.54733
 Alpha  occ. eigenvalues --   -0.54732  -0.39115  -0.39114  -0.35139
 Alpha virt. eigenvalues --   -0.01199   0.02175   0.04828   0.04828   0.05850
 Alpha virt. eigenvalues --    0.08477   0.10934   0.10934   0.17481   0.17482
 Alpha virt. eigenvalues --    0.18094   0.19798   0.19798   0.23099   0.28597

  Beta  occ. eigenvalues --  -14.73795  -7.03503  -0.96863  -0.56685  -0.54733
  Beta  occ. eigenvalues --   -0.54732  -0.39115  -0.39114  -0.35139
  Beta virt. eigenvalues --   -0.01199   0.02175   0.04828   0.04828   0.05850
  Beta virt. eigenvalues --    0.08477   0.10934   0.10934   0.17481   0.17482
  Beta virt. eigenvalues --    0.18094   0.19798   0.19798   0.23099   0.28597

 Mulliken charges and spin densities:
               1          2
     1  B    0.012693   0.000000
     2  N   -0.744952  -0.000000
     3  H    0.252589   0.000000
     4  H   -0.008503  -0.000000
     5  H    0.252590   0.000000
     6  H    0.252590   0.000000
     7  H   -0.008504   0.000000
     8  H   -0.008502  -0.000000
 Sum of Mulliken charges =  -0.00000  -0.00000

 Dipole moment (field-independent basis, Debye):
    X=              2.2566    Y=              0.0002    Z=              0.0000  Tot=              2.2566
 Quadrupole moment (field-independent basis, Debye-Ang):
   XX=            -11.4616   YY=            -15.7235   ZZ=            -15.7236
   XY=              0.0000   XZ=             -0.0000   YZ=              0.0000

 Normal termination of Gaussian 16 at Mon Apr 21 17:38:33 2025.
