 Gaussian 16, Revision A.03,
 Gaussian 16:  ES64L-G16RevA.03 25-Dec-2016

 ---------------------------------------------------
 #p UM062X/6-311+G** force int=superfine pop=saveNBO
 ---------------------------------------------------

 -------------------
 Title Card Required
 -------------------
 Symbolic Z-matrix:
 Charge =  0 Multiplicity = 1

                         Standard orientation:
 ---------------------------------------------------------------------
 Center     Atomic      Atomic             Coordinates (Angstroms)
 Number     Number       Type             X           Y           Z
 ---------------------------------------------------------------------
      1          8           0        0.000000    0.000000   -2.426757
      2         16           0        0.000000    0.000000    1.213379
 ---------------------------------------------------------------------

 SCF Done:  E(UM062X) =  -473.006293713     A.U. after   18 cycles

 Unable to determine electronic state:  partially filled degenerate orbitals.
 Alpha  occ. eigenvalues --  -89.97907 -19.75880  -8.33933  -6.26722  -6.25151
 Alpha  occ. eigenvalues --   -6.25106  -1.05693  -0.77809  -0.44568  -0.44548
 Alpha  occ. eigenvalues --   -0.35030  -0.34902
 Alpha virt. eigenvalues --   -0.20093  -0.18830   0.03465   0.04703   0.05606
 Alpha virt. eigenvalues --    0.05741   0.15316   0.18374   0.18610   0.23058
 Alpha virt. eigenvalues --    0.33358   0.34582   0.35425   0.58390   0.76801

  Beta  occ. eigenvalues --  -89.97907 -19.75880  -8.33933  -6.26722  -6.25151
  Beta  occ. eigenvalues --   -6.25106  -1.05693  -0.77809  -0.44568  -0.44548
  Beta  occ. eigenvalues --   -0.35030  -0.34902
  Beta virt. eigenvalues --   -0.20093  -0.18830   0.03465   0.04703   0.05606
  Beta virt. eigenvalues --    0.05741   0.15316   0.18374   0.18610   0.23058
  Beta virt. eigenvalues --    0.33358   0.34582   0.35425   0.58390   0.76801

 Mulliken charges and spin densities:
               1          2
     1  O   -0.034041   0.000000
     2  S    0.034041   0.000000
 Sum of Mulliken charges =  -0.00000   0.00000

 Dipole moment (field-independent basis, Debye):
    X=              0.0000    Y=              0.0000    Z=              0.7173  Tot=              0.7173
 Quadrupole moment (field-independent basis, Debye-Ang):
   XX=            -15.6790   YY=            -21.0961   ZZ=            -19.3545
   XY=              0.0000   XZ=              0.0000   YZ=              0.0000

 Summary of Natural Population Analysis:

                                       Natural Population
                Natural  -----------------------------------------------
    Atom  No    Charge         Core      Valence    Rydberg      Total
 -----------------------------------------------------------------------
      O    1   -0.01921      1.00000     3.01909    0.00012     4.01921
      S    2    0.01921      4.99999     2.98034    0.00046     7.98079
 =======================================================================
   * Total *    0.00000      5.99999     5.99943    0.00058    12.00000

 Normal termination of Gaussian 16 at Mon Apr 21 19:55:37 2025.
