 Gaussian 16, Revision A.03,
 Gaussian 16:  ES64L-G16RevA.03 25-Dec-2016

 ---------------------------------------------------
 #p UM062X/6-311+G** force int=superfine pop=saveNBO
 ---------------------------------------------------

 -------------------
 Title Card Required
 -------------------
 Symbolic Z-matrix:
 Charge =  0 Multiplicity = 1

                         Standard orientation:
 ---------------------------------------------------------------------
 Center     Atomic      Atomic             Coordinates (Angstroms)
 Number     Number       Type             X           Y           Z
 ---------------------------------------------------------------------
      1          6           0        0.000000    0.000000   -2.348067
      2         16           0        0.000000    0.000000    0.880525
 ---------------------------------------------------------------------

 SCF Done:  E(UM062X) =  -435.843944656     A.U. after   22 cycles

 The electronic state is 1-SG.
 Alpha  occ. eigenvalues --  -89.92466 -10.77723  -8.28462  -6.21123  -6.19745
 Alpha  occ. eigenvalues --   -6.19745  -0.73149  -0.69062  -0.33236  -0.30332
 Alpha  occ. eigenvalues --   -0.30332
 Alpha virt. eigenvalues --   -0.15260  -0.15260  -0.14870   0.03133   0.05262
 Alpha virt. eigenvalues --    0.05870   0.05870   0.08723   0.08723   0.08856
 Alpha virt. eigenvalues --    0.14144   0.36511   0.36511   0.36776   0.51657

  Beta  occ. eigenvalues --  -89.92466 -10.77723  -8.28462  -6.21123  -6.19745
  Beta  occ. eigenvalues --   -6.19745  -0.73149  -0.69062  -0.33236  -0.30332
  Beta  occ. eigenvalues --   -0.30332
  Beta virt. eigenvalues --   -0.15260  -0.15260  -0.14870   0.03133   0.05262
  Beta virt. eigenvalues --    0.05870   0.05870   0.08723   0.08723   0.08856
  Beta virt. eigenvalues --    0.14144   0.36511   0.36511   0.36776   0.51657

 Mulliken charges and spin densities:
               1          2
     1  C    0.166285  -0.000000
     2  S   -0.166285   0.000000
 Sum of Mulliken charges =   0.00000  -0.00000

 Dipole moment (field-independent basis, Debye):
    X=              0.0000    Y=              0.0000    Z=             -2.5978  Tot=              2.5978
 Quadrupole moment (field-independent basis, Debye-Ang):
   XX=            -20.7455   YY=            -20.7455   ZZ=            -14.6337
   XY=              0.0000   XZ=              0.0000   YZ=              0.0000

 Summary of Natural Population Analysis:

                                       Natural Population
                Natural  -----------------------------------------------
    Atom  No    Charge         Core      Valence    Rydberg      Total
 -----------------------------------------------------------------------
      C    1    0.11429      1.00000     1.88520    0.00051     2.88571
      S    2   -0.11429      4.99999     3.11305    0.00125     8.11429
 =======================================================================
   * Total *    0.00000      5.99999     4.99824    0.00177    11.00000

 Normal termination of Gaussian 16 at Mon Apr 21 19:46:47 2025.
