 Gaussian 16, Revision A.03,
 Gaussian 16:  ES64L-G16RevA.03 25-Dec-2016

 --------------------------------------------
 #p opt UM062X/6-311+G** nosymm int=superfine
 --------------------------------------------

 -------------------
 Title Card Required
 -------------------
 Symbolic Z-matrix:
 Charge =  1 Multiplicity = 2

 SCF Done:  E(UM062X) =  -78.1627411809     A.U. after    9 cycles
 SCF Done:  E(UM062X) =  -78.1682982556     A.U. after    8 cycles
 SCF Done:  E(UM062X) =  -78.1688089912     A.U. after    8 cycles
 SCF Done:  E(UM062X) =  -78.1688218564     A.U. after    6 cycles
 Optimization completed.
    -- Stationary point found.

                          Input orientation:
 ---------------------------------------------------------------------
 Center     Atomic      Atomic             Coordinates (Angstroms)
 Number     Number       Type             X           Y           Z
 ---------------------------------------------------------------------
      1          6           0       -0.784650    0.000000    0.000000
      2          6           0        0.784650    0.000000    0.000000
      3          1           0       -1.312324   -0.948408   -0.000000
      4          1           0       -1.312382    0.948377   -0.000000
      5          1           0        1.312324    0.948408    0.000000
      6          1           0        1.312382   -0.948377    0.000000
 ---------------------------------------------------------------------

 Alpha  occ. eigenvalues --  -10.90619 -10.90576  -1.14166  -0.98454  -0.83169
 Alpha  occ. eigenvalues --   -0.76316  -0.74543  -0.63184
 Alpha virt. eigenvalues --   -0.31918  -0.14572  -0.13336  -0.11820  -0.09254
 Alpha virt. eigenvalues --   -0.07597  -0.07090  -0.04670  -0.04580  -0.02474
 Alpha virt. eigenvalues --   -0.02041  -0.00942   0.03639   0.10223   0.19434

  Beta  occ. eigenvalues --  -10.90393 -10.90362  -1.10505  -0.96452  -0.82251
  Beta  occ. eigenvalues --   -0.75269  -0.74201
  Beta virt. eigenvalues --   -0.39877  -0.24308  -0.16285  -0.13007  -0.12098
  Beta virt. eigenvalues --   -0.09525  -0.08377  -0.07139  -0.04691  -0.03934
  Beta virt. eigenvalues --   -0.02007  -0.01477   0.00337   0.03750   0.10706

 Mulliken charges and spin densities:
               1          2
     1  C   -0.057674   0.538719
     2  C   -0.057674   0.538719
     3  H    0.278834  -0.019360
     4  H    0.278840  -0.019359
     5  H    0.278834  -0.019360
     6  H    0.278840  -0.019359
 Sum of Mulliken charges =   1.00000   1.00000

 Dipole moment (field-independent basis, Debye):
    X=              0.0000    Y=              0.0000    Z=              0.0000  Tot=              0.0000
 Quadrupole moment (field-independent basis, Debye-Ang):
   XX=             -4.8060   YY=             -8.4021   ZZ=            -11.8123
   XY=             -0.0001   XZ=              0.0000   YZ=              0.0000

 Normal termination of Gaussian 16 at Tue Nov 19 11:04:41 2024.
