 Gaussian 16, Revision A.03,
 Gaussian 16:  ES64L-G16RevA.03 25-Dec-2016

 ---------------------------------------
 #p UM062X/6-311+G** force int=superfine
 ---------------------------------------

 -------------------
 Title Card Required
 -------------------
 Symbolic Z-matrix:
 Charge =  1 Multiplicity = 2

                         Standard orientation:
 ---------------------------------------------------------------------
 Center     Atomic      Atomic             Coordinates (Angstroms)
 Number     Number       Type             X           Y           Z
 ---------------------------------------------------------------------
      1          6           0        0.000000    0.000000    0.484647
      2          6           0        0.000000    0.000000   -0.484647
      3          1           0        0.000000    0.000000    1.556902
      4          1           0        0.000000    0.000000   -1.556900
 ---------------------------------------------------------------------

 SCF Done:  E(UM062X) =  -76.6782209381     A.U. after    9 cycles

 Unable to determine electronic state:  an orbital has unidentified symmetry.
 Alpha  occ. eigenvalues --  -10.90639 -10.88838  -1.32447  -0.95042  -0.91443
 Alpha  occ. eigenvalues --   -0.82957  -0.79427
 Alpha virt. eigenvalues --   -0.19096  -0.17379  -0.14742  -0.13762  -0.11965
 Alpha virt. eigenvalues --   -0.11479  -0.11156  -0.03362  -0.02622  -0.02112
 Alpha virt. eigenvalues --    0.02465   0.04223   0.17028   0.21066   0.25477

  Beta  occ. eigenvalues --  -10.90272 -10.88549  -1.26431  -0.93526  -0.90581
  Beta  occ. eigenvalues --   -0.76784
  Beta virt. eigenvalues --   -0.52382  -0.16298  -0.15557  -0.15118  -0.13366
  Beta virt. eigenvalues --   -0.11895  -0.11658  -0.11241  -0.02128  -0.01644
  Beta virt. eigenvalues --   -0.01087   0.02708   0.04662   0.17590   0.21449

 Mulliken charges and spin densities:
               1          2
     1  C    0.239110   0.521111
     2  C    0.239111   0.521111
     3  H    0.260890  -0.021111
     4  H    0.260889  -0.021111
 Sum of Mulliken charges =   1.00000   1.00000

 Dipole moment (field-independent basis, Debye):
    X=              0.0000    Y=              0.0000    Z=              0.0000  Tot=              0.0000
 Quadrupole moment (field-independent basis, Debye-Ang):
   XX=            -10.3131   YY=             -8.7837   ZZ=             -2.1983
   XY=              0.0000   XZ=              0.0000   YZ=              0.0000

 Normal termination of Gaussian 16 at Tue Nov 19 13:26:41 2024.
