 Gaussian 16, Revision A.03,
 Gaussian 16:  ES64L-G16RevA.03 25-Dec-2016

 ----------------------------------------------------------------------
 #p opt UM062X/6-311+G** nosymm int=superfine SCF=(MaxCycle=200,NoVarAc
 c,noincfock) guess=read
 ----------------------------------------------------------------------

 -------------------
 Title Card Required
 -------------------
 Symbolic Z-matrix:
 Charge =  0 Multiplicity = 1

 SCF Done:  E(UM062X) =  -151.302106531     A.U. after   20 cycles
 SCF Done:  E(UM062X) =  -151.302548877     A.U. after   18 cycles
 SCF Done:  E(UM062X) =  -151.303069644     A.U. after   30 cycles
 SCF Done:  E(UM062X) =  -151.303652060     A.U. after   17 cycles
 SCF Done:  E(UM062X) =  -151.304008321     A.U. after   20 cycles
 SCF Done:  E(UM062X) =  -151.304242241     A.U. after   21 cycles
 SCF Done:  E(UM062X) =  -151.304305113     A.U. after   51 cycles
 SCF Done:  E(UM062X) =  -151.304336291     A.U. after   18 cycles
 SCF Done:  E(UM062X) =  -151.304343759     A.U. after   17 cycles
 SCF Done:  E(UM062X) =  -151.304344408     A.U. after   28 cycles
 SCF Done:  E(UM062X) =  -151.304344420     A.U. after   17 cycles
 Optimization completed.
    -- Stationary point found.

                          Input orientation:
 ---------------------------------------------------------------------
 Center     Atomic      Atomic             Coordinates (Angstroms)
 Number     Number       Type             X           Y           Z
 ---------------------------------------------------------------------
      1          8           0       -1.961938    0.000000    0.000000
      2          8           0        1.961938    0.000000    0.000000
      3          1           0       -1.770380   -0.756814   -0.582035
      4          1           0        1.770830    0.756930    0.582029
 ---------------------------------------------------------------------

 Alpha  occ. eigenvalues --  -19.72322 -19.72321  -1.12927  -1.12775  -0.56700
 Alpha  occ. eigenvalues --   -0.56630  -0.44126  -0.44031  -0.35836
 Alpha virt. eigenvalues --   -0.27475   0.05098   0.07357   0.15178   0.15256
 Alpha virt. eigenvalues --    0.16582   0.18113   0.19477   0.19922   0.20318
 Alpha virt. eigenvalues --    0.30476   0.49237   0.50782   0.99644   1.00970

  Beta  occ. eigenvalues --  -19.72322 -19.72321  -1.12927  -1.12775  -0.56700
  Beta  occ. eigenvalues --   -0.56630  -0.44126  -0.44031  -0.35836
  Beta virt. eigenvalues --   -0.27475   0.05098   0.07357   0.15178   0.15256
  Beta virt. eigenvalues --    0.16582   0.18113   0.19477   0.19922   0.20318
  Beta virt. eigenvalues --    0.30476   0.49237   0.50782   0.99644   1.00970

 Mulliken charges and spin densities:
               1          2
     1  O   -0.266786   0.000000
     2  O   -0.266813  -0.000000
     3  H    0.266802  -0.000000
     4  H    0.266797   0.000000
 Sum of Mulliken charges =   0.00000  -0.00000

 Dipole moment (field-independent basis, Debye):
    X=              0.0006    Y=              0.0002    Z=             -0.0000  Tot=              0.0007
 Quadrupole moment (field-independent basis, Debye-Ang):
   XX=            -13.6488   YY=            -10.6004   ZZ=            -11.8956
   XY=              5.4332   XZ=              4.1780   YZ=              2.4372

 Normal termination of Gaussian 16 at Tue Apr 22 00:28:27 2025.
