 Gaussian 16, Revision A.03,
 Gaussian 16:  ES64L-G16RevA.03 25-Dec-2016

 --------------------------------------------
 #p opt UM062X/6-311+G** nosymm int=superfine
 --------------------------------------------

 -------------------
 Title Card Required
 -------------------
 Symbolic Z-matrix:
 Charge =  0 Multiplicity = 1

 SCF Done:  E(UM062X) =  -75.4006639942     A.U. after   13 cycles
 SCF Done:  E(UM062X) =  -75.4287554971     A.U. after    9 cycles
 SCF Done:  E(UM062X) =  -75.4712311024     A.U. after   10 cycles
 SCF Done:  E(UM062X) =  -75.5396079428     A.U. after   11 cycles
 SCF Done:  E(UM062X) =  -75.6754098814     A.U. after   10 cycles
 SCF Done:  E(UM062X) =  -75.7275027318     A.U. after   11 cycles
 SCF Done:  E(UM062X) =  -75.7614824078     A.U. after   10 cycles
 SCF Done:  E(UM062X) =  -75.7885097792     A.U. after   10 cycles
 SCF Done:  E(UM062X) =  -75.7933344067     A.U. after    9 cycles
 SCF Done:  E(UM062X) =  -75.7935699734     A.U. after    9 cycles
 SCF Done:  E(UM062X) =  -75.7935729205     A.U. after    8 cycles
 Optimization completed.
    -- Stationary point found.

                          Input orientation:
 ---------------------------------------------------------------------
 Center     Atomic      Atomic             Coordinates (Angstroms)
 Number     Number       Type             X           Y           Z
 ---------------------------------------------------------------------
      1          6           0       -0.311550    0.000000    0.000000
      2          6           0        0.311550    0.000000    0.000000
      3          1           0       -1.165084   -0.778391    0.000003
      4          1           0       -1.166213    0.771969    0.000002
      5          1           0        1.165084    0.778391   -0.000002
      6          1           0        1.166213   -0.771969   -0.000001
 ---------------------------------------------------------------------

 Alpha  occ. eigenvalues --  -10.89300 -10.52946  -0.87411  -0.70854  -0.64219
 Alpha  occ. eigenvalues --   -0.60291  -0.45403  -0.23805
 Alpha virt. eigenvalues --    0.00809   0.02407   0.03885   0.04899   0.08138
 Alpha virt. eigenvalues --    0.09800   0.09954   0.12019   0.15758   0.18760
 Alpha virt. eigenvalues --    0.24103   0.27930   0.38152   0.42387   0.43941

  Beta  occ. eigenvalues --  -10.89300 -10.52946  -0.87411  -0.70854  -0.64219
  Beta  occ. eigenvalues --   -0.60291  -0.45403  -0.23805
  Beta virt. eigenvalues --    0.00809   0.02407   0.03885   0.04899   0.08138
  Beta virt. eigenvalues --    0.09800   0.09954   0.12019   0.15758   0.18760
  Beta virt. eigenvalues --    0.24103   0.27930   0.38152   0.42387   0.43941

 Mulliken charges and spin densities:
               1          2
     1  C   -0.252644  -0.000000
     2  C   -0.252644   0.000000
     3  H    0.125349   0.000000
     4  H    0.127295  -0.000000
     5  H    0.125349  -0.000000
     6  H    0.127295  -0.000000
 Sum of Mulliken charges =  -0.00000  -0.00000

 Dipole moment (field-independent basis, Debye):
    X=             -0.0000    Y=              0.0000    Z=              0.0000  Tot=              0.0000
 Quadrupole moment (field-independent basis, Debye-Ang):
   XX=            -13.1955   YY=            -13.3018   ZZ=            -12.5920
   XY=             -0.0312   XZ=             -0.0000   YZ=              0.0000

 Normal termination of Gaussian 16 at Tue Nov 19 10:05:10 2024.
