 Gaussian 16, Revision A.03,
 Gaussian 16:  ES64L-G16RevA.03 25-Dec-2016

 --------------------------------------------
 #p opt UM062X/6-311+G** nosymm int=superfine
 --------------------------------------------

 -------------------
 Title Card Required
 -------------------
 Symbolic Z-matrix:
 Charge =  1 Multiplicity = 2

 SCF Done:  E(UM062X) =  -92.5746564616     A.U. after   24 cycles
 SCF Done:  E(UM062X) =  -92.5749712174     A.U. after   13 cycles
 Optimization completed.
    -- Stationary point found.

                          Input orientation:
 ---------------------------------------------------------------------
 Center     Atomic      Atomic             Coordinates (Angstroms)
 Number     Number       Type             X           Y           Z
 ---------------------------------------------------------------------
      1          6           0       -1.851540    0.000000    0.000000
      2          7           0        1.851540    0.000000    0.000000
      3          1           0       -2.968330   -0.000000    0.000000
 ---------------------------------------------------------------------

 Alpha  occ. eigenvalues --  -15.21562 -10.97934  -1.16996  -0.99035  -0.72044
 Alpha  occ. eigenvalues --   -0.69025  -0.65658
 Alpha virt. eigenvalues --   -0.42333  -0.34390  -0.32873  -0.13770  -0.09827
 Alpha virt. eigenvalues --   -0.07944  -0.07237  -0.04278  -0.02285  -0.01748
 Alpha virt. eigenvalues --   -0.01702   0.07138   0.25513   0.35007   0.35234

  Beta  occ. eigenvalues --  -15.18955 -10.98316  -1.05153  -1.01236  -0.66899
  Beta  occ. eigenvalues --   -0.50776
  Beta virt. eigenvalues --   -0.42996  -0.38856  -0.36278  -0.34151  -0.13566
  Beta virt. eigenvalues --   -0.10279  -0.08456  -0.08019  -0.04769  -0.02505
  Beta virt. eigenvalues --   -0.02277  -0.01761   0.05376   0.26111   0.34581

 Mulliken charges and spin densities:
               1          2
     1  C    0.292717  -0.474329
     2  N    0.458698   1.458868
     3  H    0.248585   0.015461
 Sum of Mulliken charges =   1.00000   1.00000

 Dipole moment (field-independent basis, Debye):
    X=             -2.9688    Y=             -0.0000    Z=             -0.0000  Tot=              2.9688
 Quadrupole moment (field-independent basis, Debye-Ang):
   XX=             16.1648   YY=             -9.7111   ZZ=            -10.9737
   XY=             -0.0000   XZ=             -0.0000   YZ=             -0.6579

 Normal termination of Gaussian 16 at Mon Apr 21 18:37:40 2025.
