 Gaussian 16, Revision A.03,
 Gaussian 16:  ES64L-G16RevA.03 25-Dec-2016

 --------------------------------------------
 #p opt UM062X/6-311+G** nosymm int=superfine
 --------------------------------------------

 -------------------
 Title Card Required
 -------------------
 Symbolic Z-matrix:
 Charge =  1 Multiplicity = 2

 SCF Done:  E(UM062X) =  -92.6091513800     A.U. after   20 cycles
 SCF Done:  E(UM062X) =  -92.6095980216     A.U. after   13 cycles
 SCF Done:  E(UM062X) =  -92.6095991724     A.U. after   23 cycles
 Optimization completed.
    -- Stationary point found.

                          Input orientation:
 ---------------------------------------------------------------------
 Center     Atomic      Atomic             Coordinates (Angstroms)
 Number     Number       Type             X           Y           Z
 ---------------------------------------------------------------------
      1          6           0       -1.076539    0.000000    0.000000
      2          7           0        1.076539    0.000000    0.000000
      3          1           0       -2.198857   -0.000000   -0.000000
 ---------------------------------------------------------------------

 Alpha  occ. eigenvalues --  -15.21333 -11.08861  -1.16749  -1.07338  -0.75826
 Alpha  occ. eigenvalues --   -0.70308  -0.61538
 Alpha virt. eigenvalues --   -0.44298  -0.43081  -0.39842  -0.16287  -0.11471
 Alpha virt. eigenvalues --   -0.10276  -0.09788  -0.05561  -0.02008  -0.01453
 Alpha virt. eigenvalues --    0.00470   0.07946   0.23335   0.29424   0.29427

  Beta  occ. eigenvalues --  -15.20129 -11.08855  -1.10776  -1.05657  -0.75274
  Beta  occ. eigenvalues --   -0.60768
  Beta virt. eigenvalues --   -0.43454  -0.42736  -0.36294  -0.34031  -0.16515
  Beta virt. eigenvalues --   -0.11849  -0.10148  -0.10067  -0.05911  -0.01989
  Beta virt. eigenvalues --   -0.01784   0.00526   0.06340   0.23435   0.29295

 Mulliken charges and spin densities:
               1          2
     1  C    0.275972   0.116991
     2  N    0.390912   0.900278
     3  H    0.333116  -0.017268
 Sum of Mulliken charges =   1.00000   1.00000

 Dipole moment (field-independent basis, Debye):
    X=             -4.3892    Y=              0.0000    Z=             -0.0000  Tot=              4.3892
 Quadrupole moment (field-independent basis, Debye-Ang):
   XX=              2.9260   YY=            -11.1542   ZZ=             -9.7039
   XY=              0.0000   XZ=              0.0000   YZ=              0.6973

 Normal termination of Gaussian 16 at Mon Apr 21 18:34:17 2025.
