 Gaussian 16, Revision A.03,
 Gaussian 16:  ES64L-G16RevA.03 25-Dec-2016

 --------------------------------------------
 #p opt UM062X/6-311+G** nosymm int=superfine
 --------------------------------------------

 -------------------
 Title Card Required
 -------------------
 Symbolic Z-matrix:
 Charge =  0 Multiplicity = 1

 SCF Done:  E(UM062X) =  -80.4000468170     A.U. after   19 cycles
 SCF Done:  E(UM062X) =  -80.4040341800     A.U. after   13 cycles
 SCF Done:  E(UM062X) =  -80.4041308079     A.U. after   14 cycles
 SCF Done:  E(UM062X) =  -80.4071496166     A.U. after   13 cycles
 SCF Done:  E(UM062X) =  -80.4100985238     A.U. after   16 cycles
 SCF Done:  E(UM062X) =  -80.4289744249     A.U. after   14 cycles
 SCF Done:  E(UM062X) =  -80.4323801779     A.U. after   12 cycles
 SCF Done:  E(UM062X) =  -80.4331193356     A.U. after   16 cycles
 SCF Done:  E(UM062X) =  -80.4331810563     A.U. after   12 cycles
 SCF Done:  E(UM062X) =  -80.4335112659     A.U. after   16 cycles
 SCF Done:  E(UM062X) =  -80.4335712668     A.U. after   14 cycles
 SCF Done:  E(UM062X) =  -80.4335588205     A.U. after   15 cycles
 SCF Done:  E(UM062X) =  -80.4335957619     A.U. after   14 cycles
 SCF Done:  E(UM062X) =  -80.4335781399     A.U. after   16 cycles
 SCF Done:  E(UM062X) =  -80.4336014112     A.U. after   12 cycles
 SCF Done:  E(UM062X) =  -80.4335892114     A.U. after   14 cycles
 Optimization completed.
    -- Stationary point found.

                          Input orientation:
 ---------------------------------------------------------------------
 Center     Atomic      Atomic             Coordinates (Angstroms)
 Number     Number       Type             X           Y           Z
 ---------------------------------------------------------------------
      1          5           0       -1.442488   -0.001068   -0.000000
      2          7           0        1.441853    0.000470    0.000008
      3          1           0       -2.415035    0.733378   -0.000046
      4          1           0        1.245338    1.019133    0.000141
 ---------------------------------------------------------------------

 Alpha  occ. eigenvalues --  -14.79208  -7.17635  -0.85990  -0.58678  -0.42611
 Alpha  occ. eigenvalues --   -0.31868  -0.29983
 Alpha virt. eigenvalues --   -0.10142  -0.07180  -0.05773   0.00884   0.04426
 Alpha virt. eigenvalues --    0.05263   0.05368   0.12605   0.14006   0.16922
 Alpha virt. eigenvalues --    0.18349   0.19245   0.25416   0.34239   0.39371

  Beta  occ. eigenvalues --  -14.79208  -7.17635  -0.85990  -0.58678  -0.42611
  Beta  occ. eigenvalues --   -0.31868  -0.29983
  Beta virt. eigenvalues --   -0.10142  -0.07180  -0.05773   0.00884   0.04426
  Beta virt. eigenvalues --    0.05263   0.05368   0.12605   0.14006   0.16922
  Beta virt. eigenvalues --    0.18349   0.19245   0.25416   0.34239   0.39371

 Mulliken charges and spin densities:
               1          2
     1  B    0.082864  -0.000000
     2  N   -0.273574   0.000000
     3  H    0.028056  -0.000000
     4  H    0.162655   0.000000
 Sum of Mulliken charges =  -0.00000  -0.00000

 Dipole moment (field-independent basis, Debye):
    X=             -3.5751    Y=              2.2150    Z=              0.0001  Tot=              4.2057
 Quadrupole moment (field-independent basis, Debye-Ang):
   XX=            -10.3803   YY=            -13.0537   ZZ=            -15.0896
   XY=              2.5286   XZ=              0.0002   YZ=              0.0004

 Normal termination of Gaussian 16 at Mon Apr 21 18:06:49 2025.
