 Gaussian 16, Revision A.03,
 Gaussian 16:  ES64L-G16RevA.03 25-Dec-2016

 --------------------------------------------
 #p opt UM062X/6-311+G** nosymm int=superfine
 --------------------------------------------

 -------------------
 Title Card Required
 -------------------
 Symbolic Z-matrix:
 Charge =  1 Multiplicity = 2

 SCF Done:  E(UM062X) =  -579.696484384     A.U. after   14 cycles
 SCF Done:  E(UM062X) =  -579.703828304     A.U. after   13 cycles
 SCF Done:  E(UM062X) =  -579.708127305     A.U. after   13 cycles
 SCF Done:  E(UM062X) =  -579.708204949     A.U. after   12 cycles
 SCF Done:  E(UM062X) =  -579.708346588     A.U. after   12 cycles
 SCF Done:  E(UM062X) =  -579.708468895     A.U. after   13 cycles
 SCF Done:  E(UM062X) =  -579.708469397     A.U. after   11 cycles
 Optimization completed.
    -- Stationary point found.

                          Input orientation:
 ---------------------------------------------------------------------
 Center     Atomic      Atomic             Coordinates (Angstroms)
 Number     Number       Type             X           Y           Z
 ---------------------------------------------------------------------
      1         14           0       -1.577975    0.000000    0.000000
      2         14           0        1.577975    0.000000    0.000000
      3          1           0       -1.815354   -1.484534   -0.000001
      4          1           0        1.815659    1.484468   -0.000001
 ---------------------------------------------------------------------

 Alpha  occ. eigenvalues --  -67.27434 -67.27434  -5.81616  -5.81615  -4.12740
 Alpha  occ. eigenvalues --   -4.12739  -4.12678  -4.12678  -4.12012  -4.12012
 Alpha  occ. eigenvalues --   -0.78276  -0.75406  -0.54475  -0.53579  -0.45236
 Alpha virt. eigenvalues --   -0.30290  -0.26711  -0.24370  -0.12356  -0.10689
 Alpha virt. eigenvalues --   -0.09113  -0.08782  -0.08512  -0.07730  -0.06165
 Alpha virt. eigenvalues --   -0.05829  -0.05820  -0.02967   0.12344   0.13718

  Beta  occ. eigenvalues --  -67.27144 -67.27144  -5.81506  -5.81505  -4.12602
  Beta  occ. eigenvalues --   -4.12601  -4.12053  -4.12052  -4.11802  -4.11801
  Beta  occ. eigenvalues --   -0.76389  -0.73462  -0.54269  -0.51456
  Beta virt. eigenvalues --   -0.30175  -0.29643  -0.25960  -0.20279  -0.12872
  Beta virt. eigenvalues --   -0.10379  -0.09061  -0.08767  -0.08189  -0.07127
  Beta virt. eigenvalues --   -0.05724  -0.05601  -0.05257  -0.02293   0.11347

 Mulliken charges and spin densities:
               1          2
     1  Si   0.562856   0.507080
     2  Si   0.562819   0.507165
     3  H   -0.062844  -0.007123
     4  H   -0.062832  -0.007122
 Sum of Mulliken charges =   1.00000   1.00000

 Dipole moment (field-independent basis, Debye):
    X=              0.0001    Y=             -0.0000    Z=             -0.0000  Tot=              0.0001
 Quadrupole moment (field-independent basis, Debye-Ang):
   XX=             -8.1576   YY=            -26.9111   ZZ=            -19.4872
   XY=              1.5581   XZ=             -0.0000   YZ=              0.0000

 Normal termination of Gaussian 16 at Mon Apr 21 20:39:08 2025.
