 Gaussian 16, Revision A.03,
 Gaussian 16:  ES64L-G16RevA.03 25-Dec-2016

 --------------------------------------------
 #p opt UM062X/6-311+G** nosymm int=superfine
 --------------------------------------------

 -------------------
 Title Card Required
 -------------------
 Symbolic Z-matrix:
 Charge =  1 Multiplicity = 2

 SCF Done:  E(UM062X) =  -579.691152149     A.U. after   15 cycles
 SCF Done:  E(UM062X) =  -579.696122335     A.U. after   13 cycles
 SCF Done:  E(UM062X) =  -579.701073127     A.U. after   15 cycles
 SCF Done:  E(UM062X) =  -579.701151504     A.U. after   12 cycles
 SCF Done:  E(UM062X) =  -579.701253872     A.U. after   13 cycles
 SCF Done:  E(UM062X) =  -579.701311410     A.U. after   11 cycles
 SCF Done:  E(UM062X) =  -579.701340843     A.U. after   12 cycles
 SCF Done:  E(UM062X) =  -579.701349347     A.U. after   12 cycles
 SCF Done:  E(UM062X) =  -579.701350376     A.U. after   10 cycles
 SCF Done:  E(UM062X) =  -579.701350392     A.U. after    8 cycles
 Optimization completed.
    -- Stationary point found.

                          Input orientation:
 ---------------------------------------------------------------------
 Center     Atomic      Atomic             Coordinates (Angstroms)
 Number     Number       Type             X           Y           Z
 ---------------------------------------------------------------------
      1         14           0       -1.702975    0.000000    0.000000
      2         14           0        1.702975    0.000000    0.000000
      3          1           0       -1.895683   -1.492819    0.000000
      4          1           0        1.895687    1.492819    0.000000
 ---------------------------------------------------------------------

 Alpha  occ. eigenvalues --  -67.27246 -67.27246  -5.81417  -5.81417  -4.12533
 Alpha  occ. eigenvalues --   -4.12532  -4.12460  -4.12460  -4.11798  -4.11797
 Alpha  occ. eigenvalues --   -0.77411  -0.75393  -0.53713  -0.53145  -0.44194
 Alpha virt. eigenvalues --   -0.29482  -0.26811  -0.26037  -0.11888  -0.10365
 Alpha virt. eigenvalues --   -0.09002  -0.08669  -0.08268  -0.07415  -0.05843
 Alpha virt. eigenvalues --   -0.05756  -0.05724  -0.02982   0.12449   0.13963

  Beta  occ. eigenvalues --  -67.26972 -67.26972  -5.81325  -5.81323  -4.12390
  Beta  occ. eigenvalues --   -4.12389  -4.11854  -4.11853  -4.11629  -4.11629
  Beta  occ. eigenvalues --   -0.75426  -0.73597  -0.53313  -0.51651
  Beta virt. eigenvalues --   -0.29492  -0.28940  -0.26192  -0.21483  -0.12923
  Beta virt. eigenvalues --   -0.10342  -0.08957  -0.08820  -0.08198  -0.07001
  Beta virt. eigenvalues --   -0.05644  -0.05515  -0.05325  -0.02576   0.11247

 Mulliken charges and spin densities:
               1          2
     1  Si   0.570215   0.510026
     2  Si   0.570214   0.510026
     3  H   -0.070215  -0.010026
     4  H   -0.070214  -0.010026
 Sum of Mulliken charges =   1.00000   1.00000

 Dipole moment (field-independent basis, Debye):
    X=             -0.0000    Y=             -0.0000    Z=              0.0000  Tot=              0.0000
 Quadrupole moment (field-independent basis, Debye-Ang):
   XX=             -5.7688   YY=            -27.2029   ZZ=            -19.6448
   XY=              1.6998   XZ=              0.0000   YZ=             -0.0000

 Normal termination of Gaussian 16 at Mon Apr 21 20:40:31 2025.
