 Gaussian 16, Revision A.03,
 Gaussian 16:  ES64L-G16RevA.03 25-Dec-2016

 --------------------------------------------
 #p opt UM062X/6-311+G** nosymm int=superfine
 --------------------------------------------

 -------------------
 Title Card Required
 -------------------
 Symbolic Z-matrix:
 Charge =  1 Multiplicity = 2

 SCF Done:  E(UM062X) =  -1615.48531831     A.U. after   22 cycles
 SCF Done:  E(UM062X) =  -1615.55623613     A.U. after   19 cycles
 SCF Done:  E(UM062X) =  -1615.58395875     A.U. after   20 cycles
 SCF Done:  E(UM062X) =  -1615.58252501     A.U. after   20 cycles
 SCF Done:  E(UM062X) =  -1615.58492293     A.U. after   20 cycles
 SCF Done:  E(UM062X) =  -1615.52077672     A.U. after   25 cycles
 SCF Done:  E(UM062X) =  -1615.57123681     A.U. after   24 cycles
 SCF Done:  E(UM062X) =  -1615.58504167     A.U. after   17 cycles
 SCF Done:  E(UM062X) =  -1615.58487273     A.U. after   20 cycles
 SCF Done:  E(UM062X) =  -1615.58513353     A.U. after   20 cycles
 SCF Done:  E(UM062X) =  -1615.58515747     A.U. after   17 cycles
 SCF Done:  E(UM062X) =  -1615.58517622     A.U. after   18 cycles
 SCF Done:  E(UM062X) =  -1615.58518218     A.U. after   16 cycles
 SCF Done:  E(UM062X) =  -1615.58518630     A.U. after   14 cycles
 SCF Done:  E(UM062X) =  -1615.58518771     A.U. after   14 cycles
 SCF Done:  E(UM062X) =  -1615.58518796     A.U. after   12 cycles
 SCF Done:  E(UM062X) =  -1615.58518807     A.U. after   12 cycles
 SCF Done:  E(UM062X) =  -1615.58518809     A.U. after   12 cycles
 Optimization completed.
    -- Stationary point found.

                          Input orientation:
 ---------------------------------------------------------------------
 Center     Atomic      Atomic             Coordinates (Angstroms)
 Number     Number       Type             X           Y           Z
 ---------------------------------------------------------------------
      1          6           0       -1.312519    0.000000   -0.000000
      2          6           0        1.312519   -0.000000    0.000000
      3          6           0        0.000025   -2.135767   -0.003800
      4          6           0        0.000039   -3.517051   -0.006215
      5          6           0       -1.132677   -4.319157    0.247909
      6          6           0       -1.237872   -1.481092    0.232036
      7          6           0        0.660694   -5.713973   -0.161063
      8          1           0        1.277438   -6.589246   -0.307058
      9          6           0       -1.511691    0.814552    1.180905
     10          6           0       -0.660668   -5.714514    0.140502
     11          1           0       -1.277427   -6.590307    0.283288
     12          6           0        1.132733   -4.318239   -0.263322
     13          6           0        1.237895   -1.480237   -0.237415
     14          6           0        1.697205    2.237065   -1.216067
     15          6           0       -1.516356    0.340318   -1.396721
     16          6           0       -1.889334    2.862355    2.469489
     17          1           0       -2.041687    3.935379    2.477867
     18          6           0       -2.316438   -3.676279    0.523641
     19          1           0       -3.230092   -4.220275    0.734481
     20          6           0       -1.569232    1.659158   -1.951185
     21          6           0        2.352625   -2.248631   -0.511592
     22          1           0        3.303382   -1.751786   -0.675118
     23          6           0        1.516384    0.335098    1.397970
     24          6           0        1.569096    1.651833    1.957412
     25          6           0        2.316452   -3.674372   -0.536920
     26          1           0        3.230077   -4.217604   -0.749842
     27          6           0       -1.697474    2.232411    1.224509
     28          6           0       -1.476753    0.144242    2.435895
     29          1           0       -1.296953   -0.919564    2.458134
     30          6           0        1.634238   -0.743448    2.326630
     31          1           0        1.634877   -1.761087    1.967975
     32          6           0       -1.889430    2.167997    3.660174
     33          1           0       -2.047904    2.688100    4.597059
     34          6           0       -2.352614   -2.250457    0.503419
     35          1           0       -3.303385   -1.754203    0.668645
     36          6           0       -1.674838    1.819033   -3.348709
     37          1           0       -1.693381    2.828378   -3.743034
     38          6           0        1.511719    0.819000   -1.177837
     39          6           0       -1.653362    3.135300    0.103960
     40          1           0       -1.700445    4.183108    0.384343
     41          6           0       -1.783934    0.752774   -4.210970
     42          1           0       -1.885259    0.917416   -5.276779
     43          6           0       -1.568396    2.896442   -1.218400
     44          1           0       -1.549345    3.779874   -1.849479
     45          6           0        1.674868    1.806433    3.355518
     46          1           0        1.693312    2.814280    3.753660
     47          6           0       -1.665040    0.789775    3.637289
     48          1           0       -1.630554    0.222658    4.559520
     49          6           0       -1.634024   -0.734715   -2.329482
     50          1           0       -1.634632   -1.753708   -1.974703
     51          6           0        1.784225    0.736929    4.213717
     52          1           0        1.885684    0.897546    5.280128
     53          6           0        1.889120    2.871751   -2.458627
     54          1           0        2.041259    3.944830   -2.462922
     55          6           0        1.780683   -0.555457    3.681257
     56          1           0        1.889314   -1.416649    4.329096
     57          6           0        1.889504    2.181907   -3.651931
     58          1           0        2.047988    2.705583   -4.586821
     59          6           0        1.652699    3.135728   -0.092139
     60          1           0        1.699413    4.184597   -0.368584
     61          6           0       -1.780341   -0.541617   -3.683402
     62          1           0       -1.888822   -1.400359   -4.334510
     63          6           0        1.567812    2.891873    1.229311
     64          1           0        1.548437    3.772912    1.863715
     65          6           0        1.477015    0.153459   -2.435372
     66          1           0        1.297379   -0.910279   -2.461673
     67          6           0        1.665339    0.803574   -3.634288
     68          1           0        1.631031    0.239950   -4.558666
 ---------------------------------------------------------------------

 Alpha  occ. eigenvalues --  -10.71198 -10.71196 -10.68567 -10.68567 -10.68562
 Alpha  occ. eigenvalues --  -10.68562 -10.68237 -10.68237 -10.68114 -10.68113
 Alpha  occ. eigenvalues --  -10.67007 -10.67006 -10.66578 -10.66578 -10.66473
 Alpha  occ. eigenvalues --  -10.66472 -10.66009 -10.66009 -10.65902 -10.65817
 Alpha  occ. eigenvalues --  -10.65816 -10.65766 -10.65766 -10.65752 -10.65752
 Alpha  occ. eigenvalues --  -10.65696 -10.65696 -10.65661 -10.65660 -10.65602
 Alpha  occ. eigenvalues --  -10.65602 -10.65578 -10.65578 -10.65509 -10.65509
 Alpha  occ. eigenvalues --  -10.65284 -10.65284 -10.65014 -10.65014 -10.64032
 Alpha  occ. eigenvalues --  -10.63934 -10.63291  -1.12498  -1.10264  -1.10135
 Alpha  occ. eigenvalues --   -1.08438  -1.07785  -1.05787  -1.04815  -1.02584
 Alpha  occ. eigenvalues --   -1.02105  -1.00833  -1.00529  -0.97944  -0.97630
 Alpha  occ. eigenvalues --   -0.96885  -0.96263  -0.95035  -0.93493  -0.93476
 Alpha  occ. eigenvalues --   -0.92818  -0.91898  -0.87476  -0.87384  -0.84977
 Alpha  occ. eigenvalues --   -0.84737  -0.83096  -0.81431  -0.81292  -0.79845
 Alpha  occ. eigenvalues --   -0.79737  -0.79528  -0.77563  -0.76413  -0.76194
 Alpha  occ. eigenvalues --   -0.75759  -0.75452  -0.73623  -0.70247  -0.69723
 Alpha  occ. eigenvalues --   -0.69103  -0.68520  -0.67745  -0.67624  -0.66957
 Alpha  occ. eigenvalues --   -0.66838  -0.65681  -0.65367  -0.65155  -0.64831
 Alpha  occ. eigenvalues --   -0.63333  -0.62961  -0.62355  -0.62179  -0.61193
 Alpha  occ. eigenvalues --   -0.61091  -0.60707  -0.60471  -0.60088  -0.60088
 Alpha  occ. eigenvalues --   -0.59592  -0.58937  -0.58788  -0.58146  -0.57834
 Alpha  occ. eigenvalues --   -0.57621  -0.56731  -0.55882  -0.55672  -0.55638
 Alpha  occ. eigenvalues --   -0.54992  -0.54039  -0.53159  -0.52838  -0.52669
 Alpha  occ. eigenvalues --   -0.52472  -0.52304  -0.52295  -0.51134  -0.51002
 Alpha  occ. eigenvalues --   -0.50967  -0.50912  -0.50350  -0.49493  -0.49287
 Alpha  occ. eigenvalues --   -0.48909  -0.48559  -0.47865  -0.44719  -0.44558
 Alpha  occ. eigenvalues --   -0.44126  -0.42866  -0.40498  -0.40422  -0.39286
 Alpha  occ. eigenvalues --   -0.38151  -0.37609  -0.37185  -0.32146
 Alpha virt. eigenvalues --   -0.19738  -0.15783  -0.15577  -0.14390  -0.10554
 Alpha virt. eigenvalues --   -0.09936  -0.08870  -0.08548  -0.08356  -0.07575
 Alpha virt. eigenvalues --   -0.07516  -0.07476  -0.06646  -0.06380  -0.06138

  Beta  occ. eigenvalues --  -10.71065 -10.71064 -10.68601 -10.68600 -10.68586
  Beta  occ. eigenvalues --  -10.68586 -10.68196 -10.68196 -10.68073 -10.68072
  Beta  occ. eigenvalues --  -10.67023 -10.67022 -10.66569 -10.66569 -10.66460
  Beta  occ. eigenvalues --  -10.66460 -10.65973 -10.65973 -10.65876 -10.65817
  Beta  occ. eigenvalues --  -10.65817 -10.65740 -10.65740 -10.65725 -10.65725
  Beta  occ. eigenvalues --  -10.65678 -10.65678 -10.65673 -10.65673 -10.65593
  Beta  occ. eigenvalues --  -10.65593 -10.65588 -10.65587 -10.65516 -10.65516
  Beta  occ. eigenvalues --  -10.65297 -10.65297 -10.65011 -10.65011 -10.64032
  Beta  occ. eigenvalues --  -10.63934 -10.63290  -1.12331  -1.10170  -1.09979
  Beta  occ. eigenvalues --   -1.08320  -1.07682  -1.05623  -1.04695  -1.02457
  Beta  occ. eigenvalues --   -1.01993  -1.00675  -1.00354  -0.97843  -0.97537
  Beta  occ. eigenvalues --   -0.96762  -0.96157  -0.94984  -0.93430  -0.93377
  Beta  occ. eigenvalues --   -0.92728  -0.91807  -0.87116  -0.87103  -0.84905
  Beta  occ. eigenvalues --   -0.84673  -0.83017  -0.81337  -0.81176  -0.79761
  Beta  occ. eigenvalues --   -0.79665  -0.79457  -0.77445  -0.76253  -0.76045
  Beta  occ. eigenvalues --   -0.75594  -0.75416  -0.73497  -0.70132  -0.69575
  Beta  occ. eigenvalues --   -0.68963  -0.68414  -0.67684  -0.67572  -0.66833
  Beta  occ. eigenvalues --   -0.66739  -0.65603  -0.65227  -0.65018  -0.64726
  Beta  occ. eigenvalues --   -0.63075  -0.62918  -0.62273  -0.62094  -0.60948
  Beta  occ. eigenvalues --   -0.60842  -0.60565  -0.60342  -0.60036  -0.60027
  Beta  occ. eigenvalues --   -0.59469  -0.58795  -0.58707  -0.58067  -0.57588
  Beta  occ. eigenvalues --   -0.57384  -0.56564  -0.55616  -0.55579  -0.55518
  Beta  occ. eigenvalues --   -0.54975  -0.53695  -0.53031  -0.52751  -0.52585
  Beta  occ. eigenvalues --   -0.52422  -0.52214  -0.52186  -0.50958  -0.50932
  Beta  occ. eigenvalues --   -0.50821  -0.50472  -0.49630  -0.49187  -0.48957
  Beta  occ. eigenvalues --   -0.48745  -0.48501  -0.47522  -0.44215  -0.44052
  Beta  occ. eigenvalues --   -0.43388  -0.42527  -0.40356  -0.40076  -0.38668
  Beta  occ. eigenvalues --   -0.37943  -0.37373  -0.37027
  Beta virt. eigenvalues --   -0.22229  -0.17518  -0.15524  -0.15518  -0.14420
  Beta virt. eigenvalues --   -0.10317  -0.09543  -0.08500  -0.08392  -0.08260
  Beta virt. eigenvalues --   -0.07573  -0.07565  -0.07224  -0.06626  -0.06328

 Mulliken charges and spin densities:
               1          2
     1  C    0.009575   0.305758
     2  C    0.009969   0.305755
     3  C    0.222822   0.006900
     4  C    0.109791   0.001356
     5  C    0.113052   0.005214
     6  C    0.011073  -0.029978
     7  C   -0.307355   0.001288
     8  H    0.176360  -0.000056
     9  C    0.237478  -0.036647
    10  C   -0.307479   0.001286
    11  H    0.176360  -0.000056
    12  C    0.113218   0.005207
    13  C    0.011098  -0.029978
    14  C    0.287572   0.051755
    15  C    0.322453  -0.045292
    16  C   -0.250474  -0.033338
    17  H    0.163848   0.001023
    18  C   -0.452406  -0.000981
    19  H    0.175838   0.000353
    20  C    0.211136   0.099239
    21  C   -0.135542   0.016056
    22  H    0.174449  -0.000262
    23  C    0.322571  -0.045276
    24  C    0.210772   0.099247
    25  C   -0.452145  -0.000981
    26  H    0.175836   0.000354
    27  C    0.287307   0.051771
    28  C   -0.072881   0.057183
    29  H    0.204933  -0.003253
    30  C   -0.288597   0.031967
    31  H    0.226288  -0.001823
    32  C   -0.375631   0.056342
    33  H    0.181797  -0.003000
    34  C   -0.135630   0.016046
    35  H    0.174437  -0.000262
    36  C   -0.052031  -0.050188
    37  H    0.162411   0.001426
    38  C    0.237552  -0.036604
    39  C   -0.281712   0.060894
    40  H    0.166902  -0.003829
    41  C   -0.232084   0.056233
    42  H    0.180338  -0.002749
    43  C   -0.274722   0.018502
    44  H    0.159623  -0.001051
    45  C   -0.052192  -0.050197
    46  H    0.162421   0.001426
    47  C   -0.127411  -0.024834
    48  H    0.169117  -0.000500
    49  C   -0.288924   0.031955
    50  H    0.226280  -0.001823
    51  C   -0.232221   0.056213
    52  H    0.180339  -0.002748
    53  C   -0.250978  -0.033349
    54  H    0.163851   0.001023
    55  C   -0.324510  -0.030477
    56  H    0.175182   0.000901
    57  C   -0.375792   0.056332
    58  H    0.181796  -0.002999
    59  C   -0.281297   0.060906
    60  H    0.166883  -0.003831
    61  C   -0.324482  -0.030474
    62  H    0.175183   0.000901
    63  C   -0.274395   0.018478
    64  H    0.159608  -0.001051
    65  C   -0.073008   0.057203
    66  H    0.204894  -0.003252
    67  C   -0.127629  -0.024853
    68  H    0.169120  -0.000500
 Sum of Mulliken charges =   1.00000   1.00000

 Dipole moment (field-independent basis, Debye):
    X=             -0.0003    Y=              2.4032    Z=              0.0045  Tot=              2.4032
 Quadrupole moment (field-independent basis, Debye-Ang):
   XX=           -222.5222   YY=           -175.0897   ZZ=           -176.2637
   XY=             -0.0008   XZ=             -1.8226   YZ=              0.0007

 Normal termination of Gaussian 16 at Fri Nov  8 17:15:55 2024.
