 Gaussian 16, Revision A.03,
 Gaussian 16:  ES64L-G16RevA.03 25-Dec-2016

 --------------------------------------------
 #p opt UM062X/6-311+G** nosymm int=superfine
 --------------------------------------------

 -------------------
 Title Card Required
 -------------------
 Symbolic Z-matrix:
 Charge =  0 Multiplicity = 1

 SCF Done:  E(UM062X) =  -382.325489486     A.U. after   12 cycles
 SCF Done:  E(UM062X) =  -382.332590635     A.U. after   10 cycles
 SCF Done:  E(UM062X) =  -382.334975551     A.U. after   10 cycles
 SCF Done:  E(UM062X) =  -382.334997547     A.U. after    9 cycles
 SCF Done:  E(UM062X) =  -382.335010303     A.U. after    9 cycles
 SCF Done:  E(UM062X) =  -382.335011126     A.U. after    8 cycles
 SCF Done:  E(UM062X) =  -382.335011230     A.U. after    7 cycles
 Optimization completed.
    -- Stationary point found.

                          Input orientation:
 ---------------------------------------------------------------------
 Center     Atomic      Atomic             Coordinates (Angstroms)
 Number     Number       Type             X           Y           Z
 ---------------------------------------------------------------------
      1          6           0       -1.406264    0.000000    0.000000
      2         15           0        1.406264    0.000000    0.000000
      3          1           0        1.391240   -1.418298    0.028798
      4          1           0       -1.583563    1.040952    0.233154
      5          1           0        1.391242    0.084184    1.416065
      6          1           0       -1.583518   -0.312578   -1.019927
      7          1           0       -1.597039   -0.723275    0.781237
 ---------------------------------------------------------------------

 Alpha  occ. eigenvalues --  -78.03180 -10.57567  -6.85506  -4.97033  -4.96982
 Alpha  occ. eigenvalues --   -4.96788  -0.77613  -0.69278  -0.49106  -0.49078
 Alpha  occ. eigenvalues --   -0.43561  -0.34834  -0.28049
 Alpha virt. eigenvalues --   -0.06153   0.01743   0.04006   0.04411   0.04744
 Alpha virt. eigenvalues --    0.06429   0.06795   0.07442   0.07568   0.12697
 Alpha virt. eigenvalues --    0.17530   0.18866   0.19153   0.25164   0.30118

  Beta  occ. eigenvalues --  -78.03180 -10.57567  -6.85506  -4.97033  -4.96982
  Beta  occ. eigenvalues --   -4.96788  -0.77613  -0.69278  -0.49106  -0.49078
  Beta  occ. eigenvalues --   -0.43561  -0.34834  -0.28049
  Beta virt. eigenvalues --   -0.06153   0.01743   0.04006   0.04411   0.04744
  Beta virt. eigenvalues --    0.06429   0.06795   0.07442   0.07568   0.12697
  Beta virt. eigenvalues --    0.17530   0.18866   0.19153   0.25164   0.30118

 Mulliken charges and spin densities:
               1          2
     1  C   -0.552742  -0.000000
     2  P   -0.023007   0.000000
     3  H    0.012567   0.000000
     4  H    0.183947   0.000000
     5  H    0.012578  -0.000000
     6  H    0.183961   0.000000
     7  H    0.182697  -0.000000
 Sum of Mulliken charges =  -0.00000  -0.00000

 Dipole moment (field-independent basis, Debye):
    X=             -0.8417    Y=             -0.5192    Z=              0.5624  Tot=              1.1376
 Quadrupole moment (field-independent basis, Debye-Ang):
   XX=            -22.7651   YY=            -22.1621   ZZ=            -22.2754
   XY=             -1.0897   XZ=              1.1802   YZ=              0.7094

 Normal termination of Gaussian 16 at Mon Apr 21 19:05:18 2025.
