 Gaussian 16, Revision A.03,
 Gaussian 16:  ES64L-G16RevA.03 25-Dec-2016

 --------------------------------------------
 #p opt UM062X/6-311+G** nosymm int=superfine
 --------------------------------------------

 -------------------
 Title Card Required
 -------------------
 Symbolic Z-matrix:
 Charge =  0 Multiplicity = 1

 SCF Done:  E(UM062X) =  -581.136170591     A.U. after    9 cycles
 SCF Done:  E(UM062X) =  -581.156636721     A.U. after    8 cycles
 SCF Done:  E(UM062X) =  -581.169844832     A.U. after    9 cycles
 SCF Done:  E(UM062X) =  -581.169864831     A.U. after    8 cycles
 Optimization completed.
    -- Stationary point found.

                          Input orientation:
 ---------------------------------------------------------------------
 Center     Atomic      Atomic             Coordinates (Angstroms)
 Number     Number       Type             X           Y           Z
 ---------------------------------------------------------------------
      1         14           0       -1.912518    0.000000    0.000000
      2         14           0        1.912518    0.000000    0.000000
      3          1           0       -2.984133   -1.080070    0.000515
      4          1           0        2.984133    1.080070   -0.000066
      5          1           0       -2.984139    1.080064    0.000764
      6          1           0        2.984139   -1.080063    0.001345
 ---------------------------------------------------------------------

 Alpha  occ. eigenvalues --  -67.00942 -67.00942  -5.55690  -5.55689  -3.86918
 Alpha  occ. eigenvalues --   -3.86918  -3.86382  -3.86382  -3.86255  -3.86255
 Alpha  occ. eigenvalues --   -0.57126  -0.56787  -0.37497  -0.37369  -0.30665
 Alpha  occ. eigenvalues --   -0.25491
 Alpha virt. eigenvalues --   -0.08628  -0.07002   0.02064   0.02096   0.03245
 Alpha virt. eigenvalues --    0.04544   0.05961   0.06202   0.06210   0.06299
 Alpha virt. eigenvalues --    0.09563   0.09817   0.11961   0.14279   0.28087

  Beta  occ. eigenvalues --  -67.00942 -67.00942  -5.55690  -5.55689  -3.86918
  Beta  occ. eigenvalues --   -3.86918  -3.86382  -3.86382  -3.86255  -3.86255
  Beta  occ. eigenvalues --   -0.57126  -0.56787  -0.37497  -0.37369  -0.30665
  Beta  occ. eigenvalues --   -0.25491
  Beta virt. eigenvalues --   -0.08628  -0.07002   0.02064   0.02096   0.03245
  Beta virt. eigenvalues --    0.04544   0.05961   0.06202   0.06210   0.06299
  Beta virt. eigenvalues --    0.09563   0.09817   0.11961   0.14279   0.28087

 Mulliken charges and spin densities:
               1          2
     1  Si   0.318055  -0.000000
     2  Si   0.318055   0.000000
     3  H   -0.159028   0.000000
     4  H   -0.159028  -0.000000
     5  H   -0.159028  -0.000000
     6  H   -0.159028  -0.000000
 Sum of Mulliken charges =  -0.00000  -0.00000

 Dipole moment (field-independent basis, Debye):
    X=              0.0000    Y=              0.0000    Z=              0.0001  Tot=              0.0001
 Quadrupole moment (field-independent basis, Debye-Ang):
   XX=            -37.5309   YY=            -32.8575   ZZ=            -24.4024
   XY=             -0.0000   XZ=              0.0000   YZ=              0.0023

 Normal termination of Gaussian 16 at Mon Apr 21 20:33:12 2025.
