 Gaussian 16, Revision A.03,
 Gaussian 16:  ES64L-G16RevA.03 25-Dec-2016

 --------------------------------------------
 #p opt UM062X/6-311+G** nosymm int=superfine
 --------------------------------------------

 -------------------
 Title Card Required
 -------------------
 Symbolic Z-matrix:
 Charge =  0 Multiplicity = 1

 SCF Done:  E(UM062X) =  -78.4342604019     A.U. after    8 cycles
 SCF Done:  E(UM062X) =  -78.4610672004     A.U. after    8 cycles
 SCF Done:  E(UM062X) =  -78.4726267930     A.U. after    8 cycles
 SCF Done:  E(UM062X) =  -78.4735872399     A.U. after    7 cycles
 SCF Done:  E(UM062X) =  -78.4736052884     A.U. after    7 cycles
 Optimization completed.
    -- Stationary point found.

                          Input orientation:
 ---------------------------------------------------------------------
 Center     Atomic      Atomic             Coordinates (Angstroms)
 Number     Number       Type             X           Y           Z
 ---------------------------------------------------------------------
      1          6           0       -0.855105    0.000000    0.000000
      2          6           0        0.855105    0.000000    0.000000
      3          1           0       -1.361021   -0.953448   -0.000000
      4          1           0       -1.361042    0.953372    0.000000
      5          1           0        1.361021    0.953448    0.000000
      6          1           0        1.361042   -0.953372    0.000000
 ---------------------------------------------------------------------

 Alpha  occ. eigenvalues --  -10.58815 -10.58788  -0.79794  -0.69550  -0.53031
 Alpha  occ. eigenvalues --   -0.47156  -0.42484  -0.28471
 Alpha virt. eigenvalues --   -0.03151   0.03371   0.03474   0.05373   0.07642
 Alpha virt. eigenvalues --    0.08616   0.09752   0.11785   0.15703   0.16735
 Alpha virt. eigenvalues --    0.18478   0.20923   0.23300   0.29172   0.41039

  Beta  occ. eigenvalues --  -10.58815 -10.58788  -0.79794  -0.69550  -0.53031
  Beta  occ. eigenvalues --   -0.47156  -0.42484  -0.28471
  Beta virt. eigenvalues --   -0.03151   0.03371   0.03474   0.05373   0.07642
  Beta virt. eigenvalues --    0.08616   0.09752   0.11785   0.15703   0.16735
  Beta virt. eigenvalues --    0.18478   0.20923   0.23300   0.29172   0.41039

 Mulliken charges and spin densities:
               1          2
     1  C   -0.337240  -0.000000
     2  C   -0.337240   0.000000
     3  H    0.168619   0.000000
     4  H    0.168621   0.000000
     5  H    0.168619  -0.000000
     6  H    0.168621   0.000000
 Sum of Mulliken charges =  -0.00000   0.00000

 Dipole moment (field-independent basis, Debye):
    X=             -0.0000    Y=              0.0000    Z=              0.0000  Tot=              0.0000
 Quadrupole moment (field-independent basis, Debye-Ang):
   XX=            -11.7632   YY=            -12.2072   ZZ=            -17.3556
   XY=             -0.0001   XZ=              0.0000   YZ=              0.0000

 Normal termination of Gaussian 16 at Tue Nov 19 10:49:33 2024.
