 Gaussian 16, Revision A.03,
 Gaussian 16:  ES64L-G16RevA.03 25-Dec-2016

 --------------------------------------------
 #p opt UM062X/6-311+G** nosymm int=superfine
 --------------------------------------------

 -------------------
 Title Card Required
 -------------------
 Symbolic Z-matrix:
 Charge =  1 Multiplicity = 2

 SCF Done:  E(UM062X) =  -1615.52966076     A.U. after   27 cycles
 SCF Done:  E(UM062X) =  -1615.57465419     A.U. after   21 cycles
 SCF Done:  E(UM062X) =  -1615.57330294     A.U. after   29 cycles
 SCF Done:  E(UM062X) =  -1615.57880830     A.U. after   24 cycles
 SCF Done:  E(UM062X) =  -1615.57032706     A.U. after   26 cycles
 SCF Done:  E(UM062X) =  -1615.57566522     A.U. after   24 cycles
 SCF Done:  E(UM062X) =  -1615.58280772     A.U. after   22 cycles
 SCF Done:  E(UM062X) =  -1615.58536702     A.U. after   26 cycles
 SCF Done:  E(UM062X) =  -1615.58549039     A.U. after   24 cycles
 SCF Done:  E(UM062X) =  -1615.58579750     A.U. after   22 cycles
 SCF Done:  E(UM062X) =  -1615.58594223     A.U. after   22 cycles
 SCF Done:  E(UM062X) =  -1615.58600621     A.U. after   20 cycles
 SCF Done:  E(UM062X) =  -1615.58601627     A.U. after   19 cycles
 SCF Done:  E(UM062X) =  -1615.58601823     A.U. after   18 cycles
 SCF Done:  E(UM062X) =  -1615.58601883     A.U. after   18 cycles
 SCF Done:  E(UM062X) =  -1615.58601908     A.U. after   18 cycles
 SCF Done:  E(UM062X) =  -1615.58601915     A.U. after   15 cycles
 SCF Done:  E(UM062X) =  -1615.58601918     A.U. after   14 cycles
 Optimization completed.
    -- Stationary point found.

                          Input orientation:
 ---------------------------------------------------------------------
 Center     Atomic      Atomic             Coordinates (Angstroms)
 Number     Number       Type             X           Y           Z
 ---------------------------------------------------------------------
      1          6           0       -1.526619   -0.000000   -0.000000
      2          6           0        1.526619   -0.000000    0.000000
      3          6           0       -0.000007   -2.084955    0.000347
      4          6           0        0.000003   -3.479261    0.000612
      5          6           0       -1.133365   -4.301179    0.217569
      6          6           0       -1.293110   -1.473383    0.188924
      7          6           0        0.663536   -5.695352   -0.128405
      8          1           0        1.290805   -6.566301   -0.253895
      9          6           0       -1.604561    0.781495    1.208517
     10          6           0       -0.663571   -5.695312    0.130181
     11          1           0       -1.290846   -6.566221    0.255918
     12          6           0        1.133350   -4.301246   -0.216126
     13          6           0        1.293064   -1.473432   -0.188517
     14          6           0        1.751851    2.204304   -1.304185
     15          6           0       -1.656795    0.386823   -1.381243
     16          6           0       -1.864818    2.801508    2.572931
     17          1           0       -1.993167    3.876749    2.619260
     18          6           0       -2.338238   -3.694745    0.455340
     19          1           0       -3.244809   -4.259766    0.638766
     20          6           0       -1.661460    1.725344   -1.896754
     21          6           0        2.391936   -2.275689   -0.426234
     22          1           0        3.355001   -1.793258   -0.559559
     23          6           0        1.656985    0.387164    1.381146
     24          6           0        1.661435    1.725802    1.896338
     25          6           0        2.338204   -3.694879   -0.454220
     26          1           0        3.244753   -4.259958   -0.637575
     27          6           0       -1.751913    2.204576    1.303716
     28          6           0       -1.500107    0.077399    2.443685
     29          1           0       -1.340614   -0.989864    2.428269
     30          6           0        1.745143   -0.659892    2.352718
     31          1           0        1.774669   -1.687431    2.023893
     32          6           0       -1.813102    2.073210    3.743097
     33          1           0       -1.913469    2.568649    4.701142
     34          6           0       -2.391982   -2.275550    0.426849
     35          1           0       -3.355065   -1.793087    0.559928
     36          6           0       -1.705723    1.927375   -3.291300
     37          1           0       -1.689725    2.947787   -3.656250
     38          6           0        1.604666    0.781210   -1.208671
     39          6           0       -1.728714    3.136649    0.207558
     40          1           0       -1.763178    4.176602    0.517513
     41          6           0       -1.791379    0.888489   -4.189207
     42          1           0       -1.844178    1.086790   -5.252847
     43          6           0       -1.657587    2.936638   -1.123299
     44          1           0       -1.633276    3.839804   -1.725691
     45          6           0        1.706178    1.928163    3.290813
     46          1           0        1.690022    2.948647    3.655553
     47          6           0       -1.607946    0.694003    3.669905
     48          1           0       -1.529359    0.101706    4.573466
     49          6           0       -1.744533   -0.660466   -2.352625
     50          1           0       -1.774026   -1.687939   -2.023592
     51          6           0        1.792400    0.889494    4.188921
     52          1           0        1.845548    1.088053    5.252496
     53          6           0        1.865218    2.800917   -2.573491
     54          1           0        1.993479    3.876157   -2.620062
     55          6           0        1.828943   -0.422486    3.703092
     56          1           0        1.918864   -1.257936    4.386612
     57          6           0        1.813973    2.072308   -3.743494
     58          1           0        1.914744    2.567511   -4.701620
     59          6           0        1.727780    3.136661   -0.208272
     60          1           0        1.761529    4.176551   -0.518518
     61          6           0       -1.827926   -0.423384   -3.703077
     62          1           0       -1.917487   -1.259008   -4.386433
     63          6           0        1.656645    2.936928    1.122615
     64          1           0        1.631565    3.840203    1.724814
     65          6           0        1.500546    0.076819   -2.443701
     66          1           0        1.341031   -0.990435   -2.428066
     67          6           0        1.608745    0.693133   -3.670038
     68          1           0        1.530358    0.100634   -4.573484
 ---------------------------------------------------------------------

 Alpha  occ. eigenvalues --  -10.70741 -10.70740 -10.68623 -10.68622 -10.68587
 Alpha  occ. eigenvalues --  -10.68587 -10.68246 -10.68246 -10.68219 -10.68218
 Alpha  occ. eigenvalues --  -10.67276 -10.67272 -10.66919 -10.66678 -10.66678
 Alpha  occ. eigenvalues --  -10.66574 -10.66574 -10.65954 -10.65954 -10.65838
 Alpha  occ. eigenvalues --  -10.65837 -10.65736 -10.65736 -10.65732 -10.65732
 Alpha  occ. eigenvalues --  -10.65612 -10.65612 -10.65610 -10.65609 -10.65544
 Alpha  occ. eigenvalues --  -10.65544 -10.65437 -10.65437 -10.65353 -10.65353
 Alpha  occ. eigenvalues --  -10.65323 -10.65323 -10.64901 -10.64901 -10.63846
 Alpha  occ. eigenvalues --  -10.63746 -10.63616  -1.11997  -1.10299  -1.10077
 Alpha  occ. eigenvalues --   -1.08331  -1.07799  -1.05389  -1.04949  -1.02536
 Alpha  occ. eigenvalues --   -1.02127  -1.00992  -1.00295  -0.97950  -0.97643
 Alpha  occ. eigenvalues --   -0.96762  -0.96294  -0.94925  -0.93537  -0.93480
 Alpha  occ. eigenvalues --   -0.92851  -0.91770  -0.87379  -0.87233  -0.84992
 Alpha  occ. eigenvalues --   -0.84800  -0.83067  -0.81500  -0.80918  -0.79788
 Alpha  occ. eigenvalues --   -0.79689  -0.79536  -0.77403  -0.76346  -0.76179
 Alpha  occ. eigenvalues --   -0.75865  -0.75369  -0.73387  -0.70195  -0.69644
 Alpha  occ. eigenvalues --   -0.68878  -0.68548  -0.67757  -0.67659  -0.66919
 Alpha  occ. eigenvalues --   -0.66882  -0.65731  -0.65363  -0.65220  -0.64724
 Alpha  occ. eigenvalues --   -0.63236  -0.62805  -0.62400  -0.62124  -0.60996
 Alpha  occ. eigenvalues --   -0.60979  -0.60536  -0.60410  -0.60110  -0.60042
 Alpha  occ. eigenvalues --   -0.59556  -0.58834  -0.58820  -0.58120  -0.57714
 Alpha  occ. eigenvalues --   -0.57499  -0.57019  -0.55977  -0.55663  -0.55659
 Alpha  occ. eigenvalues --   -0.54944  -0.53978  -0.53035  -0.52849  -0.52633
 Alpha  occ. eigenvalues --   -0.52397  -0.52368  -0.52181  -0.51027  -0.50951
 Alpha  occ. eigenvalues --   -0.50916  -0.50888  -0.49775  -0.49531  -0.49507
 Alpha  occ. eigenvalues --   -0.48660  -0.48457  -0.47880  -0.45405  -0.44732
 Alpha  occ. eigenvalues --   -0.44009  -0.42783  -0.40518  -0.40424  -0.39283
 Alpha  occ. eigenvalues --   -0.38160  -0.37535  -0.37071  -0.30705
 Alpha virt. eigenvalues --   -0.20965  -0.16031  -0.15521  -0.14338  -0.10686
 Alpha virt. eigenvalues --   -0.09983  -0.08926  -0.08556  -0.08356  -0.07556
 Alpha virt. eigenvalues --   -0.07542  -0.07434  -0.06652  -0.06334  -0.06154

  Beta  occ. eigenvalues --  -10.70589 -10.70589 -10.68668 -10.68668 -10.68626
  Beta  occ. eigenvalues --  -10.68626 -10.68206 -10.68206 -10.68173 -10.68173
  Beta  occ. eigenvalues --  -10.67295 -10.67291 -10.66890 -10.66674 -10.66674
  Beta  occ. eigenvalues --  -10.66566 -10.66566 -10.65915 -10.65915 -10.65804
  Beta  occ. eigenvalues --  -10.65803 -10.65702 -10.65701 -10.65700 -10.65700
  Beta  occ. eigenvalues --  -10.65630 -10.65630 -10.65629 -10.65628 -10.65543
  Beta  occ. eigenvalues --  -10.65543 -10.65451 -10.65451 -10.65341 -10.65341
  Beta  occ. eigenvalues --  -10.65340 -10.65340 -10.64899 -10.64899 -10.63846
  Beta  occ. eigenvalues --  -10.63746 -10.63613  -1.11846  -1.10134  -1.09997
  Beta  occ. eigenvalues --   -1.08223  -1.07706  -1.05226  -1.04811  -1.02422
  Beta  occ. eigenvalues --   -1.02029  -1.00817  -1.00129  -0.97847  -0.97550
  Beta  occ. eigenvalues --   -0.96650  -0.96199  -0.94879  -0.93470  -0.93386
  Beta  occ. eigenvalues --   -0.92782  -0.91686  -0.87083  -0.86878  -0.84926
  Beta  occ. eigenvalues --   -0.84740  -0.82989  -0.81405  -0.80815  -0.79705
  Beta  occ. eigenvalues --   -0.79622  -0.79465  -0.77297  -0.76198  -0.76027
  Beta  occ. eigenvalues --   -0.75705  -0.75331  -0.73269  -0.70079  -0.69500
  Beta  occ. eigenvalues --   -0.68754  -0.68435  -0.67711  -0.67614  -0.66798
  Beta  occ. eigenvalues --   -0.66772  -0.65648  -0.65216  -0.65079  -0.64628
  Beta  occ. eigenvalues --   -0.63048  -0.62756  -0.62319  -0.62051  -0.60850
  Beta  occ. eigenvalues --   -0.60730  -0.60406  -0.60180  -0.60049  -0.59989
  Beta  occ. eigenvalues --   -0.59423  -0.58730  -0.58705  -0.58050  -0.57562
  Beta  occ. eigenvalues --   -0.57212  -0.56755  -0.55698  -0.55618  -0.55609
  Beta  occ. eigenvalues --   -0.54919  -0.53675  -0.52932  -0.52766  -0.52568
  Beta  occ. eigenvalues --   -0.52293  -0.52260  -0.52152  -0.50964  -0.50874
  Beta  occ. eigenvalues --   -0.50803  -0.50459  -0.49487  -0.49363  -0.48877
  Beta  occ. eigenvalues --   -0.48399  -0.48162  -0.47588  -0.44727  -0.44205
  Beta  occ. eigenvalues --   -0.43291  -0.42435  -0.40359  -0.40172  -0.38699
  Beta  occ. eigenvalues --   -0.38039  -0.37248  -0.36992
  Beta virt. eigenvalues --   -0.21034  -0.18091  -0.15858  -0.15491  -0.14395
  Beta virt. eigenvalues --   -0.10360  -0.09576  -0.08549  -0.08507  -0.08089
  Beta virt. eigenvalues --   -0.07601  -0.07569  -0.07222  -0.06636  -0.06268

 Mulliken charges and spin densities:
               1          2
     1  C    0.028778   0.378626
     2  C    0.028845   0.378668
     3  C    0.306048   0.013768
     4  C    0.206600  -0.009885
     5  C    0.142551   0.006105
     6  C   -0.028692  -0.036380
     7  C   -0.307274   0.000720
     8  H    0.176075  -0.000016
     9  C    0.107179  -0.056502
    10  C   -0.307303   0.000720
    11  H    0.176075  -0.000016
    12  C    0.142601   0.006093
    13  C   -0.028643  -0.036383
    14  C    0.513426   0.026822
    15  C    0.395865  -0.087233
    16  C   -0.403370  -0.032780
    17  H    0.165634   0.001140
    18  C   -0.505743   0.001966
    19  H    0.175782   0.000168
    20  C    0.242558   0.108373
    21  C   -0.089373   0.023043
    22  H    0.175624  -0.000309
    23  C    0.395946  -0.087241
    24  C    0.242093   0.108379
    25  C   -0.505664   0.001965
    26  H    0.175778   0.000168
    27  C    0.513886   0.026936
    28  C    0.000327   0.082010
    29  H    0.209384  -0.004283
    30  C   -0.262847   0.038452
    31  H    0.225428  -0.003059
    32  C   -0.403505   0.058374
    33  H    0.182429  -0.003303
    34  C   -0.089344   0.023022
    35  H    0.175605  -0.000309
    36  C   -0.020120  -0.061400
    37  H    0.160434   0.001521
    38  C    0.107307  -0.056437
    39  C   -0.317715   0.056585
    40  H    0.164906  -0.002973
    41  C   -0.230857   0.070440
    42  H    0.180907  -0.003637
    43  C   -0.348744   0.011287
    44  H    0.160490  -0.000533
    45  C   -0.020385  -0.061396
    46  H    0.160443   0.001521
    47  C   -0.038525  -0.041336
    48  H    0.168251   0.000063
    49  C   -0.262897   0.038439
    50  H    0.225437  -0.003060
    51  C   -0.231170   0.070366
    52  H    0.180909  -0.003632
    53  C   -0.403580  -0.032741
    54  H    0.165633   0.001139
    55  C   -0.551572  -0.035306
    56  H    0.176063   0.001356
    57  C   -0.403815   0.058355
    58  H    0.182427  -0.003302
    59  C   -0.316663   0.056642
    60  H    0.164861  -0.002975
    61  C   -0.552289  -0.035333
    62  H    0.176067   0.001357
    63  C   -0.348203   0.011281
    64  H    0.160436  -0.000534
    65  C    0.000256   0.082029
    66  H    0.209372  -0.004284
    67  C   -0.038678  -0.041386
    68  H    0.168253   0.000063
 Sum of Mulliken charges =   1.00000   1.00000

 Dipole moment (field-independent basis, Debye):
    X=              0.0005    Y=              2.4832    Z=             -0.0005  Tot=              2.4832
 Quadrupole moment (field-independent basis, Debye-Ang):
   XX=           -222.4846   YY=           -174.9305   ZZ=           -176.2055
   XY=             -0.0046   XZ=             -0.5805   YZ=             -0.0009

 Normal termination of Gaussian 16 at Fri Nov  8 01:08:11 2024.
