 Gaussian 16, Revision A.03,
 Gaussian 16:  ES64L-G16RevA.03 25-Dec-2016

 ---------------------------------------
 #p UM062X/6-311+G** force int=superfine
 ---------------------------------------

 -------------------
 Title Card Required
 -------------------
 Symbolic Z-matrix:
 Charge =  1 Multiplicity = 2

                         Standard orientation:
 ---------------------------------------------------------------------
 Center     Atomic      Atomic             Coordinates (Angstroms)
 Number     Number       Type             X           Y           Z
 ---------------------------------------------------------------------
      1          6           0       -0.638144   -0.070277   -0.000089
      2          6           0        0.638144    0.070276    0.000052
      3          1           0        1.082328    1.062993   -0.000114
      4          1           0       -1.182293    0.600159    0.751309
      5          1           0        1.182343   -0.600315   -0.751142
      6          1           0        1.182385   -0.600314    0.751074
      7          1           0       -1.082329   -1.062994   -0.000010
      8          1           0       -1.182440    0.600477   -0.750896
 ---------------------------------------------------------------------

 SCF Done:  E(UM062X) =  -79.3471278337     A.U. after   10 cycles

 The electronic state is 2-A.
 Alpha  occ. eigenvalues --  -10.81607 -10.81466  -1.20321  -0.99882  -0.83417
 Alpha  occ. eigenvalues --   -0.79511  -0.78807  -0.69011  -0.63158
 Alpha virt. eigenvalues --   -0.16189  -0.13832  -0.12736  -0.12010  -0.08607
 Alpha virt. eigenvalues --   -0.07217  -0.06810  -0.06684  -0.05074  -0.02287
 Alpha virt. eigenvalues --   -0.01051  -0.00675   0.06131   0.06459   0.12106

  Beta  occ. eigenvalues --  -10.81532 -10.81380  -1.18656  -0.96126  -0.82462
  Beta  occ. eigenvalues --   -0.77644  -0.73259  -0.67547
  Beta virt. eigenvalues --   -0.43157  -0.16233  -0.13864  -0.12413  -0.12048
  Beta virt. eigenvalues --   -0.08630  -0.06932  -0.06681  -0.04922  -0.04892
  Beta virt. eigenvalues --   -0.01886  -0.00914  -0.00508   0.06250   0.06963

 Mulliken charges and spin densities:
               1          2
     1  C   -0.402143   0.159155
     2  C   -0.402154   0.159147
     3  H    0.254568  -0.009880
     4  H    0.323823   0.175524
     5  H    0.323814   0.175466
     6  H    0.323765   0.175262
     7  H    0.254569  -0.009881
     8  H    0.323757   0.175206
 Sum of Mulliken charges =   1.00000   1.00000

 Dipole moment (field-independent basis, Debye):
    X=             -0.0000    Y=              0.0000    Z=              0.0004  Tot=              0.0004
 Quadrupole moment (field-independent basis, Debye-Ang):
   XX=             -6.3870   YY=            -10.0307   ZZ=            -11.1926
   XY=             -1.7550   XZ=             -0.0015   YZ=              0.0004

 Normal termination of Gaussian 16 at Tue Nov 19 08:41:24 2024.
