 Gaussian 16, Revision A.03,
 Gaussian 16:  ES64L-G16RevA.03 25-Dec-2016

 --------------------------------------------
 #p opt UM062X/6-311+G** nosymm int=superfine
 --------------------------------------------

 -------------------
 Title Card Required
 -------------------
 Symbolic Z-matrix:
 Charge =  0 Multiplicity = 1

 SCF Done:  E(UM062X) =  -51.7711821395     A.U. after   10 cycles
 SCF Done:  E(UM062X) =  -51.7767474121     A.U. after    9 cycles
 SCF Done:  E(UM062X) =  -51.7802936933     A.U. after   11 cycles
 SCF Done:  E(UM062X) =  -51.7802975025     A.U. after   11 cycles
 SCF Done:  E(UM062X) =  -51.7802973939     A.U. after    8 cycles
 SCF Done:  E(UM062X) =  -51.7802975085     A.U. after   10 cycles
 Optimization completed.
    -- Stationary point found.

                          Input orientation:
 ---------------------------------------------------------------------
 Center     Atomic      Atomic             Coordinates (Angstroms)
 Number     Number       Type             X           Y           Z
 ---------------------------------------------------------------------
      1          5           0       -2.345607    0.000000    0.000000
      2          5           0        2.345607    0.000000    0.000000
      3          1           0       -2.794721   -1.090692    0.000003
      4          1           0        2.794721    1.090676   -0.005870
      5          1           0       -2.794724    1.090691   -0.000007
      6          1           0        2.794724   -1.090675    0.005865
 ---------------------------------------------------------------------

 Alpha  occ. eigenvalues --   -7.11688  -7.11687  -0.58115  -0.57962  -0.45568
 Alpha  occ. eigenvalues --   -0.45541  -0.18857
 Alpha virt. eigenvalues --   -0.09201  -0.05169  -0.04568   0.02209   0.02995
 Alpha virt. eigenvalues --    0.03826   0.05278   0.06073   0.07104   0.08361
 Alpha virt. eigenvalues --    0.09928   0.14952   0.15572   0.17349   0.22707

  Beta  occ. eigenvalues --   -7.11688  -7.11687  -0.58115  -0.57962  -0.45568
  Beta  occ. eigenvalues --   -0.45541  -0.18857
  Beta virt. eigenvalues --   -0.09201  -0.05169  -0.04568   0.02209   0.02995
  Beta virt. eigenvalues --    0.03826   0.05278   0.06073   0.07104   0.08361
  Beta virt. eigenvalues --    0.09928   0.14952   0.15572   0.17349   0.22707

 Mulliken charges and spin densities:
               1          2
     1  B   -0.066136   0.000000
     2  B   -0.066136  -0.000000
     3  H    0.033068   0.000000
     4  H    0.033068  -0.000000
     5  H    0.033068   0.000000
     6  H    0.033068  -0.000000
 Sum of Mulliken charges =  -0.00000   0.00000

 Dipole moment (field-independent basis, Debye):
    X=              0.0000    Y=             -0.0000    Z=             -0.0000  Tot=              0.0000
 Quadrupole moment (field-independent basis, Debye-Ang):
   XX=             -9.5429   YY=            -16.9911   ZZ=            -14.7019
   XY=             -0.0000   XZ=              0.0000   YZ=              0.0062

 Normal termination of Gaussian 16 at Mon Apr 21 17:19:38 2025.
