 Gaussian 16, Revision A.03,
 Gaussian 16:  ES64L-G16RevA.03 25-Dec-2016

 --------------------------------------------
 #p opt UM062X/6-311+G** nosymm int=superfine
 --------------------------------------------

 -------------------
 Title Card Required
 -------------------
 Symbolic Z-matrix:
 Charge =  1 Multiplicity = 2

 SCF Done:  E(UM062X) =  -54.7126004512     A.U. after   39 cycles
 SCF Done:  E(UM062X) =  -54.7146238673     A.U. after   13 cycles
 SCF Done:  E(UM062X) =  -54.7146514192     A.U. after   10 cycles
 Optimization completed.
    -- Stationary point found.

                          Input orientation:
 ---------------------------------------------------------------------
 Center     Atomic      Atomic             Coordinates (Angstroms)
 Number     Number       Type             X           Y           Z
 ---------------------------------------------------------------------
      1          7           0        0.624963   -0.000000    0.000000
      2          1           0        1.699021    0.000002    0.000000
 ---------------------------------------------------------------------

 Alpha  occ. eigenvalues --  -15.39285  -1.39186  -0.92900  -0.88391
 Alpha virt. eigenvalues --   -0.58055  -0.22922  -0.11566  -0.10556  -0.10511
 Alpha virt. eigenvalues --   -0.07473   0.22280   0.41181   0.43314   0.45403
 Alpha virt. eigenvalues --    0.58234   0.89384   0.89737   1.45589   1.48853

  Beta  occ. eigenvalues --  -15.37498  -1.32013  -0.89548
  Beta virt. eigenvalues --   -0.54735  -0.49425  -0.22040  -0.11568  -0.10137
  Beta virt. eigenvalues --   -0.09011  -0.07223   0.23783   0.41257   0.45097
  Beta virt. eigenvalues --    0.46037   0.59528   0.93218   0.94567   1.47598

 Mulliken charges and spin densities:
               1          2
     1  N    0.633792   1.033290
     2  H    0.366208  -0.033290
 Sum of Mulliken charges =   1.00000   1.00000

 Dipole moment (field-independent basis, Debye):
    X=              5.4545    Y=              0.0000    Z=              0.0000  Tot=              5.4545
 Quadrupole moment (field-independent basis, Debye-Ang):
   XX=              2.2464   YY=             -3.5508   ZZ=             -4.6595
   XY=              0.0000   XZ=              0.0000   YZ=             -0.0243

 Normal termination of Gaussian 16 at Wed Apr 16 07:42:28 2025.
