 Gaussian 16, Revision A.03,
 Gaussian 16:  ES64L-G16RevA.03 25-Dec-2016

 --------------------------------------------
 #p opt UM062X/6-311+G** nosymm int=superfine
 --------------------------------------------

 -------------------
 Title Card Required
 -------------------
 Symbolic Z-matrix:
 Charge =  0 Multiplicity = 1

 SCF Done:  E(UM062X) =  -151.385950015     A.U. after   14 cycles
 SCF Done:  E(UM062X) =  -151.390368909     A.U. after   18 cycles
 SCF Done:  E(UM062X) =  -151.393637323     A.U. after   20 cycles
 SCF Done:  E(UM062X) =  -151.393741932     A.U. after   18 cycles
 SCF Done:  E(UM062X) =  -151.393769948     A.U. after   18 cycles
 SCF Done:  E(UM062X) =  -151.393770900     A.U. after   12 cycles
 Optimization completed.
    -- Stationary point found.

                          Input orientation:
 ---------------------------------------------------------------------
 Center     Atomic      Atomic             Coordinates (Angstroms)
 Number     Number       Type             X           Y           Z
 ---------------------------------------------------------------------
      1          8           0       -1.211938    0.000000    0.000000
      2          8           0        1.211938    0.000000    0.000000
      3          1           0       -1.091399   -0.777584   -0.572654
      4          1           0        1.091366    0.776739    0.573793
 ---------------------------------------------------------------------

 Alpha  occ. eigenvalues --  -19.72669 -19.72666  -1.13889  -1.11499  -0.57421
 Alpha  occ. eigenvalues --   -0.55723  -0.44809  -0.42967  -0.41446
 Alpha virt. eigenvalues --   -0.21128   0.05570   0.09280   0.14705   0.15761
 Alpha virt. eigenvalues --    0.17577   0.19472   0.21380   0.22660   0.25290
 Alpha virt. eigenvalues --    0.33170   0.49097   0.53357   0.93156   0.97653

  Beta  occ. eigenvalues --  -19.72669 -19.72666  -1.13889  -1.11499  -0.57421
  Beta  occ. eigenvalues --   -0.55723  -0.44809  -0.42967  -0.41446
  Beta virt. eigenvalues --   -0.21128   0.05570   0.09280   0.14705   0.15761
  Beta virt. eigenvalues --    0.17577   0.19472   0.21380   0.22660   0.25290
  Beta virt. eigenvalues --    0.33170   0.49097   0.53357   0.93156   0.97653

 Mulliken charges and spin densities:
               1          2
     1  O   -0.272223  -0.000000
     2  O   -0.272217   0.000000
     3  H    0.272220   0.000000
     4  H    0.272221  -0.000000
 Sum of Mulliken charges =   0.00000   0.00000

 Dipole moment (field-independent basis, Debye):
    X=             -0.0000    Y=             -0.0016    Z=              0.0022  Tot=              0.0028
 Quadrupole moment (field-independent basis, Debye-Ang):
   XX=            -12.0052   YY=            -10.3176   ZZ=            -11.8441
   XY=              3.5235   XZ=              2.5989   YZ=              2.4692

 Normal termination of Gaussian 16 at Mon Apr 21 21:35:51 2025.
