 Gaussian 16, Revision A.03,
 Gaussian 16:  ES64L-G16RevA.03 25-Dec-2016

 --------------------------------------------
 #p opt UM062X/6-311+G** nosymm int=superfine
 --------------------------------------------

 -------------------
 Title Card Required
 -------------------
 Symbolic Z-matrix:
 Charge =  0 Multiplicity = 1

 SCF Done:  E(UM062X) =  -83.1238459738     A.U. after   10 cycles
 SCF Done:  E(UM062X) =  -83.1391483739     A.U. after    9 cycles
 SCF Done:  E(UM062X) =  -83.1424005884     A.U. after    9 cycles
 SCF Done:  E(UM062X) =  -83.1424226577     A.U. after    7 cycles
 Optimization completed.
    -- Stationary point found.

                          Input orientation:
 ---------------------------------------------------------------------
 Center     Atomic      Atomic             Coordinates (Angstroms)
 Number     Number       Type             X           Y           Z
 ---------------------------------------------------------------------
      1          5           0       -1.777429    0.000000    0.000000
      2          7           0        1.777429    0.000000    0.000000
      3          1           0        2.140803   -0.945525   -0.000003
      4          1           0       -1.794045   -0.594036    1.028859
      5          1           0        2.140695    0.472817   -0.818869
      6          1           0        2.140682    0.472808    0.818880
      7          1           0       -1.794048    1.188033    0.000019
      8          1           0       -1.794062   -0.594005   -1.028876
 ---------------------------------------------------------------------

 Alpha  occ. eigenvalues --  -14.73175  -7.03983  -0.96383  -0.57175  -0.54222
 Alpha  occ. eigenvalues --   -0.54222  -0.39608  -0.39608  -0.34542
 Alpha virt. eigenvalues --   -0.01800   0.02403   0.04804   0.04804   0.05355
 Alpha virt. eigenvalues --    0.08473   0.10827   0.10827   0.17743   0.17765
 Alpha virt. eigenvalues --    0.17766   0.19432   0.19432   0.22936   0.27689

  Beta  occ. eigenvalues --  -14.73175  -7.03983  -0.96383  -0.57175  -0.54222
  Beta  occ. eigenvalues --   -0.54222  -0.39608  -0.39608  -0.34542
  Beta virt. eigenvalues --   -0.01800   0.02403   0.04804   0.04804   0.05355
  Beta virt. eigenvalues --    0.08473   0.10827   0.10827   0.17743   0.17765
  Beta virt. eigenvalues --    0.17766   0.19432   0.19432   0.22936   0.27689

 Mulliken charges and spin densities:
               1          2
     1  B    0.015412  -0.000000
     2  N   -0.734163   0.000000
     3  H    0.247345  -0.000000
     4  H   -0.007759   0.000000
     5  H    0.247345  -0.000000
     6  H    0.247345  -0.000000
     7  H   -0.007765   0.000000
     8  H   -0.007759   0.000000
 Sum of Mulliken charges =  -0.00000   0.00000

 Dipole moment (field-independent basis, Debye):
    X=              2.0410    Y=              0.0001    Z=              0.0000  Tot=              2.0410
 Quadrupole moment (field-independent basis, Debye-Ang):
   XX=            -10.6286   YY=            -15.6738   ZZ=            -15.6739
   XY=              0.0001   XZ=             -0.0000   YZ=              0.0000

 Normal termination of Gaussian 16 at Mon Apr 21 17:34:52 2025.
