 Gaussian 16, Revision A.03,
 Gaussian 16:  ES64L-G16RevA.03 25-Dec-2016

 ---------------------------------------
 #p UM062X/6-311+G** force int=superfine
 ---------------------------------------

 -------------------
 Title Card Required
 -------------------
 Symbolic Z-matrix:
 Charge =  0 Multiplicity = 1

                         Standard orientation:
 ---------------------------------------------------------------------
 Center     Atomic      Atomic             Coordinates (Angstroms)
 Number     Number       Type             X           Y           Z
 ---------------------------------------------------------------------
      1          6           0       -0.488695   -0.000014    0.000001
      2          6           0        0.488695    0.000014   -0.000002
      3          1           0        1.031079    0.976074   -0.057915
      4          1           0       -1.031104    0.538200    0.816327
      5          1           0        1.031104   -0.538203   -0.816325
      6          1           0        1.031112   -0.437884    0.874239
      7          1           0       -1.031079   -0.976074    0.057919
      8          1           0       -1.031112    0.437886   -0.874238
 ---------------------------------------------------------------------

 SCF Done:  E(UM062X) =  -79.3467240344     A.U. after   10 cycles

 The electronic state is 1-A.
 Alpha  occ. eigenvalues --  -10.50551 -10.48951  -0.99366  -0.66762  -0.58568
 Alpha  occ. eigenvalues --   -0.58567  -0.54734  -0.31961  -0.31960
 Alpha virt. eigenvalues --    0.01891   0.04006   0.04006   0.04103   0.08537
 Alpha virt. eigenvalues --    0.09058   0.09058   0.14269   0.16965   0.16965
 Alpha virt. eigenvalues --    0.20876   0.20877   0.23712   0.27447   0.41310

  Beta  occ. eigenvalues --  -10.50551 -10.48951  -0.99366  -0.66762  -0.58568
  Beta  occ. eigenvalues --   -0.58567  -0.54734  -0.31961  -0.31960
  Beta virt. eigenvalues --    0.01891   0.04006   0.04006   0.04103   0.08537
  Beta virt. eigenvalues --    0.09058   0.09058   0.14269   0.16965   0.16965
  Beta virt. eigenvalues --    0.20876   0.20877   0.23712   0.27447   0.41310

 Mulliken charges and spin densities:
               1          2
     1  C   -0.405330  -0.000000
     2  C   -0.405330   0.000000
     3  H    0.135113  -0.000000
     4  H    0.135109   0.000000
     5  H    0.135109  -0.000000
     6  H    0.135108   0.000000
     7  H    0.135113   0.000000
     8  H    0.135108   0.000000
 Sum of Mulliken charges =  -0.00000  -0.00000

 Dipole moment (field-independent basis, Debye):
    X=              0.0000    Y=             -0.0000    Z=              0.0000  Tot=              0.0000
 Quadrupole moment (field-independent basis, Debye-Ang):
   XX=            -15.7221   YY=            -14.9568   ZZ=            -14.9572
   XY=              0.0000   XZ=              0.0000   YZ=             -0.0000

 Normal termination of Gaussian 16 at Tue Nov 19 12:34:57 2024.
