 Gaussian 16, Revision A.03,
 Gaussian 16:  ES64L-G16RevA.03 25-Dec-2016

 --------------------------------------------
 #p opt UM062X/6-311+G** nosymm int=superfine
 --------------------------------------------

 -------------------
 Title Card Required
 -------------------
 Symbolic Z-matrix:
 Charge =  1 Multiplicity = 2

 SCF Done:  E(UM062X) =  -92.6526743692     A.U. after   19 cycles
 SCF Done:  E(UM062X) =  -92.6530325065     A.U. after   14 cycles
 SCF Done:  E(UM062X) =  -92.6530335148     A.U. after   22 cycles
 Optimization completed.
    -- Stationary point found.

                          Input orientation:
 ---------------------------------------------------------------------
 Center     Atomic      Atomic             Coordinates (Angstroms)
 Number     Number       Type             X           Y           Z
 ---------------------------------------------------------------------
      1          6           0       -0.976540    0.000000    0.000000
      2          7           0        0.976540    0.000000    0.000000
      3          1           0       -2.095851   -0.000000    0.000000
 ---------------------------------------------------------------------

 Alpha  occ. eigenvalues --  -15.23347 -11.09034  -1.19779  -1.06983  -0.77855
 Alpha  occ. eigenvalues --   -0.71705  -0.63846
 Alpha virt. eigenvalues --   -0.43435  -0.43307  -0.37834  -0.16228  -0.11537
 Alpha virt. eigenvalues --   -0.10407  -0.09901  -0.05485  -0.02031  -0.01529
 Alpha virt. eigenvalues --    0.01052   0.07807   0.23664   0.29376   0.29414

  Beta  occ. eigenvalues --  -15.22280 -11.09024  -1.13870  -1.05397  -0.76598
  Beta  occ. eigenvalues --   -0.63022
  Beta virt. eigenvalues --   -0.44517  -0.42007  -0.34778  -0.34618  -0.16568
  Beta virt. eigenvalues --   -0.11926  -0.10341  -0.10212  -0.05891  -0.02272
  Beta virt. eigenvalues --   -0.01934   0.01079   0.06179   0.23664   0.28932

 Mulliken charges and spin densities:
               1          2
     1  C    0.250495   0.155865
     2  N    0.397431   0.867405
     3  H    0.352074  -0.023271
 Sum of Mulliken charges =   1.00000   1.00000

 Dipole moment (field-independent basis, Debye):
    X=             -4.1734    Y=             -0.0000    Z=              0.0000  Tot=              4.1734
 Quadrupole moment (field-independent basis, Debye-Ang):
   XX=              1.2243   YY=            -11.2677   ZZ=             -9.4390
   XY=              0.0000   XZ=             -0.0000   YZ=             -0.4497

 Normal termination of Gaussian 16 at Mon Apr 21 18:33:36 2025.
