 Gaussian 16, Revision A.03,
 Gaussian 16:  ES64L-G16RevA.03 25-Dec-2016

 ---------------------------------------------------------
 #p opt UM062X/6-311+G** nosymm int=superfine SCF=NoVarAcc
 ---------------------------------------------------------

 -------------------
 Title Card Required
 -------------------
 Symbolic Z-matrix:
 Charge =  0 Multiplicity = 1

 SCF Done:  E(UM062X) =  -76.9390740290     A.U. after   52 cycles
 SCF Done:  E(UM062X) =  -76.9390905343     A.U. after    8 cycles
 Optimization completed.
    -- Stationary point found.

                          Input orientation:
 ---------------------------------------------------------------------
 Center     Atomic      Atomic             Coordinates (Angstroms)
 Number     Number       Type             X           Y           Z
 ---------------------------------------------------------------------
      1          6           0       -9.932625    0.000000    0.000000
      2          6           0        9.932625    0.000000    0.000000
      3          1           0      -11.051764   -0.000006    0.000006
      4          1           0       11.051764    0.000004   -0.000004
 ---------------------------------------------------------------------

 Alpha  occ. eigenvalues --  -10.63987 -10.63015  -0.73318  -0.68761  -0.38743
 Alpha  occ. eigenvalues --   -0.35902  -0.31194
 Alpha virt. eigenvalues --   -0.09373  -0.07319  -0.04712   0.02843   0.03802
 Alpha virt. eigenvalues --    0.08248   0.08342   0.08501   0.08542   0.09121
 Alpha virt. eigenvalues --    0.10740   0.17661   0.19112   0.45364   0.46204

  Beta  occ. eigenvalues --  -10.63987 -10.63015  -0.73318  -0.68761  -0.38743
  Beta  occ. eigenvalues --   -0.35902  -0.31194
  Beta virt. eigenvalues --   -0.09373  -0.07319  -0.04712   0.02843   0.03802
  Beta virt. eigenvalues --    0.08248   0.08342   0.08501   0.08542   0.09121
  Beta virt. eigenvalues --    0.10740   0.17661   0.19112   0.45364   0.46204

 Mulliken charges and spin densities:
               1          2
     1  C   -0.118661  -1.032496
     2  C   -0.118661   1.032496
     3  H    0.118661   0.032496
     4  H    0.118661  -0.032496
 Sum of Mulliken charges =  -0.00000  -0.00000

 Dipole moment (field-independent basis, Debye):
    X=              0.0000    Y=             -0.0000    Z=              0.0000  Tot=              0.0000
 Quadrupole moment (field-independent basis, Debye-Ang):
   XX=             50.8295   YY=            -13.6181   ZZ=            -13.5891
   XY=              0.0001   XZ=             -0.0001   YZ=             -2.1110

 Normal termination of Gaussian 16 at Tue Dec  3 20:24:09 2024.
