 Gaussian 16, Revision A.03,
 Gaussian 16:  ES64L-G16RevA.03 25-Dec-2016

 --------------------------------------------
 #p opt UM062X/6-311+G** nosymm int=superfine
 --------------------------------------------

 -------------------
 Title Card Required
 -------------------
 Symbolic Z-matrix:
 Charge =  1 Multiplicity = 2

 SCF Done:  E(UM062X) =  -582.167823018     A.U. after   11 cycles
 SCF Done:  E(UM062X) =  -582.167959256     A.U. after    8 cycles
 SCF Done:  E(UM062X) =  -582.167966677     A.U. after    8 cycles
 Optimization completed.
    -- Stationary point found.

                          Input orientation:
 ---------------------------------------------------------------------
 Center     Atomic      Atomic             Coordinates (Angstroms)
 Number     Number       Type             X           Y           Z
 ---------------------------------------------------------------------
      1         14           0       -1.601292    0.000000    0.000000
      2         14           0        1.601292    0.000000    0.000000
      3          1           0        1.773192   -1.455147    0.000013
      4          1           0       -1.773024   -0.727469    1.260268
      5          1           0        1.773522    0.727598   -1.260123
      6          1           0        1.772878    0.727560    1.260236
      7          1           0       -1.773217    1.455144   -0.000091
      8          1           0       -1.773352   -0.727697   -1.260090
 ---------------------------------------------------------------------

 Alpha  occ. eigenvalues --  -67.23801 -67.23801  -5.78655  -5.78655  -4.10351
 Alpha  occ. eigenvalues --   -4.10349  -4.09534  -4.09534  -4.09534  -4.09534
 Alpha  occ. eigenvalues --   -0.83992  -0.81334  -0.63359  -0.63358  -0.62325
 Alpha  occ. eigenvalues --   -0.62325  -0.48742
 Alpha virt. eigenvalues --   -0.24981  -0.15044  -0.11810  -0.11522  -0.11522
 Alpha virt. eigenvalues --   -0.10456  -0.10455  -0.09879  -0.08705  -0.08704
 Alpha virt. eigenvalues --   -0.07594  -0.06476  -0.06475  -0.03648   0.00756

  Beta  occ. eigenvalues --  -67.23537 -67.23537  -5.78584  -5.78583  -4.09699
  Beta  occ. eigenvalues --   -4.09698  -4.09446  -4.09446  -4.09446  -4.09446
  Beta  occ. eigenvalues --   -0.81505  -0.79854  -0.62976  -0.62976  -0.62089
  Beta  occ. eigenvalues --   -0.62089
  Beta virt. eigenvalues --   -0.30409  -0.20151  -0.14728  -0.11525  -0.11524
  Beta virt. eigenvalues --   -0.10852  -0.10542  -0.10542  -0.09652  -0.08039
  Beta virt. eigenvalues --   -0.08039  -0.06256  -0.06256  -0.05853  -0.03121

 Mulliken charges and spin densities:
               1          2
     1  Si   0.498691   0.549235
     2  Si   0.498691   0.549235
     3  H    0.000437  -0.016414
     4  H    0.000432  -0.016407
     5  H    0.000444  -0.016419
     6  H    0.000427  -0.016402
     7  H    0.000438  -0.016414
     8  H    0.000439  -0.016413
 Sum of Mulliken charges =   1.00000   1.00000

 Dipole moment (field-independent basis, Debye):
    X=              0.0000    Y=              0.0000    Z=             -0.0000  Tot=              0.0000
 Quadrupole moment (field-independent basis, Debye-Ang):
   XX=             -8.8999   YY=            -25.8397   ZZ=            -25.8398
   XY=             -0.0001   XZ=              0.0000   YZ=              0.0000

 Normal termination of Gaussian 16 at Mon Apr 21 20:14:26 2025.
