 Gaussian 16, Revision A.03,
 Gaussian 16:  ES64L-G16RevA.03 25-Dec-2016

 --------------------------------------------
 #p opt UM062X/6-311+G** nosymm int=superfine
 --------------------------------------------

 -------------------
 Title Card Required
 -------------------
 Symbolic Z-matrix:
 Charge =  0 Multiplicity = 1

 SCF Done:  E(UM062X) =  -79.6171847719     A.U. after    8 cycles
 SCF Done:  E(UM062X) =  -79.6542166399     A.U. after    9 cycles
 SCF Done:  E(UM062X) =  -79.6893444730     A.U. after   10 cycles
 SCF Done:  E(UM062X) =  -79.6997219691     A.U. after   10 cycles
 SCF Done:  E(UM062X) =  -79.6999849715     A.U. after    8 cycles
 SCF Done:  E(UM062X) =  -79.6999887645     A.U. after    7 cycles
 Optimization completed.
    -- Stationary point found.

                          Input orientation:
 ---------------------------------------------------------------------
 Center     Atomic      Atomic             Coordinates (Angstroms)
 Number     Number       Type             X           Y           Z
 ---------------------------------------------------------------------
      1          6           0       -1.152956    0.000000    0.000000
      2          6           0        1.153074    0.000000    0.000000
      3          1           0        1.387500   -0.914909    0.529410
      4          1           0       -1.387374   -0.915944   -0.527624
      5          1           0        1.387495    0.915944    0.527622
      6          1           0        1.387485   -0.001030   -1.057044
      7          1           0       -1.387381    0.914909   -0.529411
      8          1           0       -1.387371    0.001029    1.057043
 ---------------------------------------------------------------------

 Alpha  occ. eigenvalues --  -10.55415 -10.55409  -0.77789  -0.73716  -0.48260
 Alpha  occ. eigenvalues --   -0.48260  -0.45798  -0.45798  -0.29625
 Alpha virt. eigenvalues --   -0.00137   0.02471   0.05567   0.05567   0.07674
 Alpha virt. eigenvalues --    0.08318   0.08318   0.09920   0.13151   0.18160
 Alpha virt. eigenvalues --    0.18161   0.22089   0.22089   0.24364   0.26402

  Beta  occ. eigenvalues --  -10.55415 -10.55409  -0.77789  -0.73716  -0.48260
  Beta  occ. eigenvalues --   -0.48260  -0.45798  -0.45798  -0.29625
  Beta virt. eigenvalues --   -0.00137   0.02471   0.05567   0.05567   0.07674
  Beta virt. eigenvalues --    0.08318   0.08318   0.09920   0.13151   0.18160
  Beta virt. eigenvalues --    0.18161   0.22089   0.22089   0.24364   0.26402

 Mulliken charges and spin densities:
               1          2
     1  C   -0.506973   0.000000
     2  C   -0.506973  -0.000000
     3  H    0.168991   0.000000
     4  H    0.168991  -0.000000
     5  H    0.168991   0.000000
     6  H    0.168991  -0.000000
     7  H    0.168991  -0.000000
     8  H    0.168991   0.000000
 Sum of Mulliken charges =  -0.00000   0.00000

 Dipole moment (field-independent basis, Debye):
    X=              0.0000    Y=             -0.0000    Z=             -0.0000  Tot=              0.0000
 Quadrupole moment (field-independent basis, Debye-Ang):
   XX=            -15.5441   YY=            -14.8224   ZZ=            -14.8224
   XY=             -0.0000   XZ=              0.0000   YZ=             -0.0000

 Normal termination of Gaussian 16 at Tue Nov 19 12:17:48 2024.
