 Gaussian 16, Revision A.03,
 Gaussian 16:  ES64L-G16RevA.03 25-Dec-2016

 --------------------------------------------
 #p opt UM062X/6-311+G** nosymm int=superfine
 --------------------------------------------

 -------------------
 Title Card Required
 -------------------
 Symbolic Z-matrix:
 Charge =  0 Multiplicity = 1

 SCF Done:  E(UM062X) =  -579.894598417     A.U. after   12 cycles
 SCF Done:  E(UM062X) =  -579.900990033     A.U. after    9 cycles
 SCF Done:  E(UM062X) =  -579.901117258     A.U. after   10 cycles
 SCF Done:  E(UM062X) =  -579.901124394     A.U. after    9 cycles
 SCF Done:  E(UM062X) =  -579.924054095     A.U. after   13 cycles
 SCF Done:  E(UM062X) =  -579.956777151     A.U. after   11 cycles
 SCF Done:  E(UM062X) =  -579.990291422     A.U. after   10 cycles
 SCF Done:  E(UM062X) =  -579.991003325     A.U. after    9 cycles
 SCF Done:  E(UM062X) =  -579.991397967     A.U. after    9 cycles
 SCF Done:  E(UM062X) =  -579.991491289     A.U. after    8 cycles
 SCF Done:  E(UM062X) =  -579.991491696     A.U. after    7 cycles
 Optimization completed.
    -- Stationary point found.

                          Input orientation:
 ---------------------------------------------------------------------
 Center     Atomic      Atomic             Coordinates (Angstroms)
 Number     Number       Type             X           Y           Z
 ---------------------------------------------------------------------
      1         14           0       -1.328705    0.000000    0.000000
      2         14           0        1.328705    0.000000    0.000000
      3          1           0       -1.441082    1.514072    0.000008
      4          1           0        1.441021    1.514078   -0.000008
 ---------------------------------------------------------------------

 Alpha  occ. eigenvalues --  -67.02094 -67.02094  -5.56688  -5.56688  -3.87899
 Alpha  occ. eigenvalues --   -3.87898  -3.87369  -3.87360  -3.87243  -3.87238
 Alpha  occ. eigenvalues --   -0.58174  -0.51190  -0.36030  -0.28927  -0.23940
 Alpha virt. eigenvalues --   -0.11646  -0.05076   0.00655   0.02052   0.03713
 Alpha virt. eigenvalues --    0.03917   0.05308   0.06325   0.06514   0.06824
 Alpha virt. eigenvalues --    0.07295   0.10641   0.13442   0.27064   0.29171

  Beta  occ. eigenvalues --  -67.02094 -67.02094  -5.56688  -5.56688  -3.87899
  Beta  occ. eigenvalues --   -3.87898  -3.87369  -3.87360  -3.87243  -3.87238
  Beta  occ. eigenvalues --   -0.58174  -0.51190  -0.36030  -0.28927  -0.23940
  Beta virt. eigenvalues --   -0.11646  -0.05076   0.00655   0.02052   0.03713
  Beta virt. eigenvalues --    0.03917   0.05308   0.06325   0.06514   0.06824
  Beta virt. eigenvalues --    0.07295   0.10641   0.13442   0.27064   0.29171

 Mulliken charges and spin densities:
               1          2
     1  Si   0.151521   0.000000
     2  Si   0.151529  -0.000000
     3  H   -0.151525   0.000000
     4  H   -0.151526   0.000000
 Sum of Mulliken charges =  -0.00000   0.00000

 Dipole moment (field-independent basis, Debye):
    X=              0.0001    Y=              0.6347    Z=             -0.0000  Tot=              0.6347
 Quadrupole moment (field-independent basis, Debye-Ang):
   XX=            -35.7851   YY=            -33.0270   ZZ=            -22.8386
   XY=             -0.0001   XZ=             -0.0000   YZ=              0.0000

 Normal termination of Gaussian 16 at Mon Apr 21 21:25:50 2025.
