 Gaussian 16, Revision A.03,
 Gaussian 16:  ES64L-G16RevA.03 25-Dec-2016

 --------------------------------------------
 #p opt UM062X/6-311+G** nosymm int=superfine
 --------------------------------------------

 -------------------
 Title Card Required
 -------------------
 Symbolic Z-matrix:
 Charge =  1 Multiplicity = 2

 SCF Done:  E(UM062X) =  -580.867570082     A.U. after   15 cycles
 SCF Done:  E(UM062X) =  -580.874772185     A.U. after    9 cycles
 SCF Done:  E(UM062X) =  -580.876786884     A.U. after   12 cycles
 SCF Done:  E(UM062X) =  -580.876789481     A.U. after    6 cycles
 Optimization completed.
    -- Stationary point found.

                          Input orientation:
 ---------------------------------------------------------------------
 Center     Atomic      Atomic             Coordinates (Angstroms)
 Number     Number       Type             X           Y           Z
 ---------------------------------------------------------------------
      1         14           0       -2.191295    0.000000    0.000000
      2         14           0        2.191295    0.000000    0.000000
      3          1           0       -3.087381   -1.191034    0.000054
      4          1           0        3.087381    1.191034    0.001084
      5          1           0       -3.087395    1.191023   -0.000048
      6          1           0        3.087395   -1.191023   -0.001079
 ---------------------------------------------------------------------

 Alpha  occ. eigenvalues --  -67.24220 -67.24220  -5.78706  -5.78705  -4.09978
 Alpha  occ. eigenvalues --   -4.09978  -4.09654  -4.09654  -4.09312  -4.09312
 Alpha  occ. eigenvalues --   -0.78253  -0.78100  -0.60036  -0.59996  -0.49810
 Alpha  occ. eigenvalues --   -0.47225
 Alpha virt. eigenvalues --   -0.27190  -0.26483  -0.12748  -0.12033  -0.09263
 Alpha virt. eigenvalues --   -0.08119  -0.07925  -0.07252  -0.06731  -0.05921
 Alpha virt. eigenvalues --   -0.05904  -0.05888  -0.05516  -0.03455   0.12972

  Beta  occ. eigenvalues --  -67.23877 -67.23877  -5.78443  -5.78443  -4.09873
  Beta  occ. eigenvalues --   -4.09873  -4.09200  -4.09200  -4.08871  -4.08871
  Beta  occ. eigenvalues --   -0.76433  -0.76127  -0.58859  -0.58805  -0.43537
  Beta virt. eigenvalues --   -0.32656  -0.26008  -0.25131  -0.11674  -0.11489
  Beta virt. eigenvalues --   -0.09329  -0.07414  -0.06959  -0.06611  -0.06368
  Beta virt. eigenvalues --   -0.05726  -0.05701  -0.05304  -0.05171  -0.03022

 Mulliken charges and spin densities:
               1          2
     1  Si   0.559141   0.387371
     2  Si   0.559142   0.387371
     3  H   -0.029571   0.056314
     4  H   -0.029571   0.056314
     5  H   -0.029571   0.056315
     6  H   -0.029571   0.056315
 Sum of Mulliken charges =   1.00000   1.00000

 Dipole moment (field-independent basis, Debye):
    X=              0.0000    Y=              0.0000    Z=              0.0000  Tot=              0.0000
 Quadrupole moment (field-independent basis, Debye-Ang):
   XX=              2.6583   YY=            -25.8520   ZZ=            -20.8634
   XY=             -0.0000   XZ=              0.0000   YZ=             -0.0022

 Normal termination of Gaussian 16 at Mon Apr 21 20:27:07 2025.
