 Gaussian 16, Revision A.03,
 Gaussian 16:  ES64L-G16RevA.03 25-Dec-2016

 --------------------------------------------
 #p opt UM062X/6-311+G** nosymm int=superfine
 --------------------------------------------

 -------------------
 Title Card Required
 -------------------
 Symbolic Z-matrix:
 Charge =  0 Multiplicity = 1

 SCF Done:  E(UM062X) =  -683.607721026     A.U. after   12 cycles
 SCF Done:  E(UM062X) =  -683.608203978     A.U. after   10 cycles
 SCF Done:  E(UM062X) =  -683.608756382     A.U. after   12 cycles
 SCF Done:  E(UM062X) =  -683.608775446     A.U. after    8 cycles
 Optimization completed.
    -- Stationary point found.

                          Input orientation:
 ---------------------------------------------------------------------
 Center     Atomic      Atomic             Coordinates (Angstroms)
 Number     Number       Type             X           Y           Z
 ---------------------------------------------------------------------
      1         15           0       -2.009490    0.000000    0.000000
      2         15           0        2.009490    0.000000    0.000000
      3          1           0       -1.889674   -1.418424   -0.000000
      4          1           0        1.889674    1.418424   -0.000000
 ---------------------------------------------------------------------

 Alpha  occ. eigenvalues --  -78.08503 -78.08503  -6.90519  -6.90518  -5.01930
 Alpha  occ. eigenvalues --   -5.01930  -5.01914  -5.01914  -5.01730  -5.01729
 Alpha  occ. eigenvalues --   -0.68761  -0.67969  -0.40591  -0.40404  -0.26210
 Alpha  occ. eigenvalues --   -0.24321
 Alpha virt. eigenvalues --   -0.16739  -0.14750   0.01965   0.03061   0.03724
 Alpha virt. eigenvalues --    0.04553   0.05548   0.05908   0.06464   0.07722
 Alpha virt. eigenvalues --    0.08550   0.11711   0.28105   0.30253   0.30263

  Beta  occ. eigenvalues --  -78.08503 -78.08503  -6.90519  -6.90518  -5.01930
  Beta  occ. eigenvalues --   -5.01930  -5.01914  -5.01914  -5.01730  -5.01729
  Beta  occ. eigenvalues --   -0.68761  -0.67969  -0.40591  -0.40404  -0.26210
  Beta  occ. eigenvalues --   -0.24321
  Beta virt. eigenvalues --   -0.16739  -0.14750   0.01965   0.03061   0.03724
  Beta virt. eigenvalues --    0.04553   0.05548   0.05908   0.06464   0.07722
  Beta virt. eigenvalues --    0.08550   0.11711   0.28105   0.30253   0.30263

 Mulliken charges and spin densities:
               1          2
     1  P    0.008472   0.000001
     2  P    0.008459  -0.000001
     3  H   -0.008466  -0.000000
     4  H   -0.008465   0.000000
 Sum of Mulliken charges =  -0.00000  -0.00000

 Dipole moment (field-independent basis, Debye):
    X=             -0.0001    Y=             -0.0000    Z=             -0.0000  Tot=              0.0001
 Quadrupole moment (field-independent basis, Debye-Ang):
   XX=            -26.7238   YY=            -28.4805   ZZ=            -30.8422
   XY=              3.1916   XZ=             -0.0000   YZ=             -0.0000

 Normal termination of Gaussian 16 at Mon Apr 21 21:10:45 2025.
