 Gaussian 16, Revision A.03,
 Gaussian 16:  ES64L-G16RevA.03 25-Dec-2016

 --------------------------------------------
 #p opt UM062X/6-311+G** nosymm int=superfine
 --------------------------------------------

 -------------------
 Title Card Required
 -------------------
 Symbolic Z-matrix:
 Charge = -1 Multiplicity = 2

 SCF Done:  E(UM062X) =  -51.8471323525     A.U. after   12 cycles
 SCF Done:  E(UM062X) =  -51.8471483374     A.U. after   13 cycles
 Optimization completed.
    -- Stationary point found.

                          Input orientation:
 ---------------------------------------------------------------------
 Center     Atomic      Atomic             Coordinates (Angstroms)
 Number     Number       Type             X           Y           Z
 ---------------------------------------------------------------------
      1          5           0       -2.047274    0.000000    0.000000
      2          5           0        2.047274    0.000000    0.000000
      3          1           0       -2.717169   -1.012798   -0.000018
      4          1           0        2.717169    1.012798   -0.000493
      5          1           0       -2.717172    1.012796   -0.000015
      6          1           0        2.717172   -1.012796    0.000460
 ---------------------------------------------------------------------

 Alpha  occ. eigenvalues --   -6.87790  -6.87789  -0.37934  -0.37837  -0.22039
 Alpha  occ. eigenvalues --   -0.21979  -0.05545  -0.02189
 Alpha virt. eigenvalues --    0.11799   0.13104   0.15063   0.15677   0.15740
 Alpha virt. eigenvalues --    0.17532   0.19900   0.20872   0.20891   0.23121
 Alpha virt. eigenvalues --    0.32141   0.33456   0.34049   0.37141   0.50553

  Beta  occ. eigenvalues --   -6.87189  -6.87189  -0.36605  -0.36435  -0.21351
  Beta  occ. eigenvalues --   -0.21276   0.01695
  Beta virt. eigenvalues --    0.12774   0.13112   0.14172   0.14500   0.16446
  Beta virt. eigenvalues --    0.17929   0.18179   0.22223   0.22484   0.24057
  Beta virt. eigenvalues --    0.25290   0.32191   0.33617   0.34181   0.37968

 Mulliken charges and spin densities:
               1          2
     1  B   -0.341917   0.491892
     2  B   -0.341917   0.491892
     3  H   -0.079041   0.004054
     4  H   -0.079041   0.004054
     5  H   -0.079041   0.004054
     6  H   -0.079041   0.004054
 Sum of Mulliken charges =  -1.00000   1.00000

 Dipole moment (field-independent basis, Debye):
    X=              0.0000    Y=             -0.0000    Z=             -0.0001  Tot=              0.0001
 Quadrupole moment (field-independent basis, Debye-Ang):
   XX=            -42.1300   YY=            -24.5344   ZZ=            -19.0063
   XY=              0.0000   XZ=             -0.0000   YZ=              0.0013

 Normal termination of Gaussian 16 at Mon Apr 21 17:26:21 2025.
