 Gaussian 16, Revision A.03,
 Gaussian 16:  ES64L-G16RevA.03 25-Dec-2016

 --------------------------------------------
 #p opt UM062X/6-311+G** nosymm int=superfine
 --------------------------------------------

 -------------------
 Title Card Required
 -------------------
 Symbolic Z-matrix:
 Charge =  1 Multiplicity = 2

 SCF Done:  E(UM062X) =  -580.868371857     A.U. after   14 cycles
 SCF Done:  E(UM062X) =  -580.875555578     A.U. after    9 cycles
 SCF Done:  E(UM062X) =  -580.877562516     A.U. after   12 cycles
 SCF Done:  E(UM062X) =  -580.877565096     A.U. after    6 cycles
 Optimization completed.
    -- Stationary point found.

                          Input orientation:
 ---------------------------------------------------------------------
 Center     Atomic      Atomic             Coordinates (Angstroms)
 Number     Number       Type             X           Y           Z
 ---------------------------------------------------------------------
      1         14           0       -2.166295    0.000000    0.000000
      2         14           0        2.166295    0.000000    0.000000
      3          1           0       -3.062106   -1.191100    0.000055
      4          1           0        3.062106    1.191100    0.001086
      5          1           0       -3.062120    1.191089   -0.000050
      6          1           0        3.062120   -1.191089   -0.001080
 ---------------------------------------------------------------------

 Alpha  occ. eigenvalues --  -67.24260 -67.24260  -5.78746  -5.78745  -4.10018
 Alpha  occ. eigenvalues --   -4.10018  -4.09694  -4.09694  -4.09352  -4.09352
 Alpha  occ. eigenvalues --   -0.78301  -0.78133  -0.60079  -0.60034  -0.49939
 Alpha  occ. eigenvalues --   -0.47170
 Alpha virt. eigenvalues --   -0.27256  -0.26503  -0.12834  -0.12039  -0.09267
 Alpha virt. eigenvalues --   -0.08070  -0.07939  -0.07295  -0.06738  -0.05968
 Alpha virt. eigenvalues --   -0.05938  -0.05874  -0.05531  -0.03451   0.13043

  Beta  occ. eigenvalues --  -67.23916 -67.23916  -5.78482  -5.78481  -4.09913
  Beta  occ. eigenvalues --   -4.09913  -4.09239  -4.09239  -4.08911  -4.08910
  Beta  occ. eigenvalues --   -0.76481  -0.76158  -0.58901  -0.58843  -0.43714
  Beta virt. eigenvalues --   -0.32566  -0.26075  -0.25146  -0.11772  -0.11510
  Beta virt. eigenvalues --   -0.09343  -0.07438  -0.07015  -0.06598  -0.06385
  Beta virt. eigenvalues --   -0.05749  -0.05675  -0.05314  -0.05238  -0.03038

 Mulliken charges and spin densities:
               1          2
     1  Si   0.558660   0.387126
     2  Si   0.558660   0.387126
     3  H   -0.029330   0.056437
     4  H   -0.029330   0.056437
     5  H   -0.029330   0.056437
     6  H   -0.029330   0.056437
 Sum of Mulliken charges =   1.00000   1.00000

 Dipole moment (field-independent basis, Debye):
    X=              0.0000    Y=              0.0000    Z=              0.0000  Tot=              0.0000
 Quadrupole moment (field-independent basis, Debye-Ang):
   XX=              2.0720   YY=            -25.8439   ZZ=            -20.8585
   XY=             -0.0000   XZ=              0.0000   YZ=             -0.0022

 Normal termination of Gaussian 16 at Mon Apr 21 20:24:56 2025.
