 Gaussian 16, Revision A.03,
 Gaussian 16:  ES64L-G16RevA.03 25-Dec-2016

 ---------------------------------------------------------
 #p opt UM062X/6-311+G** nosymm int=superfine SCF=NoVarAcc
 ---------------------------------------------------------

 -------------------
 Title Card Required
 -------------------
 Symbolic Z-matrix:
 Charge =  1 Multiplicity = 2

 SCF Done:  E(UM062X) =  -77.9179736612     A.U. after   10 cycles
 SCF Done:  E(UM062X) =  -77.9222692648     A.U. after    9 cycles
 SCF Done:  E(UM062X) =  -77.9248845575     A.U. after    9 cycles
 SCF Done:  E(UM062X) =  -77.9248881861     A.U. after    7 cycles
 Optimization completed.
    -- Stationary point found.

                          Input orientation:
 ---------------------------------------------------------------------
 Center     Atomic      Atomic             Coordinates (Angstroms)
 Number     Number       Type             X           Y           Z
 ---------------------------------------------------------------------
      1          6           0       -1.606027    0.000000    0.000000
      2          6           0        1.606027    0.000000    0.000000
      3          1           0       -2.166069   -0.940925   -0.000000
      4          1           0       -2.166018    0.940955   -0.000000
      5          1           0        2.166069    0.940925   -0.000000
      6          1           0        2.166018   -0.940955   -0.000000
 ---------------------------------------------------------------------

 Alpha  occ. eigenvalues --  -10.89216 -10.89215  -1.00612  -1.00266  -0.75173
 Alpha  occ. eigenvalues --   -0.74991  -0.60345  -0.55856
 Alpha virt. eigenvalues --   -0.32803  -0.31764  -0.13167  -0.10962  -0.09658
 Alpha virt. eigenvalues --   -0.07588  -0.06830  -0.05369  -0.04544  -0.01826
 Alpha virt. eigenvalues --   -0.01031  -0.00221   0.01963   0.06972   0.24484

  Beta  occ. eigenvalues --  -10.88362 -10.88360  -0.98413  -0.97925  -0.74151
  Beta  occ. eigenvalues --   -0.73946  -0.50247
  Beta virt. eigenvalues --   -0.33967  -0.30948  -0.29684  -0.13022  -0.11050
  Beta virt. eigenvalues --   -0.09537  -0.07414  -0.06807  -0.04706  -0.04138
  Beta virt. eigenvalues --   -0.01556  -0.00482   0.00135   0.02003   0.07715

 Mulliken charges and spin densities:
               1          2
     1  C    0.016175   0.485634
     2  C    0.016175   0.485634
     3  H    0.241913   0.007183
     4  H    0.241912   0.007183
     5  H    0.241913   0.007183
     6  H    0.241912   0.007183
 Sum of Mulliken charges =   1.00000   1.00000

 Dipole moment (field-independent basis, Debye):
    X=             -0.0000    Y=             -0.0000    Z=             -0.0000  Tot=              0.0000
 Quadrupole moment (field-independent basis, Debye-Ang):
   XX=             10.5323   YY=             -9.4363   ZZ=            -10.7269
   XY=             -0.0000   XZ=              0.0000   YZ=             -0.0000

 Normal termination of Gaussian 16 at Tue Dec  3 13:27:42 2024.
