 Gaussian 16, Revision A.03,
 Gaussian 16:  ES64L-G16RevA.03 25-Dec-2016

 ---------------------------------------------------
 #p UM062X/6-311+G** force int=superfine pop=saveNBO
 ---------------------------------------------------

 -------------------
 Title Card Required
 -------------------
 Symbolic Z-matrix:
 Charge =  0 Multiplicity = 1

                         Standard orientation:
 ---------------------------------------------------------------------
 Center     Atomic      Atomic             Coordinates (Angstroms)
 Number     Number       Type             X           Y           Z
 ---------------------------------------------------------------------
      1          6           0        0.000000    0.000000   -0.955522
      2          8           0        0.000000    0.000000    0.716642
 ---------------------------------------------------------------------

 SCF Done:  E(UM062X) =  -113.058352513     A.U. after   12 cycles

 The electronic state is 1-SG.
 Alpha  occ. eigenvalues --  -19.72792 -10.80803  -1.07204  -0.69047  -0.44656
 Alpha  occ. eigenvalues --   -0.41963  -0.41963
 Alpha virt. eigenvalues --   -0.12719  -0.12719   0.01827   0.03634   0.06639
 Alpha virt. eigenvalues --    0.06639   0.09900   0.19874   0.22532   0.22532
 Alpha virt. eigenvalues --    0.31597   0.53372   0.53372   0.53557   0.71785

  Beta  occ. eigenvalues --  -19.72792 -10.80803  -1.07204  -0.69047  -0.44656
  Beta  occ. eigenvalues --   -0.41963  -0.41963
  Beta virt. eigenvalues --   -0.12719  -0.12719   0.01827   0.03634   0.06639
  Beta virt. eigenvalues --    0.06639   0.09900   0.19874   0.22532   0.22532
  Beta virt. eigenvalues --    0.31597   0.53372   0.53372   0.53557   0.71785

 Mulliken charges and spin densities:
               1          2
     1  C    0.284415   0.000000
     2  O   -0.284415   0.000000
 Sum of Mulliken charges =  -0.00000   0.00000

 Dipole moment (field-independent basis, Debye):
    X=              0.0000    Y=              0.0000    Z=             -2.2760  Tot=              2.2760
 Quadrupole moment (field-independent basis, Debye-Ang):
   XX=            -11.2748   YY=            -11.2748   ZZ=            -11.6747
   XY=              0.0000   XZ=              0.0000   YZ=              0.0000

 Summary of Natural Population Analysis:

                                       Natural Population
                Natural  -----------------------------------------------
    Atom  No    Charge         Core      Valence    Rydberg      Total
 -----------------------------------------------------------------------
      C    1    0.31572      0.99998     1.67459    0.00971     2.68428
      O    2   -0.31572      0.99999     3.31379    0.00194     4.31572
 =======================================================================
   * Total *    0.00000      1.99997     4.98838    0.01165     7.00000

 Normal termination of Gaussian 16 at Mon Apr 21 19:28:18 2025.
