 Gaussian 16, Revision A.03,
 Gaussian 16:  ES64L-G16RevA.03 25-Dec-2016

 --------------------------------------------
 #p opt UM062X/6-311+G** nosymm int=superfine
 --------------------------------------------

 -------------------
 Title Card Required
 -------------------
 Symbolic Z-matrix:
 Charge =  0 Multiplicity = 1

 SCF Done:  E(UM062X) =  -474.522000944     A.U. after   13 cycles
 SCF Done:  E(UM062X) =  -474.524829511     A.U. after   13 cycles
 SCF Done:  E(UM062X) =  -474.524860825     A.U. after   14 cycles
 SCF Done:  E(UM062X) =  -474.525121164     A.U. after   11 cycles
 SCF Done:  E(UM062X) =  -474.525122622     A.U. after    9 cycles
 SCF Done:  E(UM062X) =  -474.525122710     A.U. after    9 cycles
 Optimization completed.
    -- Stationary point found.

                          Input orientation:
 ---------------------------------------------------------------------
 Center     Atomic      Atomic             Coordinates (Angstroms)
 Number     Number       Type             X           Y           Z
 ---------------------------------------------------------------------
      1          8           0       -1.039392    0.000000    0.000000
      2         16           0        1.039392    0.000000    0.000000
      3          1           0       -1.173215   -0.954122   -0.071596
      4          1           0        1.052503    0.235813    1.322198
 ---------------------------------------------------------------------

 Alpha  occ. eigenvalues --  -89.96238 -19.66986  -8.32294  -6.24516  -6.24148
 Alpha  occ. eigenvalues --   -6.23623  -1.10750  -0.82398  -0.54432  -0.49661
 Alpha  occ. eigenvalues --   -0.43215  -0.39779  -0.33753
 Alpha virt. eigenvalues --   -0.08871   0.01482   0.04239   0.05003   0.06048
 Alpha virt. eigenvalues --    0.07968   0.15816   0.19239   0.20031   0.22213
 Alpha virt. eigenvalues --    0.27921   0.31816   0.33706   0.35115   0.40934

  Beta  occ. eigenvalues --  -89.96238 -19.66986  -8.32294  -6.24516  -6.24148
  Beta  occ. eigenvalues --   -6.23623  -1.10750  -0.82398  -0.54432  -0.49661
  Beta  occ. eigenvalues --   -0.43215  -0.39779  -0.33753
  Beta virt. eigenvalues --   -0.08871   0.01482   0.04239   0.05003   0.06048
  Beta virt. eigenvalues --    0.07968   0.15816   0.19239   0.20031   0.22213
  Beta virt. eigenvalues --    0.27921   0.31816   0.33706   0.35115   0.40934

 Mulliken charges and spin densities:
               1          2
     1  O   -0.436169  -0.000000
     2  S    0.079754  -0.000000
     3  H    0.259519   0.000000
     4  H    0.096896   0.000000
 Sum of Mulliken charges =  -0.00000  -0.00000

 Dipole moment (field-independent basis, Debye):
    X=              1.3126    Y=             -1.4449    Z=              0.9641  Tot=              2.1772
 Quadrupole moment (field-independent basis, Debye-Ang):
   XX=            -18.7102   YY=            -19.7533   ZZ=            -18.4427
   XY=              2.6879   XZ=              1.6424   YZ=              0.8991

 Normal termination of Gaussian 16 at Thu May 15 12:53:49 2025.
