 Gaussian 16, Revision A.03,
 Gaussian 16:  ES64L-G16RevA.03 25-Dec-2016

 --------------------------------------------
 #p opt UM062X/6-311+G** nosymm int=superfine
 --------------------------------------------

 -------------------
 Title Card Required
 -------------------
 Symbolic Z-matrix:
 Charge =  0 Multiplicity = 1

 SCF Done:  E(UM062X) =  -80.6787800027     A.U. after   10 cycles
 SCF Done:  E(UM062X) =  -80.6788309926     A.U. after    9 cycles
 SCF Done:  E(UM062X) =  -80.6788312517     A.U. after    8 cycles
 SCF Done:  E(UM062X) =  -80.6788312849     A.U. after    7 cycles
 Optimization completed.
    -- Stationary point found.

                          Input orientation:
 ---------------------------------------------------------------------
 Center     Atomic      Atomic             Coordinates (Angstroms)
 Number     Number       Type             X           Y           Z
 ---------------------------------------------------------------------
      1          5           0       -0.792066    0.000000    0.000000
      2          7           0        0.792066    0.000000    0.000000
      3          1           0       -1.959456    0.001052    0.000003
      4          1           0        1.793491    0.002681   -0.000000
 ---------------------------------------------------------------------

 Alpha  occ. eigenvalues --  -14.75571  -7.15632  -0.87548  -0.60044  -0.52899
 Alpha  occ. eigenvalues --   -0.31586  -0.31586
 Alpha virt. eigenvalues --   -0.01398  -0.01398   0.01128   0.01795   0.05636
 Alpha virt. eigenvalues --    0.05636   0.08468   0.10876   0.18272   0.18272
 Alpha virt. eigenvalues --    0.21982   0.25043   0.31853   0.40508   0.40508

  Beta  occ. eigenvalues --  -14.75571  -7.15632  -0.87548  -0.60044  -0.52899
  Beta  occ. eigenvalues --   -0.31586  -0.31586
  Beta virt. eigenvalues --   -0.01398  -0.01398   0.01128   0.01795   0.05636
  Beta virt. eigenvalues --    0.05636   0.08468   0.10876   0.18272   0.18272
  Beta virt. eigenvalues --    0.21982   0.25043   0.31853   0.40508   0.40508

 Mulliken charges and spin densities:
               1          2
     1  B    0.263608  -0.000000
     2  N   -0.637122   0.000000
     3  H    0.071334  -0.000000
     4  H    0.302180   0.000000
 Sum of Mulliken charges =  -0.00000   0.00000

 Dipole moment (field-independent basis, Debye):
    X=             -1.4742    Y=              0.0040    Z=             -0.0000  Tot=              1.4742
 Quadrupole moment (field-independent basis, Debye-Ang):
   XX=             -6.8782   YY=            -14.4677   ZZ=            -14.4677
   XY=              0.0106   XZ=             -0.0000   YZ=             -0.0000

 Normal termination of Gaussian 16 at Mon Apr 21 18:01:02 2025.
