 Gaussian 16, Revision A.03,
 Gaussian 16:  ES64L-G16RevA.03 25-Dec-2016

 --------------------------------------------
 #p opt UM062X/6-311+G** nosymm int=superfine
 --------------------------------------------

 -------------------
 Title Card Required
 -------------------
 Symbolic Z-matrix:
 Charge =  0 Multiplicity = 1

 SCF Done:  E(UM062X) =  -80.4648831000     A.U. after   17 cycles
 SCF Done:  E(UM062X) =  -80.4650492315     A.U. after   13 cycles
 SCF Done:  E(UM062X) =  -80.4650710827     A.U. after   13 cycles
 SCF Done:  E(UM062X) =  -80.4650957646     A.U. after   14 cycles
 SCF Done:  E(UM062X) =  -80.4651078872     A.U. after   13 cycles
 SCF Done:  E(UM062X) =  -80.4651104643     A.U. after   13 cycles
 SCF Done:  E(UM062X) =  -80.4651105665     A.U. after   13 cycles
 Optimization completed.
    -- Stationary point found.

                          Input orientation:
 ---------------------------------------------------------------------
 Center     Atomic      Atomic             Coordinates (Angstroms)
 Number     Number       Type             X           Y           Z
 ---------------------------------------------------------------------
      1          5           0       -1.242066    0.000000    0.000000
      2          7           0        1.242066    0.000000    0.000000
      3          1           0       -2.406888   -0.297526   -0.103143
      4          1           0        1.231883    0.979892    0.336835
 ---------------------------------------------------------------------

 Alpha  occ. eigenvalues --  -14.77015  -7.19887  -0.83984  -0.60320  -0.40828
 Alpha  occ. eigenvalues --   -0.33609  -0.27606
 Alpha virt. eigenvalues --   -0.08744  -0.07788  -0.04892   0.00724   0.04057
 Alpha virt. eigenvalues --    0.04914   0.05177   0.12617   0.16223   0.18087
 Alpha virt. eigenvalues --    0.19307   0.21319   0.26119   0.35332   0.38665

  Beta  occ. eigenvalues --  -14.77015  -7.19887  -0.83984  -0.60320  -0.40828
  Beta  occ. eigenvalues --   -0.33609  -0.27606
  Beta virt. eigenvalues --   -0.08744  -0.07788  -0.04892   0.00724   0.04057
  Beta virt. eigenvalues --    0.04914   0.05177   0.12617   0.16223   0.18087
  Beta virt. eigenvalues --    0.19307   0.21319   0.26119   0.35332   0.38665

 Mulliken charges and spin densities:
               1          2
     1  B    0.110557  -0.000000
     2  N   -0.334362   0.000000
     3  H    0.052396  -0.000000
     4  H    0.171409  -0.000000
 Sum of Mulliken charges =  -0.00000  -0.00000

 Dipole moment (field-independent basis, Debye):
    X=             -4.2873    Y=              1.0003    Z=              0.3428  Tot=              4.4158
 Quadrupole moment (field-independent basis, Debye-Ang):
   XX=            -10.1710   YY=            -12.7592   ZZ=            -14.9978
   XY=              2.0721   XZ=              0.7116   YZ=              0.8721

 Normal termination of Gaussian 16 at Mon Apr 21 22:21:39 2025.
