 Gaussian 16, Revision A.03,
 Gaussian 16:  ES64L-G16RevA.03 25-Dec-2016

 --------------------------------------------
 #p opt UM062X/6-311+G** nosymm int=superfine
 --------------------------------------------

 -------------------
 Title Card Required
 -------------------
 Symbolic Z-matrix:
 Charge =  1 Multiplicity = 2

 SCF Done:  E(UM062X) =  -580.880097585     A.U. after   14 cycles
 SCF Done:  E(UM062X) =  -580.887328940     A.U. after   12 cycles
 SCF Done:  E(UM062X) =  -580.889306983     A.U. after   11 cycles
 SCF Done:  E(UM062X) =  -580.889309483     A.U. after    9 cycles
 SCF Done:  E(UM062X) =  -580.889309629     A.U. after    8 cycles
 SCF Done:  E(UM062X) =  -580.889552531     A.U. after   13 cycles
 SCF Done:  E(UM062X) =  -580.889601842     A.U. after   14 cycles
 SCF Done:  E(UM062X) =  -580.889381795     A.U. after   15 cycles
 SCF Done:  E(UM062X) =  -580.888733097     A.U. after   17 cycles
 SCF Done:  E(UM062X) =  -580.885788572     A.U. after   17 cycles
 SCF Done:  E(UM062X) =  -580.889802290     A.U. after   15 cycles
 SCF Done:  E(UM062X) =  -580.890382465     A.U. after   16 cycles
 SCF Done:  E(UM062X) =  -580.890004112     A.U. after   16 cycles
 SCF Done:  E(UM062X) =  -580.894684913     A.U. after   17 cycles
 SCF Done:  E(UM062X) =  -580.895666486     A.U. after   16 cycles
 SCF Done:  E(UM062X) =  -580.893954650     A.U. after   16 cycles
 SCF Done:  E(UM062X) =  -580.896179938     A.U. after   15 cycles
 SCF Done:  E(UM062X) =  -580.896258253     A.U. after   15 cycles
 SCF Done:  E(UM062X) =  -580.896264740     A.U. after   15 cycles
 SCF Done:  E(UM062X) =  -580.896264771     A.U. after   13 cycles
 Optimization completed.
    -- Stationary point found.

                          Input orientation:
 ---------------------------------------------------------------------
 Center     Atomic      Atomic             Coordinates (Angstroms)
 Number     Number       Type             X           Y           Z
 ---------------------------------------------------------------------
      1         14           0       -1.841295    0.000000    0.000000
      2         14           0        1.841295    0.000000    0.000000
      3          1           0       -2.750984   -1.176512    0.016313
      4          1           0        2.075131    1.254124   -0.746743
      5          1           0       -2.751412    1.175464    0.043659
      6          1           0        2.075603   -1.259887   -0.736827
 ---------------------------------------------------------------------

 Alpha  occ. eigenvalues --  -67.28186 -67.22683  -5.82507  -5.77230  -4.13902
 Alpha  occ. eigenvalues --   -4.13665  -4.13106  -4.08616  -4.07945  -4.07922
 Alpha  occ. eigenvalues --   -0.81833  -0.76497  -0.64331  -0.58440  -0.52337
 Alpha  occ. eigenvalues --   -0.46878
 Alpha virt. eigenvalues --   -0.28616  -0.25794  -0.12761  -0.12476  -0.10304
 Alpha virt. eigenvalues --   -0.09198  -0.09050  -0.08133  -0.07244  -0.06218
 Alpha virt. eigenvalues --   -0.05765  -0.05629  -0.04792  -0.02477   0.12397

  Beta  occ. eigenvalues --  -67.27587 -67.22653  -5.82074  -5.77206  -4.13474
  Beta  occ. eigenvalues --   -4.12909  -4.12489  -4.08607  -4.07935  -4.07860
  Beta  occ. eigenvalues --   -0.78446  -0.76294  -0.62711  -0.58343  -0.47257
  Beta virt. eigenvalues --   -0.31036  -0.27094  -0.25586  -0.13224  -0.12510
  Beta virt. eigenvalues --   -0.10616  -0.09054  -0.08182  -0.07099  -0.07079
  Beta virt. eigenvalues --   -0.06076  -0.05726  -0.04890  -0.04689  -0.02789

 Mulliken charges and spin densities:
               1          2
     1  Si   0.425234   0.031999
     2  Si   0.625146   0.828415
     3  H   -0.032399   0.004944
     4  H    0.007191   0.064886
     5  H   -0.032362   0.004829
     6  H    0.007189   0.064928
 Sum of Mulliken charges =   1.00000   1.00000

 Dipole moment (field-independent basis, Debye):
    X=              1.8234    Y=             -0.0006    Z=             -0.1471  Tot=              1.8294
 Quadrupole moment (field-independent basis, Debye-Ang):
   XX=             -3.0199   YY=            -25.2812   ZZ=            -23.1645
   XY=             -0.0018   XZ=              0.0300   YZ=             -0.0323

 Normal termination of Gaussian 16 at Mon Apr 21 20:29:37 2025.
