 Gaussian 16, Revision A.03,
 Gaussian 16:  ES64L-G16RevA.03 25-Dec-2016

 ---------------------------------------
 #p UM062X/6-311+G** force int=superfine
 ---------------------------------------

 -------------------
 Title Card Required
 -------------------
 Symbolic Z-matrix:
 Charge =  1 Multiplicity = 2

                         Standard orientation:
 ---------------------------------------------------------------------
 Center     Atomic      Atomic             Coordinates (Angstroms)
 Number     Number       Type             X           Y           Z
 ---------------------------------------------------------------------
      1          6           0        1.097352    0.928286   -1.623784
      2          6           0       -1.097353   -0.928282    1.623785
      3          1           0       -1.995026   -0.976982    1.019355
      4          1           0        0.920425    0.070431   -2.261201
      5          1           0       -0.920803   -0.071016    2.262100
      6          1           0       -0.408958   -1.764594    1.638400
      7          1           0        1.994995    0.977211   -1.019327
      8          1           0        0.409376    1.764928   -1.639334
 ---------------------------------------------------------------------

 SCF Done:  E(UM062X) =  -79.3144378145     A.U. after   10 cycles

 The electronic state is 2-A.
 Alpha  occ. eigenvalues --  -10.82917 -10.82916  -1.01536  -1.01330  -0.72644
 Alpha  occ. eigenvalues --   -0.72644  -0.72591  -0.72591  -0.46150
 Alpha virt. eigenvalues --   -0.37864  -0.12351  -0.10043  -0.09055  -0.09054
 Alpha virt. eigenvalues --   -0.06192  -0.06192  -0.04439  -0.02576   0.00556
 Alpha virt. eigenvalues --    0.00558   0.01524   0.01526   0.02300   0.09140

  Beta  occ. eigenvalues --  -10.82690 -10.82690  -0.98871  -0.98772  -0.72105
  Beta  occ. eigenvalues --   -0.72105  -0.72044  -0.72043
  Beta virt. eigenvalues --   -0.31526  -0.26683  -0.17127  -0.10299  -0.10298
  Beta virt. eigenvalues --   -0.10246  -0.06134  -0.06134  -0.05744  -0.01606
  Beta virt. eigenvalues --    0.00473   0.00476   0.01771   0.01773   0.02248

 Mulliken charges and spin densities:
               1          2
     1  C   -0.236771   0.558931
     2  C   -0.236770   0.558931
     3  H    0.245605  -0.019645
     4  H    0.245588  -0.019624
     5  H    0.245607  -0.019628
     6  H    0.245557  -0.019659
     7  H    0.245607  -0.019645
     8  H    0.245576  -0.019661
 Sum of Mulliken charges =   1.00000   1.00000

 Dipole moment (field-independent basis, Debye):
    X=              0.0000    Y=             -0.0000    Z=             -0.0000  Tot=              0.0000
 Quadrupole moment (field-independent basis, Debye-Ang):
   XX=             -5.4757   YY=             -7.0828   ZZ=              1.2348
   XY=              4.7757   XZ=             -8.3529   YZ=             -7.0647

 Normal termination of Gaussian 16 at Tue Nov 19 08:46:18 2024.
