 Gaussian 16, Revision A.03,
 Gaussian 16:  ES64L-G16RevA.03 25-Dec-2016

 --------------------------------------------
 #p opt UM062X/6-311+G** nosymm int=superfine
 --------------------------------------------

 -------------------
 Title Card Required
 -------------------
 Symbolic Z-matrix:
 Charge =  1 Multiplicity = 2

 SCF Done:  E(UM062X) =  -92.8841647637     A.U. after   14 cycles
 SCF Done:  E(UM062X) =  -92.8841872687     A.U. after   11 cycles
 Optimization completed.
    -- Stationary point found.

                          Input orientation:
 ---------------------------------------------------------------------
 Center     Atomic      Atomic             Coordinates (Angstroms)
 Number     Number       Type             X           Y           Z
 ---------------------------------------------------------------------
      1          6           0       -0.676540    0.000000    0.000000
      2          7           0        0.676540    0.000000    0.000000
      3          1           0       -1.776845    0.000000    0.000000
 ---------------------------------------------------------------------

 Alpha  occ. eigenvalues --  -15.23573 -11.06232  -1.37550  -1.04761  -0.84330
 Alpha  occ. eigenvalues --   -0.79477  -0.76446
 Alpha virt. eigenvalues --   -0.38101  -0.35638  -0.21590  -0.16306  -0.11356
 Alpha virt. eigenvalues --   -0.11013  -0.07708  -0.02996  -0.01366  -0.01124
 Alpha virt. eigenvalues --    0.05059   0.11177   0.28041   0.28494   0.33511

  Beta  occ. eigenvalues --  -15.23069 -11.06085  -1.32402  -1.03234  -0.82126
  Beta  occ. eigenvalues --   -0.74219
  Beta virt. eigenvalues --   -0.52024  -0.34026  -0.29713  -0.20414  -0.17001
  Beta virt. eigenvalues --   -0.11251  -0.11107  -0.07445  -0.03129  -0.01840
  Beta virt. eigenvalues --   -0.01333   0.04159   0.11164   0.26118   0.28184

 Mulliken charges and spin densities:
               1          2
     1  C    0.320808   0.397370
     2  N    0.314666   0.617186
     3  H    0.364526  -0.014557
 Sum of Mulliken charges =   1.00000   1.00000

 Dipole moment (field-independent basis, Debye):
    X=             -3.8457    Y=              0.0000    Z=             -0.0000  Tot=              3.8457
 Quadrupole moment (field-independent basis, Debye-Ang):
   XX=             -3.2561   YY=             -8.8997   ZZ=            -10.1076
   XY=             -0.0000   XZ=             -0.0000   YZ=              0.4963

 Normal termination of Gaussian 16 at Mon Apr 21 18:31:17 2025.
