 Gaussian 16, Revision A.03,
 Gaussian 16:  ES64L-G16RevA.03 25-Dec-2016

 --------------------------------------------
 #p opt UM062X/6-311+G** nosymm int=superfine
 --------------------------------------------

 -------------------
 Title Card Required
 -------------------
 Symbolic Z-matrix:
 Charge = -1 Multiplicity = 2

 SCF Done:  E(UM062X) =  -51.8489798127     A.U. after   11 cycles
 SCF Done:  E(UM062X) =  -51.8489935872     A.U. after   13 cycles
 SCF Done:  E(UM062X) =  -51.8489951574     A.U. after   13 cycles
 Optimization completed.
    -- Stationary point found.

                          Input orientation:
 ---------------------------------------------------------------------
 Center     Atomic      Atomic             Coordinates (Angstroms)
 Number     Number       Type             X           Y           Z
 ---------------------------------------------------------------------
      1          5           0       -1.897274    0.000000    0.000000
      2          5           0        1.897274    0.000000    0.000000
      3          1           0       -2.570261   -1.011661    0.000378
      4          1           0        2.570261    1.011661   -0.000096
      5          1           0       -2.570264    1.011659    0.000400
      6          1           0        2.570264   -1.011659    0.000874
 ---------------------------------------------------------------------

 Alpha  occ. eigenvalues --   -6.87295  -6.87295  -0.37509  -0.37342  -0.21558
 Alpha  occ. eigenvalues --   -0.21453  -0.05643  -0.00970
 Alpha virt. eigenvalues --    0.11965   0.13573   0.15314   0.15957   0.16098
 Alpha virt. eigenvalues --    0.17745   0.20215   0.21104   0.21240   0.23320
 Alpha virt. eigenvalues --    0.32373   0.33767   0.34467   0.38048   0.50372

  Beta  occ. eigenvalues --   -6.86684  -6.86684  -0.36201  -0.35964  -0.20891
  Beta  occ. eigenvalues --   -0.20768   0.01292
  Beta virt. eigenvalues --    0.13169   0.13216   0.14486   0.14490   0.17400
  Beta virt. eigenvalues --    0.18088   0.18182   0.22494   0.22751   0.23888
  Beta virt. eigenvalues --    0.25228   0.32421   0.33865   0.34540   0.38847

 Mulliken charges and spin densities:
               1          2
     1  B   -0.338813   0.491678
     2  B   -0.338813   0.491678
     3  H   -0.080593   0.004161
     4  H   -0.080593   0.004161
     5  H   -0.080593   0.004161
     6  H   -0.080593   0.004161
 Sum of Mulliken charges =  -1.00000   1.00000

 Dipole moment (field-independent basis, Debye):
    X=              0.0000    Y=              0.0000    Z=              0.0030  Tot=              0.0030
 Quadrupole moment (field-independent basis, Debye-Ang):
   XX=            -41.5015   YY=            -24.6331   ZZ=            -19.0315
   XY=             -0.0000   XZ=              0.0000   YZ=              0.0013

 Normal termination of Gaussian 16 at Mon Apr 21 17:23:52 2025.
