 Gaussian 16, Revision A.03,
 Gaussian 16:  ES64L-G16RevA.03 25-Dec-2016

 --------------------------------------------
 #p opt UM062X/6-311+G** nosymm int=superfine
 --------------------------------------------

 -------------------
 Title Card Required
 -------------------
 Symbolic Z-matrix:
 Charge =  0 Multiplicity = 3

 SCF Done:  E(UM062X) =  -290.559042891     A.U. after   11 cycles
 SCF Done:  E(UM062X) =  -290.559152263     A.U. after    9 cycles
 SCF Done:  E(UM062X) =  -290.559159217     A.U. after    8 cycles
 Optimization completed.
    -- Stationary point found.

                          Input orientation:
 ---------------------------------------------------------------------
 Center     Atomic      Atomic             Coordinates (Angstroms)
 Number     Number       Type             X           Y           Z
 ---------------------------------------------------------------------
      1         14           0        1.077525   -0.000004    0.000001
      2          1           0        1.835910    1.268658   -0.000797
      3          1           0        1.835918   -1.268661    0.000938
 ---------------------------------------------------------------------

 Alpha  occ. eigenvalues --  -67.01658  -5.56281  -3.87964  -3.87803  -3.87126
 Alpha  occ. eigenvalues --   -0.60430  -0.43133  -0.30918  -0.23568
 Alpha virt. eigenvalues --    0.04129   0.04160   0.04599   0.05659   0.07589
 Alpha virt. eigenvalues --    0.08178   0.29029   0.30490   0.31139   0.36861
 Alpha virt. eigenvalues --    0.41975   0.44629   0.55889   0.55896   0.56720

  Beta  occ. eigenvalues --  -67.00562  -5.55629  -3.86751  -3.86378  -3.86175
  Beta  occ. eigenvalues --   -0.54373  -0.41347
  Beta virt. eigenvalues --   -0.12519  -0.07363   0.01420   0.04241   0.06412
  Beta virt. eigenvalues --    0.07976   0.10057   0.10829   0.26502   0.27443
  Beta virt. eigenvalues --    0.27625   0.37218   0.41053   0.42484   0.61809

 Mulliken charges and spin densities:
               1          2
     1  Si   0.132606   1.916619
     2  H   -0.066303   0.041691
     3  H   -0.066303   0.041691
 Sum of Mulliken charges =  -0.00000   2.00000

 Dipole moment (field-independent basis, Debye):
    X=             -0.1483    Y=             -0.0000    Z=             -0.0000  Tot=              0.1483
 Quadrupole moment (field-independent basis, Debye-Ang):
   XX=            -15.1972   YY=            -15.0654   ZZ=            -16.4918
   XY=              0.0000   XZ=              0.0001   YZ=             -0.0010

 Normal termination of Gaussian 16 at Wed Apr 16 08:54:26 2025.
