 Gaussian 16, Revision A.03,
 Gaussian 16:  ES64L-G16RevA.03 25-Dec-2016

 --------------------------------------------
 #p opt UM062X/6-311+G** nosymm int=superfine
 --------------------------------------------

 -------------------
 Title Card Required
 -------------------
 Symbolic Z-matrix:
 Charge =  1 Multiplicity = 2

 SCF Done:  E(UM062X) =  -580.883298632     A.U. after   14 cycles
 SCF Done:  E(UM062X) =  -580.890730893     A.U. after   12 cycles
 SCF Done:  E(UM062X) =  -580.892752165     A.U. after   11 cycles
 SCF Done:  E(UM062X) =  -580.892758448     A.U. after   14 cycles
 SCF Done:  E(UM062X) =  -580.873125559     A.U. after   15 cycles
 SCF Done:  E(UM062X) =  -580.894265370     A.U. after   16 cycles
 SCF Done:  E(UM062X) =  -580.890702684     A.U. after   16 cycles
 SCF Done:  E(UM062X) =  -580.895097812     A.U. after   14 cycles
 SCF Done:  E(UM062X) =  -580.895251737     A.U. after   15 cycles
 SCF Done:  E(UM062X) =  -580.902009378     A.U. after   17 cycles
 SCF Done:  E(UM062X) =  -580.896669247     A.U. after   17 cycles
 SCF Done:  E(UM062X) =  -580.897647763     A.U. after   16 cycles
 SCF Done:  E(UM062X) =  -580.904170382     A.U. after   15 cycles
 SCF Done:  E(UM062X) =  -580.904106255     A.U. after   16 cycles
 SCF Done:  E(UM062X) =  -580.905211922     A.U. after   16 cycles
 SCF Done:  E(UM062X) =  -580.905360039     A.U. after   13 cycles
 SCF Done:  E(UM062X) =  -580.905362611     A.U. after   11 cycles
 SCF Done:  E(UM062X) =  -580.905362838     A.U. after   11 cycles
 Optimization completed.
    -- Stationary point found.

                          Input orientation:
 ---------------------------------------------------------------------
 Center     Atomic      Atomic             Coordinates (Angstroms)
 Number     Number       Type             X           Y           Z
 ---------------------------------------------------------------------
      1         14           0       -1.741295    0.000000    0.000000
      2         14           0        1.741295    0.000000    0.000000
      3          1           0       -2.636369   -1.184421    0.036717
      4          1           0        1.977514    1.258316   -0.737993
      5          1           0       -2.637123    1.184050    0.029733
      6          1           0        1.977094   -1.254228   -0.745061
 ---------------------------------------------------------------------

 Alpha  occ. eigenvalues --  -67.27371 -67.23843  -5.81703  -5.78374  -4.13116
 Alpha  occ. eigenvalues --   -4.12853  -4.12323  -4.09775  -4.09093  -4.09066
 Alpha  occ. eigenvalues --   -0.81395  -0.77431  -0.63775  -0.59535  -0.52207
 Alpha  occ. eigenvalues --   -0.47638
 Alpha virt. eigenvalues --   -0.27743  -0.26612  -0.13014  -0.12390  -0.10233
 Alpha virt. eigenvalues --   -0.08959  -0.08948  -0.08089  -0.07515  -0.06309
 Alpha virt. eigenvalues --   -0.06211  -0.05755  -0.05373  -0.02348   0.12492

  Beta  occ. eigenvalues --  -67.26769 -67.23821  -5.81270  -5.78356  -4.12648
  Beta  occ. eigenvalues --   -4.12123  -4.11708  -4.09767  -4.09085  -4.09023
  Beta  occ. eigenvalues --   -0.78257  -0.77007  -0.62225  -0.59463  -0.48573
  Beta virt. eigenvalues --   -0.30644  -0.26575  -0.25903  -0.13172  -0.12848
  Beta virt. eigenvalues --   -0.10454  -0.09086  -0.08098  -0.07285  -0.07145
  Beta virt. eigenvalues --   -0.06171  -0.06109  -0.05501  -0.04491  -0.02689

 Mulliken charges and spin densities:
               1          2
     1  Si   0.452517   0.024023
     2  Si   0.587052   0.849139
     3  H   -0.024463   0.003456
     4  H    0.004669   0.059947
     5  H   -0.024440   0.003511
     6  H    0.004666   0.059925
 Sum of Mulliken charges =   1.00000   1.00000

 Dipole moment (field-independent basis, Debye):
    X=              1.0065    Y=              0.0003    Z=             -0.1213  Tot=              1.0138
 Quadrupole moment (field-independent basis, Debye-Ang):
   XX=             -5.0060   YY=            -25.1427   ZZ=            -23.1540
   XY=             -0.0000   XZ=              0.0268   YZ=              0.0088

 Normal termination of Gaussian 16 at Mon Apr 21 20:28:53 2025.
