 Gaussian 16, Revision A.03,
 Gaussian 16:  ES64L-G16RevA.03 25-Dec-2016

 --------------------------------------------
 #p opt UM062X/6-311+G** nosymm int=superfine
 --------------------------------------------

 -------------------
 Title Card Required
 -------------------
 Symbolic Z-matrix:
 Charge =  1 Multiplicity = 2

 SCF Done:  E(UM062X) =  -80.1578632730     A.U. after   15 cycles
 SCF Done:  E(UM062X) =  -80.1586949264     A.U. after   10 cycles
 SCF Done:  E(UM062X) =  -80.1586975959     A.U. after    8 cycles
 Optimization completed.
    -- Stationary point found.

                          Input orientation:
 ---------------------------------------------------------------------
 Center     Atomic      Atomic             Coordinates (Angstroms)
 Number     Number       Type             X           Y           Z
 ---------------------------------------------------------------------
      1          5           0       -1.752734    0.000000    0.000000
      2          7           0        1.752734    0.000000    0.000000
      3          1           0       -2.957991   -0.000253   -0.000000
      4          1           0        2.788267    0.000033    0.000000
 ---------------------------------------------------------------------

 Alpha  occ. eigenvalues --  -14.96211  -7.53476  -1.09222  -0.85983  -0.63195
 Alpha  occ. eigenvalues --   -0.55705  -0.55705
 Alpha virt. eigenvalues --   -0.43787  -0.34564  -0.34564  -0.15224  -0.11429
 Alpha virt. eigenvalues --   -0.09915  -0.09915  -0.06958  -0.03567   0.00959
 Alpha virt. eigenvalues --    0.00959   0.03642   0.07877   0.12917   0.12917

  Beta  occ. eigenvalues --  -14.93747  -7.54716  -0.96403  -0.89585  -0.68026
  Beta  occ. eigenvalues --   -0.57518
  Beta virt. eigenvalues --   -0.35788  -0.35788  -0.20415  -0.20415  -0.14525
  Beta virt. eigenvalues --   -0.10653  -0.09618  -0.09618  -0.07132  -0.02526
  Beta virt. eigenvalues --    0.02911   0.02911   0.06093   0.08354   0.16293

 Mulliken charges and spin densities:
               1          2
     1  B    0.747746  -0.839279
     2  N   -0.245930   2.051032
     3  H    0.223423  -0.143275
     4  H    0.274760  -0.068477
 Sum of Mulliken charges =   1.00000   1.00000

 Dipole moment (field-independent basis, Debye):
    X=             -6.7721    Y=             -0.0001    Z=              0.0000  Tot=              6.7721
 Quadrupole moment (field-independent basis, Debye-Ang):
   XX=             16.0050   YY=            -10.2807   ZZ=            -10.2807
   XY=              0.0005   XZ=              0.0000   YZ=              0.0000

 Normal termination of Gaussian 16 at Mon Apr 21 18:00:14 2025.
