 Gaussian 16, Revision A.03,
 Gaussian 16:  ES64L-G16RevA.03 25-Dec-2016

 ---------------------------------------------------
 #p UM062X/6-311+G** force int=superfine pop=saveNBO
 ---------------------------------------------------

 -------------------
 Title Card Required
 -------------------
 Symbolic Z-matrix:
 Charge =  0 Multiplicity = 1

                         Standard orientation:
 ---------------------------------------------------------------------
 Center     Atomic      Atomic             Coordinates (Angstroms)
 Number     Number       Type             X           Y           Z
 ---------------------------------------------------------------------
      1          8           0        0.000000    0.000000    1.193562
      2          8           0        0.000000    0.000000   -1.193562
 ---------------------------------------------------------------------

 SCF Done:  E(UM062X) =  -149.892195086     A.U. after    9 cycles

 Unable to determine electronic state:  partially filled degenerate orbitals.
 Alpha  occ. eigenvalues --  -19.83775 -19.83769  -1.12081  -1.09165  -0.49731
 Alpha  occ. eigenvalues --   -0.48038  -0.45725  -0.42416
 Alpha virt. eigenvalues --   -0.29057  -0.25298   0.10200   0.12771   0.14929
 Alpha virt. eigenvalues --    0.15012   0.20275   0.20575   0.21483   0.31205
 Alpha virt. eigenvalues --    0.91291   0.97110   0.98176   1.04504   1.05842

  Beta  occ. eigenvalues --  -19.83775 -19.83769  -1.12081  -1.09165  -0.49731
  Beta  occ. eigenvalues --   -0.48038  -0.45725  -0.42416
  Beta virt. eigenvalues --   -0.29057  -0.25298   0.10200   0.12771   0.14929
  Beta virt. eigenvalues --    0.15012   0.20275   0.20575   0.21483   0.31205
  Beta virt. eigenvalues --    0.91291   0.97110   0.98176   1.04504   1.05842

 Mulliken charges and spin densities:
               1          2
     1  O   -0.000000  -0.000000
     2  O   -0.000000  -0.000000
 Sum of Mulliken charges =  -0.00000  -0.00000

 Dipole moment (field-independent basis, Debye):
    X=             -0.0000    Y=             -0.0000    Z=             -0.0000  Tot=              0.0000
 Quadrupole moment (field-independent basis, Debye-Ang):
   XX=            -10.1797   YY=            -11.9475   ZZ=             -9.1525
   XY=              0.0000   XZ=             -0.0000   YZ=              0.0000

 Summary of Natural Population Analysis:

                                       Natural Population
                Natural  -----------------------------------------------
    Atom  No    Charge         Core      Valence    Rydberg      Total
 -----------------------------------------------------------------------
      O    1    0.00000      1.00000     2.99917    0.00083     4.00000
      O    2    0.00000      1.00000     2.99917    0.00083     4.00000
 =======================================================================
   * Total *    0.00000      2.00000     5.99834    0.00166     8.00000

 Normal termination of Gaussian 16 at Mon Apr 21 19:48:22 2025.
