 Gaussian 16, Revision A.03,
 Gaussian 16:  ES64L-G16RevA.03 25-Dec-2016

 --------------------------------------------
 #p opt UM062X/6-311+G** nosymm int=superfine
 --------------------------------------------

 -------------------
 Title Card Required
 -------------------
 Symbolic Z-matrix:
 Charge =  0 Multiplicity = 1

 SCF Done:  E(UM062X) =  -77.2816188630     A.U. after    9 cycles
 SCF Done:  E(UM062X) =  -77.2936973038     A.U. after    9 cycles
 SCF Done:  E(UM062X) =  -77.2937031551     A.U. after    7 cycles
 Optimization completed.
    -- Stationary point found.

                          Input orientation:
 ---------------------------------------------------------------------
 Center     Atomic      Atomic             Coordinates (Angstroms)
 Number     Number       Type             X           Y           Z
 ---------------------------------------------------------------------
      1          6           0       -0.550634    0.000000    0.000000
      2          6           0        0.550634    0.000000    0.000000
      3          1           0       -1.613160    0.000000    0.000000
      4          1           0        1.613159    0.000000   -0.000000
 ---------------------------------------------------------------------

 Alpha  occ. eigenvalues --  -10.52027 -10.51440  -0.87420  -0.63354  -0.56816
 Alpha  occ. eigenvalues --   -0.37604  -0.37604
 Alpha virt. eigenvalues --    0.02711   0.03091   0.06041   0.06041   0.07429
 Alpha virt. eigenvalues --    0.07429   0.09342   0.16389   0.16957   0.16957
 Alpha virt. eigenvalues --    0.20840   0.24713   0.42779   0.44334   0.55664

  Beta  occ. eigenvalues --  -10.52027 -10.51440  -0.87420  -0.63354  -0.56816
  Beta  occ. eigenvalues --   -0.37604  -0.37604
  Beta virt. eigenvalues --    0.02711   0.03091   0.06041   0.06041   0.07429
  Beta virt. eigenvalues --    0.07429   0.09342   0.16389   0.16957   0.16957
  Beta virt. eigenvalues --    0.20840   0.24713   0.42779   0.44334   0.55664

 Mulliken charges and spin densities:
               1          2
     1  C   -0.155127   0.000000
     2  C   -0.155127  -0.000000
     3  H    0.155127   0.000000
     4  H    0.155127  -0.000000
 Sum of Mulliken charges =  -0.00000   0.00000

 Dipole moment (field-independent basis, Debye):
    X=             -0.0000    Y=              0.0000    Z=              0.0000  Tot=              0.0000
 Quadrupole moment (field-independent basis, Debye-Ang):
   XX=             -7.1903   YY=            -13.3098   ZZ=            -13.3098
   XY=             -0.0000   XZ=             -0.0000   YZ=             -0.0000

 Normal termination of Gaussian 16 at Tue Dec  3 20:01:29 2024.
