 Gaussian 16, Revision A.03,
 Gaussian 16:  ES64L-G16RevA.03 25-Dec-2016

 --------------------------------------------
 #p opt UM062X/6-311+G** nosymm int=superfine
 --------------------------------------------

 -------------------
 Title Card Required
 -------------------
 Symbolic Z-matrix:
 Charge =  1 Multiplicity = 2

 SCF Done:  E(UM062X) =  -79.1148017762     A.U. after   19 cycles
 SCF Done:  E(UM062X) =  -79.2001217748     A.U. after   17 cycles
 SCF Done:  E(UM062X) =  -79.2791335172     A.U. after   16 cycles
 SCF Done:  E(UM062X) =  -79.3210172415     A.U. after   10 cycles
 SCF Done:  E(UM062X) =  -79.3232815450     A.U. after   10 cycles
 SCF Done:  E(UM062X) =  -79.3234138373     A.U. after    9 cycles
 SCF Done:  E(UM062X) =  -79.3234406839     A.U. after    9 cycles
 SCF Done:  E(UM062X) =  -79.3234448419     A.U. after    8 cycles
 Optimization completed.
    -- Stationary point found.

                          Input orientation:
 ---------------------------------------------------------------------
 Center     Atomic      Atomic             Coordinates (Angstroms)
 Number     Number       Type             X           Y           Z
 ---------------------------------------------------------------------
      1          6           0       -0.613469    0.000000    0.000000
      2          6           0        0.613469    0.000000    0.000000
      3          1           0        1.176511   -0.804302    0.470617
      4          1           0       -1.095782   -1.002529   -0.276358
      5          1           0        1.095811    1.002563    0.276094
      6          1           0        1.095960    0.250978   -1.008991
      7          1           0       -1.176513    0.804347   -0.470536
      8          1           0       -1.095995   -0.251242    1.008887
 ---------------------------------------------------------------------

 Alpha  occ. eigenvalues --  -10.81172 -10.80960  -1.21961  -0.99745  -0.84222
 Alpha  occ. eigenvalues --   -0.80863  -0.79629  -0.68284  -0.62267
 Alpha virt. eigenvalues --   -0.16192  -0.14105  -0.13221  -0.12113  -0.08700
 Alpha virt. eigenvalues --   -0.07182  -0.06910  -0.06636  -0.04770  -0.02567
 Alpha virt. eigenvalues --   -0.00981  -0.00702   0.06300   0.06443   0.13500

  Beta  occ. eigenvalues --  -10.81108 -10.80884  -1.20427  -0.95958  -0.83343
  Beta  occ. eigenvalues --   -0.78963  -0.74346  -0.66786
  Beta virt. eigenvalues --   -0.42264  -0.16261  -0.14130  -0.12819  -0.12173
  Beta virt. eigenvalues --   -0.08732  -0.06900  -0.06619  -0.04946  -0.04632
  Beta virt. eigenvalues --   -0.02096  -0.00860  -0.00522   0.06410   0.07000

 Mulliken charges and spin densities:
               1          2
     1  C   -0.397898   0.150701
     2  C   -0.397911   0.150692
     3  H    0.252579  -0.009529
     4  H    0.322690   0.179555
     5  H    0.322681   0.179493
     6  H    0.322644   0.179339
     7  H    0.252580  -0.009529
     8  H    0.322635   0.179278
 Sum of Mulliken charges =   1.00000   1.00000

 Dipole moment (field-independent basis, Debye):
    X=             -0.0000    Y=             -0.0003    Z=             -0.0004  Tot=              0.0005
 Quadrupole moment (field-independent basis, Debye-Ang):
   XX=             -6.9414   YY=             -9.9839   ZZ=            -10.7626
   XY=              1.8284   XZ=             -1.0674   YZ=             -0.6908

 Normal termination of Gaussian 16 at Sat Nov 16 15:37:30 2024.
