 Gaussian 16, Revision A.03,
 Gaussian 16:  ES64L-G16RevA.03 25-Dec-2016

 -------------------------------------------------------------------
 #p opt UM062X/6-311+G** nosymm int=superfine SCF=NoVarAcc SCF=tight
 -------------------------------------------------------------------

 -------------------
 Title Card Required
 -------------------
 Symbolic Z-matrix:
 Charge =  1 Multiplicity = 2

 SCF Done:  E(UM062X) =  -79.3143826696     A.U. after   12 cycles
 SCF Done:  E(UM062X) =  -79.3144517303     A.U. after    9 cycles
 SCF Done:  E(UM062X) =  -79.3144720435     A.U. after    9 cycles
 SCF Done:  E(UM062X) =  -79.3144829000     A.U. after    9 cycles
 SCF Done:  E(UM062X) =  -79.3144835476     A.U. after    8 cycles
 Optimization completed.
    -- Stationary point found.

                          Input orientation:
 ---------------------------------------------------------------------
 Center     Atomic      Atomic             Coordinates (Angstroms)
 Number     Number       Type             X           Y           Z
 ---------------------------------------------------------------------
      1          6           0       -5.782675    0.000000    0.000000
      2          6           0        5.782675    0.000000    0.000000
      3          1           0        5.784384   -0.936705    0.542439
      4          1           0       -5.785031   -0.937690   -0.540741
      5          1           0        5.787111    0.938123    0.539969
      6          1           0        5.785872   -0.001423   -1.082427
      7          1           0       -5.786665    0.937173   -0.541604
      8          1           0       -5.785606    0.000336    1.082430
 ---------------------------------------------------------------------

 Alpha  occ. eigenvalues --  -10.79062 -10.79062  -0.97828  -0.97821  -0.69073
 Alpha  occ. eigenvalues --   -0.69071  -0.69071  -0.69070  -0.39587
 Alpha virt. eigenvalues --   -0.37096  -0.08774  -0.08761  -0.05249  -0.05249
 Alpha virt. eigenvalues --   -0.05244  -0.05244  -0.03250  -0.03190   0.04223
 Alpha virt. eigenvalues --    0.04224   0.04225   0.04227   0.04290   0.04309

  Beta  occ. eigenvalues --  -10.78819 -10.78819  -0.95157  -0.95157  -0.68499
  Beta  occ. eigenvalues --   -0.68497  -0.68497  -0.68495
  Beta virt. eigenvalues --   -0.24116  -0.24115  -0.09310  -0.09303  -0.04877
  Beta virt. eigenvalues --   -0.04877  -0.04873  -0.04873  -0.01288  -0.01232
  Beta virt. eigenvalues --    0.04520   0.04521   0.04522   0.04524   0.05748

 Mulliken charges and spin densities:
               1          2
     1  C   -0.191577   0.566883
     2  C   -0.191578   0.566883
     3  H    0.230521  -0.022294
     4  H    0.230520  -0.022295
     5  H    0.230531  -0.022294
     6  H    0.230526  -0.022295
     7  H    0.230535  -0.022294
     8  H    0.230523  -0.022295
 Sum of Mulliken charges =   1.00000   1.00000

 Dipole moment (field-independent basis, Debye):
    X=              0.0000    Y=             -0.0001    Z=              0.0000  Tot=              0.0001
 Quadrupole moment (field-independent basis, Debye-Ang):
   XX=            147.2624   YY=            -11.1265   ZZ=            -11.1270
   XY=              0.0014   XZ=             -0.0002   YZ=             -0.0004

 Normal termination of Gaussian 16 at Tue Dec  3 16:14:02 2024.
