 Gaussian 16, Revision A.03,
 Gaussian 16:  ES64L-G16RevA.03 25-Dec-2016

 --------------------------------------------
 #p opt UM062X/6-311+G** nosymm int=superfine
 --------------------------------------------

 -------------------
 Title Card Required
 -------------------
 Symbolic Z-matrix:
 Charge =  0 Multiplicity = 1

 SCF Done:  E(UM062X) =  -77.3162764114     A.U. after    9 cycles

 Alpha  occ. eigenvalues --  -10.54796 -10.54513  -0.85436  -0.64704  -0.56790
 Alpha  occ. eigenvalues --   -0.35837  -0.35837
 Alpha virt. eigenvalues --    0.02622   0.02857   0.04661   0.04661   0.07621
 Alpha virt. eigenvalues --    0.07621   0.09303   0.14894   0.14894   0.15817
 Alpha virt. eigenvalues --    0.19966   0.24419   0.40149   0.44720   0.56775

  Beta  occ. eigenvalues --  -10.54796 -10.54513  -0.85436  -0.64704  -0.56790
  Beta  occ. eigenvalues --   -0.35837  -0.35837
  Beta virt. eigenvalues --    0.02622   0.02857   0.04661   0.04661   0.07621
  Beta virt. eigenvalues --    0.07621   0.09303   0.14894   0.14894   0.15817
  Beta virt. eigenvalues --    0.19966   0.24419   0.40149   0.44720   0.56775

 Mulliken charges and spin densities:
               1          2
     1  C   -0.174163   0.000000
     2  C   -0.174159  -0.000000
     3  H    0.174163   0.000000
     4  H    0.174159  -0.000000
 Sum of Mulliken charges =  -0.00000  -0.00000

 Dipole moment (field-independent basis, Debye):
    X=             -0.0000    Y=             -0.0000    Z=              0.0000  Tot=              0.0000
 Quadrupole moment (field-independent basis, Debye-Ang):
   XX=             -6.8861   YY=            -13.7930   ZZ=            -13.7930
   XY=             -0.0000   XZ=              0.0000   YZ=              0.0000

 Optimization completed.
    -- Stationary point found.

                          Input orientation:
 ---------------------------------------------------------------------
 Center     Atomic      Atomic             Coordinates (Angstroms)
 Number     Number       Type             X           Y           Z
 ---------------------------------------------------------------------
      1          6           0       -0.598516    0.000000    0.000000
      2          6           0        0.598516    0.000000    0.000000
      3          1           0       -1.662925    0.000000    0.000000
      4          1           0        1.662909    0.000000    0.000000
 ---------------------------------------------------------------------

 Normal termination of Gaussian 16 at Tue Dec  3 20:03:01 2024.
