 Gaussian 16, Revision A.03,
 Gaussian 16:  ES64L-G16RevA.03 25-Dec-2016

 --------------------------------------------
 #p opt UM062X/6-311+G** nosymm int=superfine
 --------------------------------------------

 -------------------
 Title Card Required
 -------------------
 Symbolic Z-matrix:
 Charge =  0 Multiplicity = 1

 SCF Done:  E(UM062X) =  -78.1618095491     A.U. after    8 cycles
 SCF Done:  E(UM062X) =  -78.1630990783     A.U. after    9 cycles
 SCF Done:  E(UM062X) =  -78.1638589613     A.U. after    9 cycles
 SCF Done:  E(UM062X) =  -78.1638608488     A.U. after    8 cycles
 Optimization completed.
    -- Stationary point found.

                          Input orientation:
 ---------------------------------------------------------------------
 Center     Atomic      Atomic             Coordinates (Angstroms)
 Number     Number       Type             X           Y           Z
 ---------------------------------------------------------------------
      1          6           0       -1.510595    0.000000    0.000000
      2          6           0        1.510595    0.000000    0.000000
      3          1           0       -1.886202   -1.009968   -0.000000
      4          1           0       -1.886192    1.009972   -0.000000
      5          1           0        1.886201    1.009968    0.000000
      6          1           0        1.886192   -1.009972    0.000000
 ---------------------------------------------------------------------

 Alpha  occ. eigenvalues --  -10.63292 -10.63288  -0.75700  -0.74547  -0.54067
 Alpha  occ. eigenvalues --   -0.53669  -0.28783  -0.22723
 Alpha virt. eigenvalues --   -0.12212  -0.10369   0.03395   0.05050   0.05233
 Alpha virt. eigenvalues --    0.06863   0.09293   0.10510   0.11034   0.13504
 Alpha virt. eigenvalues --    0.16170   0.18203   0.21446   0.26785   0.41208

  Beta  occ. eigenvalues --  -10.63292 -10.63288  -0.75700  -0.74547  -0.54067
  Beta  occ. eigenvalues --   -0.53669  -0.28783  -0.22723
  Beta virt. eigenvalues --   -0.12212  -0.10369   0.03395   0.05050   0.05233
  Beta virt. eigenvalues --    0.06863   0.09293   0.10510   0.11034   0.13504
  Beta virt. eigenvalues --    0.16170   0.18203   0.21446   0.26785   0.41208

 Mulliken charges and spin densities:
               1          2
     1  C   -0.389835  -0.000003
     2  C   -0.389835   0.000003
     3  H    0.194917   0.000000
     4  H    0.194917   0.000000
     5  H    0.194917  -0.000000
     6  H    0.194917  -0.000000
 Sum of Mulliken charges =  -0.00000  -0.00000

 Dipole moment (field-independent basis, Debye):
    X=             -0.0000    Y=             -0.0000    Z=             -0.0000  Tot=              0.0000
 Quadrupole moment (field-independent basis, Debye-Ang):
   XX=             -9.2782   YY=            -11.7645   ZZ=            -19.1846
   XY=              0.0000   XZ=              0.0000   YZ=              0.0000

 Normal termination of Gaussian 16 at Tue Dec  3 11:09:52 2024.
