 Gaussian 16, Revision A.03,
 Gaussian 16:  ES64L-G16RevA.03 25-Dec-2016

 --------------------------------------------
 #p opt UM062X/6-311+G** nosymm int=superfine
 --------------------------------------------

 -------------------
 Title Card Required
 -------------------
 Symbolic Z-matrix:
 Charge =  0 Multiplicity = 1

 SCF Done:  E(UM062X) =  -115.480614036     A.U. after   15 cycles
 SCF Done:  E(UM062X) =  -115.496785436     A.U. after   11 cycles
 SCF Done:  E(UM062X) =  -115.505970935     A.U. after   11 cycles
 SCF Done:  E(UM062X) =  -115.506133105     A.U. after   11 cycles
 SCF Done:  E(UM062X) =  -115.506242373     A.U. after   10 cycles
 SCF Done:  E(UM062X) =  -115.506282303     A.U. after   11 cycles
 SCF Done:  E(UM062X) =  -115.506287077     A.U. after    9 cycles
 SCF Done:  E(UM062X) =  -115.506287477     A.U. after    9 cycles
 SCF Done:  E(UM062X) =  -115.506287576     A.U. after    7 cycles
 SCF Done:  E(UM062X) =  -115.506287730     A.U. after    9 cycles
 SCF Done:  E(UM062X) =  -115.506287833     A.U. after   10 cycles
 Optimization completed.
    -- Stationary point found.

                          Input orientation:
 ---------------------------------------------------------------------
 Center     Atomic      Atomic             Coordinates (Angstroms)
 Number     Number       Type             X           Y           Z
 ---------------------------------------------------------------------
      1          6           0       -1.507203    0.000000    0.000000
      2          8           0        1.507203    0.000000    0.000000
      3          1           0        1.544992   -0.964886    0.000247
      4          1           0       -1.590230   -0.531764    0.937631
      5          1           0       -1.454885    1.079688   -0.000774
      6          1           0       -1.590275   -0.533109   -0.936863
 ---------------------------------------------------------------------

 Alpha  occ. eigenvalues --  -19.59015 -10.66564  -1.01315  -0.84102  -0.56230
 Alpha  occ. eigenvalues --   -0.55970  -0.45824  -0.32775  -0.29746
 Alpha virt. eigenvalues --   -0.14612   0.00577   0.03980   0.04373   0.06547
 Alpha virt. eigenvalues --    0.13846   0.15352   0.15576   0.20058   0.22963
 Alpha virt. eigenvalues --    0.23018   0.24765   0.30226   0.39554   0.39893

  Beta  occ. eigenvalues --  -19.59015 -10.66564  -1.01315  -0.84102  -0.56230
  Beta  occ. eigenvalues --   -0.55970  -0.45824  -0.32775  -0.29746
  Beta virt. eigenvalues --   -0.14612   0.00577   0.03980   0.04373   0.06547
  Beta virt. eigenvalues --    0.13846   0.15352   0.15576   0.20058   0.22963
  Beta virt. eigenvalues --    0.23018   0.24765   0.30226   0.39554   0.39893

 Mulliken charges and spin densities:
               1          2
     1  C   -0.287643  -0.000000
     2  O   -0.568670   0.000000
     3  H    0.213431  -0.000000
     4  H    0.208975   0.000000
     5  H    0.224942   0.000000
     6  H    0.208964   0.000000
 Sum of Mulliken charges =  -0.00000  -0.00000

 Dipole moment (field-independent basis, Debye):
    X=             -5.3365    Y=             -1.5553    Z=              0.0004  Tot=              5.5585
 Quadrupole moment (field-independent basis, Debye-Ang):
   XX=            -13.2406   YY=            -11.4427   ZZ=            -13.8670
   XY=             -2.5731   XZ=              0.0006   YZ=             -0.0006

 Normal termination of Gaussian 16 at Mon Apr 21 18:43:57 2025.
