 Gaussian 16, Revision A.03,
 Gaussian 16:  ES64L-G16RevA.03 25-Dec-2016

 --------------------------------------------
 #p opt UM062X/6-311+G** nosymm int=superfine
 --------------------------------------------

 -------------------
 Title Card Required
 -------------------
 Symbolic Z-matrix:
 Charge =  1 Multiplicity = 2

 SCF Done:  E(UM062X) =  -580.880964861     A.U. after   14 cycles
 SCF Done:  E(UM062X) =  -580.888235624     A.U. after   12 cycles
 SCF Done:  E(UM062X) =  -580.890221175     A.U. after   11 cycles
 SCF Done:  E(UM062X) =  -580.890223748     A.U. after    9 cycles
 SCF Done:  E(UM062X) =  -580.890224581     A.U. after    9 cycles
 SCF Done:  E(UM062X) =  -580.890582532     A.U. after   16 cycles
 SCF Done:  E(UM062X) =  -580.890596151     A.U. after   11 cycles
 SCF Done:  E(UM062X) =  -580.890799797     A.U. after   14 cycles
 SCF Done:  E(UM062X) =  -580.891072008     A.U. after   16 cycles
 SCF Done:  E(UM062X) =  -580.891579906     A.U. after   16 cycles
 SCF Done:  E(UM062X) =  -580.895081718     A.U. after   17 cycles
 SCF Done:  E(UM062X) =  -580.895645730     A.U. after   18 cycles
 SCF Done:  E(UM062X) =  -580.897949849     A.U. after   16 cycles
 SCF Done:  E(UM062X) =  -580.898402376     A.U. after   15 cycles
 SCF Done:  E(UM062X) =  -580.898408872     A.U. after   14 cycles
 SCF Done:  E(UM062X) =  -580.898408947     A.U. after   10 cycles
 Optimization completed.
    -- Stationary point found.

                          Input orientation:
 ---------------------------------------------------------------------
 Center     Atomic      Atomic             Coordinates (Angstroms)
 Number     Number       Type             X           Y           Z
 ---------------------------------------------------------------------
      1         14           0       -1.816295    0.000000    0.000000
      2         14           0        1.816295    0.000000    0.000000
      3          1           0       -2.722455   -1.178213    0.030656
      4          1           0        2.050685    1.257743   -0.740214
      5          1           0       -2.722741    1.177972    0.031444
      6          1           0        2.050808   -1.255762   -0.743536
 ---------------------------------------------------------------------

 Alpha  occ. eigenvalues --  -67.27988 -67.22972  -5.82311  -5.77514  -4.13710
 Alpha  occ. eigenvalues --   -4.13468  -4.12915  -4.08905  -4.08231  -4.08207
 Alpha  occ. eigenvalues --   -0.81716  -0.76733  -0.64192  -0.58712  -0.52283
 Alpha  occ. eigenvalues --   -0.47080
 Alpha virt. eigenvalues --   -0.28411  -0.26001  -0.12815  -0.12443  -0.10276
 Alpha virt. eigenvalues --   -0.09135  -0.09038  -0.08117  -0.07311  -0.06250
 Alpha virt. eigenvalues --   -0.05842  -0.05663  -0.04965  -0.02449   0.12429

  Beta  occ. eigenvalues --  -67.27389 -67.22944  -5.81878  -5.77492  -4.13273
  Beta  occ. eigenvalues --   -4.12717  -4.12299  -4.08896  -4.08222  -4.08150
  Beta  occ. eigenvalues --   -0.78351  -0.76514  -0.62586  -0.58622  -0.47577
  Beta virt. eigenvalues --   -0.30932  -0.26887  -0.25763  -0.13201  -0.12588
  Beta virt. eigenvalues --   -0.10568  -0.09070  -0.08145  -0.07152  -0.07094
  Beta virt. eigenvalues --   -0.06093  -0.05802  -0.05065  -0.04653  -0.02768

 Mulliken charges and spin densities:
               1          2
     1  Si   0.431812   0.029847
     2  Si   0.615992   0.833438
     3  H   -0.030429   0.004498
     4  H    0.006521   0.063855
     5  H   -0.030418   0.004507
     6  H    0.006522   0.063856
 Sum of Mulliken charges =   1.00000   1.00000

 Dipole moment (field-independent basis, Debye):
    X=              1.6170    Y=              0.0002    Z=             -0.1406  Tot=              1.6231
 Quadrupole moment (field-independent basis, Debye-Ang):
   XX=             -3.5191   YY=            -25.2489   ZZ=            -23.1618
   XY=             -0.0001   XZ=              0.0310   YZ=             -0.0002

 Normal termination of Gaussian 16 at Mon Apr 21 20:28:05 2025.
