 Gaussian 16, Revision A.03,
 Gaussian 16:  ES64L-G16RevA.03 25-Dec-2016

 --------------------------------------------
 #p opt UM062X/6-311+G** nosymm int=superfine
 --------------------------------------------

 -------------------
 Title Card Required
 -------------------
 Symbolic Z-matrix:
 Charge =  1 Multiplicity = 2

 SCF Done:  E(UM062X) =  -1615.53550369     A.U. after   28 cycles
 SCF Done:  E(UM062X) =  -1615.56511532     A.U. after   24 cycles
 SCF Done:  E(UM062X) =  -1615.56618222     A.U. after   27 cycles
 SCF Done:  E(UM062X) =  -1615.56711214     A.U. after   28 cycles
 SCF Done:  E(UM062X) =  -1615.56264222     A.U. after   31 cycles
 SCF Done:  E(UM062X) =  -1615.56640774     A.U. after   27 cycles
 SCF Done:  E(UM062X) =  -1615.56713520     A.U. after   19 cycles
 SCF Done:  E(UM062X) =  -1615.56715104     A.U. after   25 cycles
 SCF Done:  E(UM062X) =  -1615.56717729     A.U. after   26 cycles
 SCF Done:  E(UM062X) =  -1615.56718454     A.U. after   21 cycles
 SCF Done:  E(UM062X) =  -1615.56718692     A.U. after   24 cycles
 SCF Done:  E(UM062X) =  -1615.56718813     A.U. after   19 cycles
 SCF Done:  E(UM062X) =  -1615.56718879     A.U. after   23 cycles
 SCF Done:  E(UM062X) =  -1615.56718915     A.U. after   19 cycles
 SCF Done:  E(UM062X) =  -1615.56718919     A.U. after   19 cycles
 Optimization completed.
    -- Stationary point found.

                          Input orientation:
 ---------------------------------------------------------------------
 Center     Atomic      Atomic             Coordinates (Angstroms)
 Number     Number       Type             X           Y           Z
 ---------------------------------------------------------------------
      1          6           0       -1.726228    0.000000    0.000000
      2          6           0        1.726228    0.000000    0.000000
      3          6           0        0.000011   -2.032614   -0.002220
      4          6           0        0.000008   -3.438712   -0.003749
      5          6           0       -1.132382   -4.279733    0.179336
      6          6           0       -1.343740   -1.458845    0.147033
      7          6           0        0.665325   -5.672305   -0.117331
      8          1           0        1.301670   -6.538711   -0.227417
      9          6           0       -1.709411    0.753409    1.227982
     10          6           0       -0.665333   -5.672542    0.104928
     11          1           0       -1.301686   -6.539181    0.213115
     12          6           0        1.132389   -4.279340   -0.188669
     13          6           0        1.343765   -1.458525   -0.150201
     14          6           0        1.825649    2.180532   -1.362394
     15          6           0       -1.839295    0.423047   -1.369676
     16          6           0       -1.826283    2.747457    2.653512
     17          1           0       -1.930413    3.823384    2.732327
     18          6           0       -2.354258   -3.707329    0.384553
     19          1           0       -3.252927   -4.291682    0.543573
     20          6           0       -1.844723    1.775945   -1.849746
     21          6           0        2.424727   -2.293256   -0.357852
     22          1           0        3.399484   -1.827917   -0.466308
     23          6           0        1.839278    0.420076    1.370594
     24          6           0        1.844513    1.771923    1.853616
     25          6           0        2.354278   -3.706495   -0.392588
     26          1           0        3.252946   -4.290505   -0.552867
     27          6           0       -1.825872    2.177540    1.367145
     28          6           0       -1.525433    0.020167    2.438816
     29          1           0       -1.396903   -1.050163    2.391579
     30          6           0        1.887089   -0.604916    2.368775
     31          1           0        1.910750   -1.639421    2.062247
     32          6           0       -1.690777    1.993106    3.800264
     33          1           0       -1.703046    2.468696    4.773418
     34          6           0       -2.424698   -2.294014    0.352923
     35          1           0       -3.399447   -1.828907    0.462447
     36          6           0       -1.857307    2.013756   -3.238513
     37          1           0       -1.844393    3.043340   -3.576751
     38          6           0        1.709449    0.756078   -1.226347
     39          6           0       -1.872186    3.133837    0.293383
     40          1           0       -1.907246    4.165823    0.628425
     41          6           0       -1.899385    0.997349   -4.165500
     42          1           0       -1.923198    1.223016   -5.224746
     43          6           0       -1.849733    2.966392   -1.044164
     44          1           0       -1.859908    3.884607   -1.623465
     45          6           0        1.857214    2.006700    3.242897
     46          1           0        1.844153    3.035537    3.583390
     47          6           0       -1.522027    0.611976    3.681456
     48          1           0       -1.387531   -0.002254    4.563549
     49          6           0       -1.886897   -0.599767   -2.370106
     50          1           0       -1.910477   -1.634942   -2.065841
     51          6           0        1.899576    0.988272    4.167654
     52          1           0        1.923496    1.211630    5.227387
     53          6           0        1.826133    2.753247   -2.647514
     54          1           0        1.930057    3.829363   -2.723976
     55          6           0        1.931929   -0.335906    3.714675
     56          1           0        1.987907   -1.155392    4.420823
     57          6           0        1.690940    2.001363   -3.795926
     58          1           0        1.703259    2.479071   -4.768041
     59          6           0        1.871589    3.134500   -0.286541
     60          1           0        1.906342    4.167225   -0.619332
     61          6           0       -1.931619   -0.327821   -3.715418
     62          1           0       -1.987412   -1.145769   -4.423362
     63          6           0        1.849148    2.964129    1.050634
     64          1           0        1.859025    3.881079    1.631942
     65          6           0        1.525766    0.025439   -2.438794
     66          1           0        1.397436   -1.045015   -2.393892
     67          6           0        1.522436    0.619947   -3.680146
     68          1           0        1.388181    0.007609   -4.563591
 ---------------------------------------------------------------------

 Alpha  occ. eigenvalues --  -10.70660 -10.70659 -10.68690 -10.68690 -10.68619
 Alpha  occ. eigenvalues --  -10.68619 -10.68265 -10.68265 -10.68246 -10.68246
 Alpha  occ. eigenvalues --  -10.67928 -10.67628 -10.67623 -10.66702 -10.66701
 Alpha  occ. eigenvalues --  -10.66598 -10.66598 -10.65899 -10.65898 -10.65888
 Alpha  occ. eigenvalues --  -10.65888 -10.65726 -10.65726 -10.65655 -10.65655
 Alpha  occ. eigenvalues --  -10.65606 -10.65606 -10.65562 -10.65561 -10.65377
 Alpha  occ. eigenvalues --  -10.65377 -10.65354 -10.65354 -10.65289 -10.65289
 Alpha  occ. eigenvalues --  -10.65132 -10.65132 -10.64802 -10.64801 -10.63933
 Alpha  occ. eigenvalues --  -10.63683 -10.63581  -1.11599  -1.10378  -1.09898
 Alpha  occ. eigenvalues --   -1.08210  -1.07827  -1.05042  -1.04986  -1.02441
 Alpha  occ. eigenvalues --   -1.02158  -1.01026  -1.00094  -0.97898  -0.97657
 Alpha  occ. eigenvalues --   -0.96642  -0.96306  -0.94788  -0.93539  -0.93438
 Alpha  occ. eigenvalues --   -0.92860  -0.91647  -0.87303  -0.87070  -0.84950
 Alpha  occ. eigenvalues --   -0.84810  -0.82964  -0.81530  -0.80583  -0.79715
 Alpha  occ. eigenvalues --   -0.79642  -0.79527  -0.77226  -0.76247  -0.76131
 Alpha  occ. eigenvalues --   -0.75889  -0.75248  -0.73206  -0.70072  -0.69571
 Alpha  occ. eigenvalues --   -0.68606  -0.68499  -0.67738  -0.67632  -0.66881
 Alpha  occ. eigenvalues --   -0.66865  -0.65719  -0.65328  -0.65217  -0.64616
 Alpha  occ. eigenvalues --   -0.63211  -0.62666  -0.62394  -0.62083  -0.60896
 Alpha  occ. eigenvalues --   -0.60884  -0.60502  -0.60120  -0.59987  -0.59903
 Alpha  occ. eigenvalues --   -0.59508  -0.58771  -0.58623  -0.58070  -0.57568
 Alpha  occ. eigenvalues --   -0.57383  -0.57133  -0.55880  -0.55638  -0.55632
 Alpha  occ. eigenvalues --   -0.54902  -0.54143  -0.52981  -0.52835  -0.52572
 Alpha  occ. eigenvalues --   -0.52417  -0.52340  -0.51952  -0.51022  -0.50967
 Alpha  occ. eigenvalues --   -0.50844  -0.50615  -0.49602  -0.49554  -0.49409
 Alpha  occ. eigenvalues --   -0.48310  -0.48129  -0.48031  -0.45710  -0.44671
 Alpha  occ. eigenvalues --   -0.43722  -0.42816  -0.40670  -0.40401  -0.39207
 Alpha  occ. eigenvalues --   -0.38112  -0.37560  -0.36964  -0.29971
 Alpha virt. eigenvalues --   -0.21667  -0.15964  -0.15507  -0.14369  -0.10725
 Alpha virt. eigenvalues --   -0.09941  -0.08915  -0.08568  -0.08321  -0.07600
 Alpha virt. eigenvalues --   -0.07534  -0.07466  -0.06624  -0.06274  -0.06230

  Beta  occ. eigenvalues --  -10.70494 -10.70493 -10.68738 -10.68738 -10.68664
  Beta  occ. eigenvalues --  -10.68664 -10.68219 -10.68219 -10.68206 -10.68206
  Beta  occ. eigenvalues --  -10.67899 -10.67648 -10.67642 -10.66698 -10.66698
  Beta  occ. eigenvalues --  -10.66592 -10.66591 -10.65858 -10.65858 -10.65853
  Beta  occ. eigenvalues --  -10.65853 -10.65694 -10.65694 -10.65626 -10.65626
  Beta  occ. eigenvalues --  -10.65616 -10.65616 -10.65580 -10.65580 -10.65394
  Beta  occ. eigenvalues --  -10.65394 -10.65373 -10.65373 -10.65286 -10.65286
  Beta  occ. eigenvalues --  -10.65120 -10.65120 -10.64801 -10.64800 -10.63929
  Beta  occ. eigenvalues --  -10.63683 -10.63581  -1.11454  -1.10207  -1.09827
  Beta  occ. eigenvalues --   -1.08106  -1.07739  -1.04870  -1.04837  -1.02332
  Beta  occ. eigenvalues --   -1.02064  -1.00845  -0.99932  -0.97796  -0.97563
  Beta  occ. eigenvalues --   -0.96536  -0.96217  -0.94745  -0.93470  -0.93343
  Beta  occ. eigenvalues --   -0.92796  -0.91564  -0.87000  -0.86712  -0.84886
  Beta  occ. eigenvalues --   -0.84750  -0.82890  -0.81434  -0.80491  -0.79635
  Beta  occ. eigenvalues --   -0.79575  -0.79457  -0.77124  -0.76111  -0.75965
  Beta  occ. eigenvalues --   -0.75728  -0.75206  -0.73090  -0.69956  -0.69427
  Beta  occ. eigenvalues --   -0.68498  -0.68383  -0.67695  -0.67589  -0.66763
  Beta  occ. eigenvalues --   -0.66749  -0.65626  -0.65175  -0.65073  -0.64522
  Beta  occ. eigenvalues --   -0.63044  -0.62613  -0.62315  -0.62017  -0.60756
  Beta  occ. eigenvalues --   -0.60673  -0.60383  -0.60032  -0.59933  -0.59661
  Beta  occ. eigenvalues --   -0.59359  -0.58673  -0.58493  -0.57992  -0.57478
  Beta  occ. eigenvalues --   -0.57167  -0.56709  -0.55663  -0.55590  -0.55586
  Beta  occ. eigenvalues --   -0.54867  -0.53853  -0.52884  -0.52751  -0.52519
  Beta  occ. eigenvalues --   -0.52315  -0.52224  -0.51930  -0.50959  -0.50835
  Beta  occ. eigenvalues --   -0.50774  -0.50197  -0.49439  -0.49413  -0.48859
  Beta  occ. eigenvalues --   -0.48229  -0.47777  -0.47423  -0.44934  -0.44192
  Beta  occ. eigenvalues --   -0.43016  -0.42462  -0.40397  -0.40342  -0.38596
  Beta  occ. eigenvalues --   -0.38046  -0.37180  -0.36949
  Beta virt. eigenvalues --   -0.20411  -0.18410  -0.15899  -0.15509  -0.14438
  Beta virt. eigenvalues --   -0.10372  -0.09535  -0.08560  -0.08540  -0.07986
  Beta virt. eigenvalues --   -0.07626  -0.07555  -0.07297  -0.06616  -0.06326

 Mulliken charges and spin densities:
               1          2
     1  C   -0.060923   0.339582
     2  C   -0.060864   0.339671
     3  C    0.388045   0.026525
     4  C    0.103447  -0.008692
     5  C    0.108365   0.008767
     6  C    0.316116  -0.034356
     7  C   -0.376268   0.000615
     8  H    0.176636   0.000007
     9  C   -0.083958  -0.056400
    10  C   -0.376311   0.000616
    11  H    0.176637   0.000007
    12  C    0.108385   0.008757
    13  C    0.316059  -0.034353
    14  C    0.600181   0.040987
    15  C    0.282043  -0.080950
    16  C   -0.431014  -0.037285
    17  H    0.163965   0.001145
    18  C   -0.362299  -0.001220
    19  H    0.175029   0.000059
    20  C    0.358958   0.115344
    21  C   -0.186068   0.033234
    22  H    0.178523  -0.000523
    23  C    0.282024  -0.081012
    24  C    0.358732   0.115387
    25  C   -0.362306  -0.001223
    26  H    0.175027   0.000059
    27  C    0.600547   0.040992
    28  C   -0.088942   0.088899
    29  H    0.215741  -0.005040
    30  C   -0.264169   0.039559
    31  H    0.223336  -0.003917
    32  C   -0.392157   0.065415
    33  H    0.181923  -0.003777
    34  C   -0.186236   0.033193
    35  H    0.178513  -0.000522
    36  C   -0.063123  -0.068716
    37  H    0.159610   0.001459
    38  C   -0.083773  -0.056389
    39  C   -0.368321   0.042210
    40  H    0.163576  -0.001838
    41  C   -0.206868   0.076312
    42  H    0.181475  -0.004073
    43  C   -0.388111   0.006692
    44  H    0.161204  -0.000453
    45  C   -0.063278  -0.068719
    46  H    0.159613   0.001460
    47  C    0.048499  -0.040670
    48  H    0.166692   0.000349
    49  C   -0.264160   0.039516
    50  H    0.223332  -0.003917
    51  C   -0.207037   0.076291
    52  H    0.181479  -0.004072
    53  C   -0.431082  -0.037289
    54  H    0.163962   0.001146
    55  C   -0.511742  -0.031837
    56  H    0.176404   0.001529
    57  C   -0.392109   0.065430
    58  H    0.181919  -0.003777
    59  C   -0.367988   0.042227
    60  H    0.163561  -0.001840
    61  C   -0.511949  -0.031831
    62  H    0.176405   0.001529
    63  C   -0.387802   0.006675
    64  H    0.161182  -0.000454
    65  C   -0.089141   0.088892
    66  H    0.215743  -0.005040
    67  C    0.048419  -0.040700
    68  H    0.166693   0.000349
 Sum of Mulliken charges =   1.00000   1.00000

 Dipole moment (field-independent basis, Debye):
    X=             -0.0005    Y=              2.5859    Z=              0.0027  Tot=              2.5859
 Quadrupole moment (field-independent basis, Debye-Ang):
   XX=           -221.7239   YY=           -174.6276   ZZ=           -176.4867
   XY=             -0.0071   XZ=              2.0505   YZ=              0.0024

 Normal termination of Gaussian 16 at Sat Nov 16 00:20:20 2024.
