 Gaussian 16, Revision A.03,
 Gaussian 16:  ES64L-G16RevA.03 25-Dec-2016

 --------------------------------------------
 #p opt UM062X/6-311+G** nosymm int=superfine
 --------------------------------------------

 -------------------
 Title Card Required
 -------------------
 Symbolic Z-matrix:
 Charge =  0 Multiplicity = 1

 SCF Done:  E(UM062X) =  -382.237634240     A.U. after   15 cycles
 SCF Done:  E(UM062X) =  -382.248132588     A.U. after   11 cycles
 SCF Done:  E(UM062X) =  -382.254397047     A.U. after   13 cycles
 SCF Done:  E(UM062X) =  -382.254505484     A.U. after   10 cycles
 SCF Done:  E(UM062X) =  -382.254561348     A.U. after   11 cycles
 SCF Done:  E(UM062X) =  -382.254605496     A.U. after   10 cycles
 SCF Done:  E(UM062X) =  -382.254618423     A.U. after   11 cycles
 SCF Done:  E(UM062X) =  -382.254620525     A.U. after    9 cycles
 SCF Done:  E(UM062X) =  -382.254621467     A.U. after   10 cycles
 SCF Done:  E(UM062X) =  -382.254622568     A.U. after    8 cycles
 SCF Done:  E(UM062X) =  -382.254623052     A.U. after   10 cycles
 SCF Done:  E(UM062X) =  -382.254623167     A.U. after    7 cycles
 Optimization completed.
    -- Stationary point found.

                          Input orientation:
 ---------------------------------------------------------------------
 Center     Atomic      Atomic             Coordinates (Angstroms)
 Number     Number       Type             X           Y           Z
 ---------------------------------------------------------------------
      1          6           0       -2.006264    0.000000    0.000000
      2         15           0        2.006264    0.000000    0.000000
      3          1           0        1.933059   -1.417413    0.025596
      4          1           0       -2.043869    1.053728    0.234923
      5          1           0        1.932896    0.075690    1.415587
      6          1           0       -2.043851   -0.320957   -1.030787
      7          1           0       -2.075815   -0.730284    0.793144
 ---------------------------------------------------------------------

 Alpha  occ. eigenvalues --  -78.03123 -10.59691  -6.85524  -4.97050  -4.96972
 Alpha  occ. eigenvalues --   -4.96790  -0.78988  -0.69386  -0.51161  -0.51110
 Alpha  occ. eigenvalues --   -0.43550  -0.34647  -0.23543
 Alpha virt. eigenvalues --   -0.12923   0.02145   0.03836   0.03981   0.04526
 Alpha virt. eigenvalues --    0.06224   0.06731   0.07247   0.07298   0.11276
 Alpha virt. eigenvalues --    0.16934   0.18154   0.18213   0.22848   0.30403

  Beta  occ. eigenvalues --  -78.03123 -10.59691  -6.85524  -4.97050  -4.96972
  Beta  occ. eigenvalues --   -4.96790  -0.78988  -0.69386  -0.51161  -0.51110
  Beta  occ. eigenvalues --   -0.43550  -0.34647  -0.23543
  Beta virt. eigenvalues --   -0.12923   0.02145   0.03836   0.03981   0.04526
  Beta virt. eigenvalues --    0.06224   0.06731   0.07247   0.07298   0.11276
  Beta virt. eigenvalues --    0.16934   0.18154   0.18213   0.22848   0.30403

 Mulliken charges and spin densities:
               1          2
     1  C   -0.500557  -0.000000
     2  P   -0.049172   0.000000
     3  H   -0.004174  -0.000000
     4  H    0.186794   0.000000
     5  H   -0.004174  -0.000000
     6  H    0.186771   0.000000
     7  H    0.184512   0.000000
 Sum of Mulliken charges =  -0.00000  -0.00000

 Dipole moment (field-independent basis, Debye):
    X=             -1.6153    Y=             -0.5738    Z=              0.6163  Tot=              1.8216
 Quadrupole moment (field-independent basis, Debye-Ang):
   XX=            -22.3146   YY=            -22.4227   ZZ=            -22.5234
   XY=             -1.2816   XZ=              1.3762   YZ=              0.7031

 Normal termination of Gaussian 16 at Mon Apr 21 19:05:40 2025.
