 Gaussian 16, Revision A.03,
 Gaussian 16:  ES64L-G16RevA.03 25-Dec-2016

 ---------------------------------------------------
 #p UM062X/6-311+G** force int=superfine pop=saveNBO
 ---------------------------------------------------

 -------------------
 Title Card Required
 -------------------
 Symbolic Z-matrix:
 Charge =  0 Multiplicity = 1

                         Standard orientation:
 ---------------------------------------------------------------------
 Center     Atomic      Atomic             Coordinates (Angstroms)
 Number     Number       Type             X           Y           Z
 ---------------------------------------------------------------------
      1         15           0        0.000000    0.000000    2.338495
      2         15           0        0.000000    0.000000   -2.338495
 ---------------------------------------------------------------------

 SCF Done:  E(UM062X) =  -682.245113751     A.U. after    9 cycles

 The electronic state is 1-SGG.
 Alpha  occ. eigenvalues --  -78.11528 -78.11528  -6.93247  -6.93247  -5.04542
 Alpha  occ. eigenvalues --   -5.04542  -5.04530  -5.04530  -5.04530  -5.04530
 Alpha  occ. eigenvalues --   -0.63915  -0.63350  -0.25292  -0.24403  -0.24403
 Alpha virt. eigenvalues --   -0.18184  -0.18184  -0.17111   0.02208   0.03399
 Alpha virt. eigenvalues --    0.04328   0.04328   0.06241   0.06274   0.06274
 Alpha virt. eigenvalues --    0.09891   0.28287   0.30265   0.30265   0.32268

  Beta  occ. eigenvalues --  -78.11528 -78.11528  -6.93247  -6.93247  -5.04542
  Beta  occ. eigenvalues --   -5.04542  -5.04530  -5.04530  -5.04530  -5.04530
  Beta  occ. eigenvalues --   -0.63915  -0.63350  -0.25292  -0.24403  -0.24403
  Beta virt. eigenvalues --   -0.18184  -0.18184  -0.17111   0.02208   0.03399
  Beta virt. eigenvalues --    0.04328   0.04328   0.06241   0.06274   0.06274
  Beta virt. eigenvalues --    0.09891   0.28287   0.30265   0.30265   0.32268

 Mulliken charges and spin densities:
               1          2
     1  P    0.000000   0.000000
     2  P    0.000000   0.000000
 Sum of Mulliken charges =   0.00000   0.00000

 Dipole moment (field-independent basis, Debye):
    X=              0.0000    Y=             -0.0000    Z=              0.0000  Tot=              0.0000
 Quadrupole moment (field-independent basis, Debye-Ang):
   XX=            -29.3595   YY=            -29.3595   ZZ=            -25.1195
   XY=              0.0000   XZ=             -0.0000   YZ=              0.0000

 Summary of Natural Population Analysis:

                                       Natural Population
                Natural  -----------------------------------------------
    Atom  No    Charge         Core      Valence    Rydberg      Total
 -----------------------------------------------------------------------
      P    1   -0.00000      5.00000     2.49960    0.00040     7.50000
      P    2   -0.00000      5.00000     2.49960    0.00040     7.50000
 =======================================================================
   * Total *   -0.00000     10.00000     4.99920    0.00080    15.00000

 Normal termination of Gaussian 16 at Mon Apr 21 21:22:55 2025.
