 Gaussian 16, Revision A.03,
 Gaussian 16:  ES64L-G16RevA.03 25-Dec-2016

 --------------------------------------------
 #p opt UM062X/6-311+G** nosymm int=superfine
 --------------------------------------------

 -------------------
 Title Card Required
 -------------------
 Symbolic Z-matrix:
 Charge = -1 Multiplicity = 2

 SCF Done:  E(UM062X) =  -52.0132407211     A.U. after   11 cycles
 SCF Done:  E(UM062X) =  -52.0138270181     A.U. after    9 cycles
 SCF Done:  E(UM062X) =  -52.0139972098     A.U. after    9 cycles
 SCF Done:  E(UM062X) =  -52.0139933712     A.U. after   10 cycles
 SCF Done:  E(UM062X) =  -52.0139918876     A.U. after   10 cycles
 SCF Done:  E(UM062X) =  -52.0139978010     A.U. after   10 cycles
 SCF Done:  E(UM062X) =  -52.0139980489     A.U. after    9 cycles
 SCF Done:  E(UM062X) =  -52.0139981983     A.U. after    7 cycles
 Optimization completed.
    -- Stationary point found.

                          Input orientation:
 ---------------------------------------------------------------------
 Center     Atomic      Atomic             Coordinates (Angstroms)
 Number     Number       Type             X           Y           Z
 ---------------------------------------------------------------------
      1          5           0       -0.997274    0.000000    0.000000
      2          5           0        0.997274    0.000000    0.000000
      3          1           0       -1.625082   -1.031798    0.000244
      4          1           0        1.625082    1.031798   -0.000247
      5          1           0       -1.625082    1.031798   -0.000245
      6          1           0        1.625082   -1.031798    0.000241
 ---------------------------------------------------------------------

 Alpha  occ. eigenvalues --   -6.82227  -6.82207  -0.37068  -0.31860  -0.20258
 Alpha  occ. eigenvalues --   -0.16841  -0.09418   0.00055
 Alpha virt. eigenvalues --    0.15744   0.17005   0.17918   0.19233   0.19437
 Alpha virt. eigenvalues --    0.22525   0.22676   0.25926   0.26776   0.33983
 Alpha virt. eigenvalues --    0.35816   0.36358   0.39422   0.44084   0.52089

  Beta  occ. eigenvalues --   -6.82203  -6.82187  -0.35087  -0.30704  -0.19910
  Beta  occ. eigenvalues --   -0.16775  -0.08582
  Beta virt. eigenvalues --    0.11689   0.14599   0.15299   0.17044   0.17314
  Beta virt. eigenvalues --    0.18629   0.18914   0.22284   0.23704   0.29044
  Beta virt. eigenvalues --    0.33142   0.35805   0.36527   0.39276   0.44128

 Mulliken charges and spin densities:
               1          2
     1  B   -0.365547   0.545047
     2  B   -0.365547   0.545047
     3  H   -0.067226  -0.022523
     4  H   -0.067226  -0.022523
     5  H   -0.067226  -0.022523
     6  H   -0.067226  -0.022523
 Sum of Mulliken charges =  -1.00000   1.00000

 Dipole moment (field-independent basis, Debye):
    X=             -0.0000    Y=             -0.0000    Z=             -0.0000  Tot=              0.0000
 Quadrupole moment (field-independent basis, Debye-Ang):
   XX=            -29.3929   YY=            -23.2212   ZZ=            -22.9211
   XY=             -0.0000   XZ=              0.0000   YZ=              0.0001

 Normal termination of Gaussian 16 at Mon Apr 21 17:21:02 2025.
