 Gaussian 16, Revision A.03,
 Gaussian 16:  ES64L-G16RevA.03 25-Dec-2016

 --------------------------------------------
 #p opt UM062X/6-311+G** nosymm int=superfine
 --------------------------------------------

 -------------------
 Title Card Required
 -------------------
 Symbolic Z-matrix:
 Charge =  1 Multiplicity = 2

 SCF Done:  E(UM062X) =  -79.3393149597     A.U. after   10 cycles
 SCF Done:  E(UM062X) =  -79.3393685705     A.U. after    8 cycles
 Optimization completed.
    -- Stationary point found.

                          Input orientation:
 ---------------------------------------------------------------------
 Center     Atomic      Atomic             Coordinates (Angstroms)
 Number     Number       Type             X           Y           Z
 ---------------------------------------------------------------------
      1          6           0       -1.512272    0.000000    0.000000
      2          6           0        1.512272    0.000000    0.000000
      3          1           0        1.563476   -0.937250    0.542451
      4          1           0       -1.562199   -0.938362   -0.540644
      5          1           0        1.562941    0.938451    0.540422
      6          1           0        1.562196   -0.001156   -1.082965
      7          1           0       -1.563510    0.937341   -0.542292
      8          1           0       -1.562889    0.000931    1.082934
 ---------------------------------------------------------------------

 Alpha  occ. eigenvalues --  -10.85073 -10.85070  -1.04164  -1.02595  -0.74796
 Alpha  occ. eigenvalues --   -0.74795  -0.74035  -0.74035  -0.52761
 Alpha virt. eigenvalues --   -0.35288  -0.14123  -0.10301  -0.10300  -0.10148
 Alpha virt. eigenvalues --   -0.06228  -0.06228  -0.05357  -0.03242  -0.02240
 Alpha virt. eigenvalues --   -0.02238   0.01353   0.01355   0.05018   0.07624

  Beta  occ. eigenvalues --  -10.84875 -10.84875  -1.01265  -1.00198  -0.74241
  Beta  occ. eigenvalues --   -0.74241  -0.73529  -0.73529
  Beta virt. eigenvalues --   -0.32675  -0.25455  -0.15431  -0.11129  -0.11129
  Beta virt. eigenvalues --   -0.09929  -0.06442  -0.06441  -0.05504  -0.02474
  Beta virt. eigenvalues --   -0.02471  -0.02382   0.01670   0.01672   0.05948

 Mulliken charges and spin densities:
               1          2
     1  C   -0.272997   0.568313
     2  C   -0.272999   0.568313
     3  H    0.257691  -0.022769
     4  H    0.257642  -0.022770
     5  H    0.257670  -0.022770
     6  H    0.257637  -0.022773
     7  H    0.257693  -0.022770
     8  H    0.257663  -0.022774
 Sum of Mulliken charges =   1.00000   1.00000

 Dipole moment (field-independent basis, Debye):
    X=              0.0000    Y=             -0.0000    Z=             -0.0001  Tot=              0.0001
 Quadrupole moment (field-independent basis, Debye-Ang):
   XX=             -0.1521   YY=            -11.0274   ZZ=            -11.0275
   XY=             -0.0014   XZ=              0.0009   YZ=             -0.0000

 Normal termination of Gaussian 16 at Wed Nov 13 12:35:22 2024.
