 Gaussian 16, Revision A.03,
 Gaussian 16:  ES64L-G16RevA.03 25-Dec-2016

 --------------------------------------------
 #p opt UM062X/6-311+G** nosymm int=superfine
 --------------------------------------------

 -------------------
 Title Card Required
 -------------------
 Symbolic Z-matrix:
 Charge =  1 Multiplicity = 2

 SCF Done:  E(UM062X) =  -76.8950792613     A.U. after   21 cycles
 SCF Done:  E(UM062X) =  -76.8972324717     A.U. after    9 cycles
 SCF Done:  E(UM062X) =  -76.8972403539     A.U. after    7 cycles
 Optimization completed.
    -- Stationary point found.

                          Input orientation:
 ---------------------------------------------------------------------
 Center     Atomic      Atomic             Coordinates (Angstroms)
 Number     Number       Type             X           Y           Z
 ---------------------------------------------------------------------
      1          6           0       -0.646196    0.000000    0.000000
      2          6           0        0.646196    0.000000    0.000000
      3          1           0       -1.728776   -0.000000   -0.000000
      4          1           0        1.728776   -0.000000   -0.000000
 ---------------------------------------------------------------------

 Alpha  occ. eigenvalues --  -10.95021 -10.94860  -1.21088  -0.97428  -0.89176
 Alpha  occ. eigenvalues --   -0.71592  -0.68980
 Alpha virt. eigenvalues --   -0.28643  -0.26626  -0.16100  -0.14469  -0.11458
 Alpha virt. eigenvalues --   -0.10160  -0.09912  -0.07090  -0.04883  -0.04463
 Alpha virt. eigenvalues --    0.02243   0.04529   0.14739   0.19102   0.29730

  Beta  occ. eigenvalues --  -10.94778 -10.94639  -1.16393  -0.95826  -0.88636
  Beta  occ. eigenvalues --   -0.66526
  Beta virt. eigenvalues --   -0.45508  -0.24994  -0.22014  -0.15608  -0.15048
  Beta virt. eigenvalues --   -0.11610  -0.10440  -0.10153  -0.06650  -0.04362
  Beta virt. eigenvalues --   -0.03787   0.01940   0.04750   0.15311   0.19967

 Mulliken charges and spin densities:
               1          2
     1  C    0.183420   0.519450
     2  C    0.183419   0.519450
     3  H    0.316580  -0.019450
     4  H    0.316580  -0.019450
 Sum of Mulliken charges =   1.00000   1.00000

 Dipole moment (field-independent basis, Debye):
    X=             -0.0000    Y=             -0.0000    Z=             -0.0000  Tot=              0.0000
 Quadrupole moment (field-independent basis, Debye-Ang):
   XX=             -0.1615   YY=            -10.5937   ZZ=            -10.7499
   XY=             -0.0000   XZ=             -0.0000   YZ=              0.9188

 Normal termination of Gaussian 16 at Tue Nov 19 13:02:13 2024.
