 Gaussian 16, Revision A.03,
 Gaussian 16:  ES64L-G16RevA.03 25-Dec-2016

 ---------------------------------------
 #p UM062X/6-311+G** force int=superfine
 ---------------------------------------

 -------------------
 Title Card Required
 -------------------
 Symbolic Z-matrix:
 Charge =  1 Multiplicity = 2

                         Standard orientation:
 ---------------------------------------------------------------------
 Center     Atomic      Atomic             Coordinates (Angstroms)
 Number     Number       Type             X           Y           Z
 ---------------------------------------------------------------------
      1          6           0        0.537557    0.825201   -1.737656
      2          6           0       -0.537560   -0.825196    1.737657
      3          1           0       -1.444682   -1.223453    1.298696
      4          1           0        0.551644   -0.143872   -2.222278
      5          1           0       -0.551698    0.143417    2.223198
      6          1           0        0.362793   -1.427748    1.758855
      7          1           0        1.444589    1.223657   -1.298690
      8          1           0       -0.362629    1.427972   -1.759787
 ---------------------------------------------------------------------

 SCF Done:  E(UM062X) =  -79.3176701468     A.U. after   10 cycles

 The electronic state is 2-A.
 Alpha  occ. eigenvalues --  -10.83477 -10.83475  -1.02046  -1.01726  -0.73104
 Alpha  occ. eigenvalues --   -0.73104  -0.72998  -0.72998  -0.47359
 Alpha virt. eigenvalues --   -0.37635  -0.12708  -0.10149  -0.09391  -0.09391
 Alpha virt. eigenvalues --   -0.06216  -0.06216  -0.04387  -0.02893  -0.00007
 Alpha virt. eigenvalues --   -0.00004   0.01382   0.01384   0.02646   0.08759

  Beta  occ. eigenvalues --  -10.83256 -10.83256  -0.99389  -0.99193  -0.72580
  Beta  occ. eigenvalues --   -0.72580  -0.72457  -0.72456
  Beta virt. eigenvalues --   -0.32486  -0.26655  -0.16682  -0.10829  -0.10827
  Beta virt. eigenvalues --   -0.10225  -0.06203  -0.06202  -0.05301  -0.01938
  Beta virt. eigenvalues --   -0.00230  -0.00227   0.01642   0.01645   0.02429

 Mulliken charges and spin densities:
               1          2
     1  C   -0.248919   0.557238
     2  C   -0.248919   0.557238
     3  H    0.249659  -0.019076
     4  H    0.249620  -0.019079
     5  H    0.249641  -0.019081
     6  H    0.249619  -0.019081
     7  H    0.249661  -0.019076
     8  H    0.249638  -0.019083
 Sum of Mulliken charges =   1.00000   1.00000

 Dipole moment (field-independent basis, Debye):
    X=              0.0000    Y=             -0.0000    Z=             -0.0000  Tot=              0.0001
 Quadrupole moment (field-independent basis, Debye-Ang):
   XX=             -9.7474   YY=             -7.8928   ZZ=              3.1704
   XY=              2.1000   XZ=             -4.4213   YZ=             -6.7853

 Normal termination of Gaussian 16 at Wed Nov 13 13:06:45 2024.
