 Gaussian 16, Revision A.03,
 Gaussian 16:  ES64L-G16RevA.03 25-Dec-2016

 --------------------------------------------
 #p opt UM062X/6-311+G** nosymm int=superfine
 --------------------------------------------

 -------------------
 Title Card Required
 -------------------
 Symbolic Z-matrix:
 Charge =  1 Multiplicity = 2

 SCF Done:  E(UM062X) =  -1615.58712995     A.U. after   22 cycles
 SCF Done:  E(UM062X) =  -1615.58752103     A.U. after   19 cycles
 SCF Done:  E(UM062X) =  -1615.58276102     A.U. after   21 cycles
 SCF Done:  E(UM062X) =  -1615.58747655     A.U. after   22 cycles
 SCF Done:  E(UM062X) =  -1615.58798856     A.U. after   17 cycles
 SCF Done:  E(UM062X) =  -1615.58595768     A.U. after   24 cycles
 SCF Done:  E(UM062X) =  -1615.58664572     A.U. after   23 cycles
 SCF Done:  E(UM062X) =  -1615.58824634     A.U. after   19 cycles
 SCF Done:  E(UM062X) =  -1615.58829022     A.U. after   23 cycles
 SCF Done:  E(UM062X) =  -1615.58839992     A.U. after   20 cycles
 SCF Done:  E(UM062X) =  -1615.58843010     A.U. after   19 cycles
 SCF Done:  E(UM062X) =  -1615.58843335     A.U. after   15 cycles
 SCF Done:  E(UM062X) =  -1615.58843380     A.U. after   13 cycles
 SCF Done:  E(UM062X) =  -1615.58843386     A.U. after   14 cycles
 SCF Done:  E(UM062X) =  -1615.58843389     A.U. after   13 cycles
 Optimization completed.
    -- Stationary point found.

                          Input orientation:
 ---------------------------------------------------------------------
 Center     Atomic      Atomic             Coordinates (Angstroms)
 Number     Number       Type             X           Y           Z
 ---------------------------------------------------------------------
      1          6           0       -1.440924    0.000000    0.000000
      2          6           0        1.440924    0.000000    0.000000
      3          6           0        0.000004   -2.106159    0.000007
      4          6           0       -0.000005   -3.495270   -0.000003
      5          6           0       -1.133508   -4.309060    0.231114
      6          6           0       -1.271141   -1.477397    0.206075
      7          6           0        0.662632   -5.703756   -0.137103
      8          1           0        1.285866   -6.576566   -0.269604
      9          6           0       -1.564860    0.794132    1.198490
     10          6           0       -0.662645   -5.703752    0.137178
     11          1           0       -1.285881   -6.576558    0.269694
     12          6           0        1.133500   -4.309067   -0.231070
     13          6           0        1.271169   -1.477420   -0.206008
     14          6           0        1.727399    2.215425   -1.274139
     15          6           0       -1.594331    0.369324   -1.386886
     16          6           0       -1.875426    2.825041    2.533801
     17          1           0       -2.013737    3.899566    2.565515
     18          6           0       -2.330419   -3.687837    0.482725
     19          1           0       -3.240186   -4.244355    0.676410
     20          6           0       -1.615447    1.700737   -1.917651
     21          6           0        2.377048   -2.266035   -0.456588
     22          1           0        3.335287   -1.777417   -0.600906
     23          6           0        1.594190    0.369448    1.386861
     24          6           0        1.615243    1.700926    1.917488
     25          6           0        2.330437   -3.687860   -0.482594
     26          1           0        3.240211   -4.244392   -0.676202
     27          6           0       -1.727313    2.215589    1.273869
     28          6           0       -1.489978    0.102981    2.442057
     29          1           0       -1.322010   -0.963075    2.441160
     30          6           0        1.694314   -0.688568    2.344148
     31          1           0        1.714456   -1.712890    2.004985
     32          6           0       -1.847874    2.109422    3.712347
     33          1           0       -1.974801    2.614238    4.662310
     34          6           0       -2.377013   -2.266014    0.456713
     35          1           0       -3.335242   -1.777390    0.601084
     36          6           0       -1.682501    1.886721   -3.313825
     37          1           0       -1.678087    2.903029   -3.690350
     38          6           0        1.564711    0.794008   -1.198587
     39          6           0       -1.692237    3.136562    0.168256
     40          1           0       -1.731384    4.179640    0.466990
     41          6           0       -1.779140    0.837377   -4.198213
     42          1           0       -1.850588    1.023055   -5.263026
     43          6           0       -1.613078    2.921863   -1.159362
     44          1           0       -1.588554    3.817729   -1.772560
     45          6           0        1.681830    1.887060    3.313661
     46          1           0        1.677274    2.903406    3.690082
     47          6           0       -1.633506    0.730726    3.659029
     48          1           0       -1.574257    0.148124    4.570319
     49          6           0       -1.694567   -0.688798   -2.344039
     50          1           0       -1.714554   -1.713088   -2.004766
     51          6           0        1.778249    0.837808    4.198184
     52          1           0        1.849349    1.023603    5.263000
     53          6           0        1.875111    2.824756   -2.534181
     54          1           0        2.013621    3.899251   -2.566040
     55          6           0        1.801589   -0.467809    3.696213
     56          1           0        1.899852   -1.312016    4.367685
     57          6           0        1.846928    2.109056   -3.712661
     58          1           0        1.973501    2.613793   -4.662713
     59          6           0        1.693012    3.136484   -0.168590
     60          1           0        1.732808    4.179518   -0.467391
     61          6           0       -1.802172   -0.468193   -3.696104
     62          1           0       -1.900461   -1.312486   -4.367465
     63          6           0        1.613596    2.921953    1.159046
     64          1           0        1.589514    3.817904    1.772139
     65          6           0        1.489346    0.102751   -2.442068
     66          1           0        1.321317   -0.963295   -2.441027
     67          6           0        1.632450    0.730383   -3.659146
     68          1           0        1.572779    0.147708   -4.570360
 ---------------------------------------------------------------------

 Alpha  occ. eigenvalues --  -10.70871 -10.70870 -10.68596 -10.68595 -10.68569
 Alpha  occ. eigenvalues --  -10.68569 -10.68236 -10.68236 -10.68184 -10.68184
 Alpha  occ. eigenvalues --  -10.67150 -10.67149 -10.66638 -10.66638 -10.66534
 Alpha  occ. eigenvalues --  -10.66534 -10.66505 -10.65975 -10.65975 -10.65812
 Alpha  occ. eigenvalues --  -10.65811 -10.65758 -10.65758 -10.65727 -10.65727
 Alpha  occ. eigenvalues --  -10.65654 -10.65654 -10.65628 -10.65628 -10.65602
 Alpha  occ. eigenvalues --  -10.65601 -10.65461 -10.65460 -10.65452 -10.65451
 Alpha  occ. eigenvalues --  -10.65307 -10.65307 -10.64945 -10.64945 -10.63920
 Alpha  occ. eigenvalues --  -10.63820 -10.63484  -1.12186  -1.10242  -1.10152
 Alpha  occ. eigenvalues --   -1.08377  -1.07790  -1.05544  -1.04908  -1.02560
 Alpha  occ. eigenvalues --   -1.02113  -1.00946  -1.00385  -0.97955  -0.97635
 Alpha  occ. eigenvalues --   -0.96812  -0.96283  -0.94973  -0.93523  -0.93484
 Alpha  occ. eigenvalues --   -0.92839  -0.91821  -0.87392  -0.87319  -0.84992
 Alpha  occ. eigenvalues --   -0.84779  -0.83091  -0.81474  -0.81068  -0.79813
 Alpha  occ. eigenvalues --   -0.79707  -0.79534  -0.77470  -0.76378  -0.76187
 Alpha  occ. eigenvalues --   -0.75834  -0.75408  -0.73475  -0.70227  -0.69671
 Alpha  occ. eigenvalues --   -0.68978  -0.68547  -0.67755  -0.67652  -0.66935
 Alpha  occ. eigenvalues --   -0.66868  -0.65717  -0.65370  -0.65204  -0.64767
 Alpha  occ. eigenvalues --   -0.63262  -0.62867  -0.62388  -0.62142  -0.61057
 Alpha  occ. eigenvalues --   -0.61020  -0.60599  -0.60483  -0.60110  -0.60060
 Alpha  occ. eigenvalues --   -0.59572  -0.58891  -0.58814  -0.58133  -0.57775
 Alpha  occ. eigenvalues --   -0.57566  -0.56895  -0.55965  -0.55666  -0.55652
 Alpha  occ. eigenvalues --   -0.54962  -0.53969  -0.53071  -0.52847  -0.52647
 Alpha  occ. eigenvalues --   -0.52392  -0.52368  -0.52256  -0.51029  -0.50978
 Alpha  occ. eigenvalues --   -0.50967  -0.50897  -0.49997  -0.49523  -0.49439
 Alpha  occ. eigenvalues --   -0.48793  -0.48507  -0.47852  -0.45164  -0.44707
 Alpha  occ. eigenvalues --   -0.44088  -0.42797  -0.40484  -0.40428  -0.39289
 Alpha  occ. eigenvalues --   -0.38167  -0.37550  -0.37115  -0.31183
 Alpha virt. eigenvalues --   -0.20565  -0.15970  -0.15538  -0.14336  -0.10646
 Alpha virt. eigenvalues --   -0.09973  -0.08914  -0.08545  -0.08363  -0.07563
 Alpha virt. eigenvalues --   -0.07523  -0.07439  -0.06653  -0.06356  -0.06143

  Beta  occ. eigenvalues --  -10.70726 -10.70725 -10.68638 -10.68637 -10.68604
  Beta  occ. eigenvalues --  -10.68604 -10.68196 -10.68196 -10.68140 -10.68140
  Beta  occ. eigenvalues --  -10.67169 -10.67167 -10.66633 -10.66632 -10.66525
  Beta  occ. eigenvalues --  -10.66525 -10.66476 -10.65937 -10.65937 -10.65780
  Beta  occ. eigenvalues --  -10.65779 -10.65725 -10.65724 -10.65699 -10.65699
  Beta  occ. eigenvalues --  -10.65653 -10.65653 -10.65646 -10.65646 -10.65620
  Beta  occ. eigenvalues --  -10.65620 -10.65473 -10.65472 -10.65438 -10.65438
  Beta  occ. eigenvalues --  -10.65324 -10.65323 -10.64943 -10.64943 -10.63919
  Beta  occ. eigenvalues --  -10.63820 -10.63481  -1.12031  -1.10081  -1.10067
  Beta  occ. eigenvalues --   -1.08266  -1.07694  -1.05381  -1.04776  -1.02442
  Beta  occ. eigenvalues --   -1.02010  -1.00778  -1.00215  -0.97853  -0.97542
  Beta  occ. eigenvalues --   -0.96697  -0.96185  -0.94925  -0.93458  -0.93388
  Beta  occ. eigenvalues --   -0.92765  -0.91736  -0.87101  -0.86962  -0.84925
  Beta  occ. eigenvalues --   -0.84718  -0.83012  -0.81380  -0.80959  -0.79731
  Beta  occ. eigenvalues --   -0.79639  -0.79463  -0.77360  -0.76226  -0.76038
  Beta  occ. eigenvalues --   -0.75672  -0.75372  -0.73355  -0.70111  -0.69527
  Beta  occ. eigenvalues --   -0.68846  -0.68436  -0.67705  -0.67606  -0.66813
  Beta  occ. eigenvalues --   -0.66763  -0.65637  -0.65225  -0.65064  -0.64669
  Beta  occ. eigenvalues --   -0.63052  -0.62821  -0.62307  -0.62065  -0.60888
  Beta  occ. eigenvalues --   -0.60751  -0.60434  -0.60327  -0.60049  -0.60007
  Beta  occ. eigenvalues --   -0.59445  -0.58759  -0.58728  -0.58062  -0.57580
  Beta  occ. eigenvalues --   -0.57301  -0.56678  -0.55653  -0.55618  -0.55599
  Beta  occ. eigenvalues --   -0.54942  -0.53654  -0.52965  -0.52763  -0.52576
  Beta  occ. eigenvalues --   -0.52308  -0.52262  -0.52202  -0.50959  -0.50897
  Beta  occ. eigenvalues --   -0.50812  -0.50494  -0.49521  -0.49307  -0.48886
  Beta  occ. eigenvalues --   -0.48450  -0.48445  -0.47544  -0.44563  -0.44168
  Beta  occ. eigenvalues --   -0.43365  -0.42452  -0.40362  -0.40109  -0.38696
  Beta  occ. eigenvalues --   -0.38018  -0.37296  -0.37006
  Beta virt. eigenvalues --   -0.21413  -0.17908  -0.15760  -0.15495  -0.14385
  Beta virt. eigenvalues --   -0.10350  -0.09572  -0.08539  -0.08467  -0.08147
  Beta virt. eigenvalues --   -0.07587  -0.07571  -0.07206  -0.06635  -0.06291

 Mulliken charges and spin densities:
               1          2
     1  C    0.013439   0.363165
     2  C    0.013391   0.363063
     3  C    0.260680   0.008506
     4  C    0.191150  -0.003627
     5  C    0.157590   0.005723
     6  C   -0.028127  -0.031673
     7  C   -0.304141   0.000900
     8  H    0.176173  -0.000031
     9  C    0.165316  -0.055771
    10  C   -0.304054   0.000901
    11  H    0.176173  -0.000031
    12  C    0.157643   0.005730
    13  C   -0.028079  -0.031666
    14  C    0.464605   0.034631
    15  C    0.411448  -0.076602
    16  C   -0.382516  -0.032372
    17  H    0.165792   0.001103
    18  C   -0.516392   0.000747
    19  H    0.175920   0.000229
    20  C    0.227801   0.106961
    21  C   -0.088558   0.020393
    22  H    0.174873  -0.000219
    23  C    0.411441  -0.076613
    24  C    0.228167   0.106952
    25  C   -0.516484   0.000745
    26  H    0.175921   0.000229
    27  C    0.464027   0.034545
    28  C    0.007305   0.079143
    29  H    0.207754  -0.003913
    30  C   -0.267273   0.033678
    31  H    0.226251  -0.002613
    32  C   -0.397168   0.056702
    33  H    0.182245  -0.003171
    34  C   -0.088577   0.020411
    35  H    0.174888  -0.000220
    36  C   -0.024594  -0.058026
    37  H    0.161505   0.001515
    38  C    0.165030  -0.055836
    39  C   -0.299162   0.060336
    40  H    0.165842  -0.003332
    41  C   -0.245205   0.065447
    42  H    0.180758  -0.003313
    43  C   -0.330005   0.011619
    44  H    0.160498  -0.000674
    45  C   -0.024384  -0.058010
    46  H    0.161493   0.001514
    47  C   -0.084177  -0.039075
    48  H    0.168652  -0.000110
    49  C   -0.267340   0.033684
    50  H    0.226261  -0.002613
    51  C   -0.245038   0.065480
    52  H    0.180751  -0.003315
    53  C   -0.382393  -0.032391
    54  H    0.165788   0.001103
    55  C   -0.528220  -0.034964
    56  H    0.175802   0.001215
    57  C   -0.396783   0.056710
    58  H    0.182248  -0.003172
    59  C   -0.300248   0.060282
    60  H    0.165877  -0.003327
    61  C   -0.527565  -0.034955
    62  H    0.175799   0.001215
    63  C   -0.330455   0.011641
    64  H    0.160540  -0.000674
    65  C    0.007391   0.079130
    66  H    0.207768  -0.003913
    67  C   -0.083697  -0.039020
    68  H    0.168644  -0.000111
 Sum of Mulliken charges =   1.00000   1.00000

 Dipole moment (field-independent basis, Debye):
    X=             -0.0005    Y=              2.4466    Z=              0.0000  Tot=              2.4466
 Quadrupole moment (field-independent basis, Debye-Ang):
   XX=           -222.5498   YY=           -175.0252   ZZ=           -176.1796
   XY=              0.0025   XZ=             -1.1972   YZ=              0.0004

 Normal termination of Gaussian 16 at Thu Nov  7 21:34:37 2024.
