 Gaussian 16, Revision A.03,
 Gaussian 16:  ES64L-G16RevA.03 25-Dec-2016

 --------------------------------------------
 #p opt UM062X/6-311+G** nosymm int=superfine
 --------------------------------------------

 -------------------
 Title Card Required
 -------------------
 Symbolic Z-matrix:
 Charge =  1 Multiplicity = 2

 SCF Done:  E(UM062X) =  -77.9124392136     A.U. after   10 cycles
 SCF Done:  E(UM062X) =  -77.9583869350     A.U. after    9 cycles
 SCF Done:  E(UM062X) =  -78.0105963399     A.U. after   11 cycles
 SCF Done:  E(UM062X) =  -78.0222584102     A.U. after    9 cycles
 SCF Done:  E(UM062X) =  -78.0239368690     A.U. after    9 cycles
 SCF Done:  E(UM062X) =  -78.0239404467     A.U. after    7 cycles
 Optimization completed.
    -- Stationary point found.

                          Input orientation:
 ---------------------------------------------------------------------
 Center     Atomic      Atomic             Coordinates (Angstroms)
 Number     Number       Type             X           Y           Z
 ---------------------------------------------------------------------
      1          6           0       -1.095683    0.000000    0.000000
      2          6           0        1.095683    0.000000    0.000000
      3          1           0       -1.537112   -0.991632    0.000000
      4          1           0       -1.537074    0.991762    0.000000
      5          1           0        1.537112    0.991632    0.000000
      6          1           0        1.537074   -0.991762    0.000000
 ---------------------------------------------------------------------

 Alpha  occ. eigenvalues --  -10.92363 -10.92351  -1.05435  -1.00401  -0.80298
 Alpha  occ. eigenvalues --   -0.77998  -0.64533  -0.54811
 Alpha virt. eigenvalues --   -0.37417  -0.27855  -0.13952  -0.10939  -0.10325
 Alpha virt. eigenvalues --   -0.08195  -0.07527  -0.07054  -0.04747  -0.03924
 Alpha virt. eigenvalues --   -0.03283  -0.00049   0.01938   0.09253   0.17928

  Beta  occ. eigenvalues --  -10.92121 -10.92114  -1.02463  -0.98112  -0.79818
  Beta  occ. eigenvalues --   -0.77639  -0.62887
  Beta virt. eigenvalues --   -0.34463  -0.28392  -0.25598  -0.15176  -0.11220
  Beta virt. eigenvalues --   -0.10457  -0.07576  -0.07386  -0.07356  -0.04061
  Beta virt. eigenvalues --   -0.03834  -0.02777   0.00485   0.01018   0.10089

 Mulliken charges and spin densities:
               1          2
     1  C   -0.068179   0.541651
     2  C   -0.068179   0.541651
     3  H    0.284083  -0.020825
     4  H    0.284096  -0.020826
     5  H    0.284083  -0.020825
     6  H    0.284096  -0.020826
 Sum of Mulliken charges =   1.00000   1.00000

 Dipole moment (field-independent basis, Debye):
    X=             -0.0000    Y=             -0.0000    Z=              0.0000  Tot=              0.0000
 Quadrupole moment (field-independent basis, Debye-Ang):
   XX=             -0.8660   YY=             -8.0447   ZZ=            -12.6711
   XY=             -0.0003   XZ=             -0.0000   YZ=             -0.0000

 Normal termination of Gaussian 16 at Tue Nov 19 11:29:20 2024.
