 Gaussian 16, Revision A.03,
 Gaussian 16:  ES64L-G16RevA.03 25-Dec-2016

 --------------------------------------------
 #p opt UM062X/6-311+G** nosymm int=superfine
 --------------------------------------------

 -------------------
 Title Card Required
 -------------------
 Symbolic Z-matrix:
 Charge =  0 Multiplicity = 1

 SCF Done:  E(UM062X) =  -81.8179865668     A.U. after   12 cycles
 SCF Done:  E(UM062X) =  -81.8230857766     A.U. after   10 cycles
 SCF Done:  E(UM062X) =  -81.8256621135     A.U. after   12 cycles
 SCF Done:  E(UM062X) =  -81.8210045511     A.U. after   13 cycles
 SCF Done:  E(UM062X) =  -81.8258875839     A.U. after   11 cycles
 SCF Done:  E(UM062X) =  -81.8225736453     A.U. after   13 cycles
 SCF Done:  E(UM062X) =  -81.8200540279     A.U. after   13 cycles
 SCF Done:  E(UM062X) =  -81.8128942479     A.U. after   13 cycles
 SCF Done:  E(UM062X) =  -81.8259566236     A.U. after    9 cycles
 SCF Done:  E(UM062X) =  -81.8299917866     A.U. after   13 cycles
 SCF Done:  E(UM062X) =  -81.8313136758     A.U. after   12 cycles
 SCF Done:  E(UM062X) =  -81.8369861259     A.U. after   13 cycles
 SCF Done:  E(UM062X) =  -81.8408150775     A.U. after   12 cycles
 SCF Done:  E(UM062X) =  -81.8416258554     A.U. after   12 cycles
 SCF Done:  E(UM062X) =  -81.8424893634     A.U. after   11 cycles
 SCF Done:  E(UM062X) =  -81.8425891672     A.U. after   10 cycles
 SCF Done:  E(UM062X) =  -81.8425917126     A.U. after    9 cycles
 Optimization completed.
    -- Stationary point found.

                          Input orientation:
 ---------------------------------------------------------------------
 Center     Atomic      Atomic             Coordinates (Angstroms)
 Number     Number       Type             X           Y           Z
 ---------------------------------------------------------------------
      1          5           0       -1.220399    0.000000    0.000000
      2          7           0        1.220399    0.000000    0.000000
      3          1           0       -1.649154   -1.092976   -0.032488
      4          1           0        1.350476    0.810795    0.608462
      5          1           0       -1.649152    1.092968   -0.032777
      6          1           0        1.350480   -0.810641    0.608666
 ---------------------------------------------------------------------

 Alpha  occ. eigenvalues --  -14.72485  -7.15266  -0.88549  -0.60469  -0.49987
 Alpha  occ. eigenvalues --   -0.47687  -0.35047  -0.29050
 Alpha virt. eigenvalues --   -0.06314  -0.02037   0.01369   0.03273   0.04866
 Alpha virt. eigenvalues --    0.05727   0.11224   0.13818   0.13849   0.16986
 Alpha virt. eigenvalues --    0.20504   0.20841   0.21342   0.29952   0.33496

  Beta  occ. eigenvalues --  -14.72485  -7.15266  -0.88549  -0.60469  -0.49987
  Beta  occ. eigenvalues --   -0.47687  -0.35047  -0.29050
  Beta virt. eigenvalues --   -0.06314  -0.02037   0.01369   0.03273   0.04866
  Beta virt. eigenvalues --    0.05727   0.11224   0.13818   0.13849   0.16986
  Beta virt. eigenvalues --    0.20504   0.20841   0.21342   0.29952   0.33496

 Mulliken charges and spin densities:
               1          2
     1  B    0.195069  -0.000000
     2  N   -0.742444   0.000000
     3  H    0.043972  -0.000000
     4  H    0.229715  -0.000000
     5  H    0.043972  -0.000000
     6  H    0.229715  -0.000000
 Sum of Mulliken charges =  -0.00000  -0.00000

 Dipole moment (field-independent basis, Debye):
    X=             -2.9373    Y=              0.0002    Z=              1.6586  Tot=              3.3733
 Quadrupole moment (field-independent basis, Debye-Ang):
   XX=            -14.8584   YY=            -13.3607   ZZ=            -14.4416
   XY=              0.0003   XZ=              2.6719   YZ=             -0.0001

 Normal termination of Gaussian 16 at Mon Apr 21 17:47:38 2025.
