 Gaussian 16, Revision A.03,
 Gaussian 16:  ES64L-G16RevA.03 25-Dec-2016

 --------------------------------------------
 #p opt UM062X/6-311+G** nosymm int=superfine
 --------------------------------------------

 -------------------
 Title Card Required
 -------------------
 Symbolic Z-matrix:
 Charge =  0 Multiplicity = 1

 SCF Done:  E(UM062X) =  -76.8807519168     A.U. after   15 cycles
 SCF Done:  E(UM062X) =  -76.8815521440     A.U. after   14 cycles
 SCF Done:  E(UM062X) =  -76.8828358013     A.U. after   16 cycles
 SCF Done:  E(UM062X) =  -76.8832349297     A.U. after   21 cycles
 SCF Done:  E(UM062X) =  -76.8833646549     A.U. after   15 cycles
 SCF Done:  E(UM062X) =  -76.8833779993     A.U. after   15 cycles
 SCF Done:  E(UM062X) =  -76.8833782176     A.U. after   17 cycles
 SCF Done:  E(UM062X) =  -76.8833782267     A.U. after   10 cycles
 Optimization completed.
    -- Stationary point found.

                          Input orientation:
 ---------------------------------------------------------------------
 Center     Atomic      Atomic             Coordinates (Angstroms)
 Number     Number       Type             X           Y           Z
 ---------------------------------------------------------------------
      1          6           0       -1.757625    0.000000    0.000000
      2          6           0        1.757625    0.000000    0.000000
      3          1           0       -1.602018   -0.655676    0.891822
      4          1           0        1.601980    0.656007   -0.891571
 ---------------------------------------------------------------------

 Alpha  occ. eigenvalues --  -10.67632 -10.67631  -0.72993  -0.72273  -0.39114
 Alpha  occ. eigenvalues --   -0.38793  -0.24346
 Alpha virt. eigenvalues --   -0.11955  -0.10436  -0.09332   0.03330   0.04677
 Alpha virt. eigenvalues --    0.07245   0.07364   0.09360   0.09787   0.10971
 Alpha virt. eigenvalues --    0.14083   0.18064   0.19555   0.43607   0.45267

  Beta  occ. eigenvalues --  -10.67632 -10.67631  -0.72993  -0.72273  -0.39114
  Beta  occ. eigenvalues --   -0.38793  -0.24346
  Beta virt. eigenvalues --   -0.11955  -0.10436  -0.09332   0.03330   0.04677
  Beta virt. eigenvalues --    0.07245   0.07364   0.09360   0.09787   0.10971
  Beta virt. eigenvalues --    0.14083   0.18064   0.19555   0.43607   0.45267

 Mulliken charges and spin densities:
               1          2
     1  C   -0.144928   0.000004
     2  C   -0.144922  -0.000004
     3  H    0.144925  -0.000000
     4  H    0.144925   0.000000
 Sum of Mulliken charges =   0.00000  -0.00000

 Dipole moment (field-independent basis, Debye):
    X=             -0.0000    Y=              0.0005    Z=              0.0004  Tot=              0.0006
 Quadrupole moment (field-independent basis, Debye-Ang):
   XX=            -16.9042   YY=            -12.9226   ZZ=            -13.7204
   XY=              3.4515   XZ=             -4.6926   YZ=              1.2783

 Normal termination of Gaussian 16 at Tue Dec  3 23:35:56 2024.
