 Gaussian 16, Revision A.03,
 Gaussian 16:  ES64L-G16RevA.03 25-Dec-2016

 --------------------------------------------
 #p opt UM062X/6-311+G** nosymm int=superfine
 --------------------------------------------

 -------------------
 Title Card Required
 -------------------
 Symbolic Z-matrix:
 Charge =  0 Multiplicity = 1

 SCF Done:  E(UM062X) =  -78.2730558449     A.U. after    9 cycles
 SCF Done:  E(UM062X) =  -78.3046973431     A.U. after    8 cycles
 SCF Done:  E(UM062X) =  -78.3192156795     A.U. after    8 cycles
 SCF Done:  E(UM062X) =  -78.3194163690     A.U. after    7 cycles
 SCF Done:  E(UM062X) =  -78.3194200960     A.U. after    6 cycles
 Optimization completed.
    -- Stationary point found.

                          Input orientation:
 ---------------------------------------------------------------------
 Center     Atomic      Atomic             Coordinates (Angstroms)
 Number     Number       Type             X           Y           Z
 ---------------------------------------------------------------------
      1          6           0       -0.497154    0.000000    0.000000
      2          6           0        0.497154    0.000000    0.000000
      3          1           0       -1.139566   -0.887633   -0.000000
      4          1           0       -1.139507    0.887763   -0.000000
      5          1           0        1.139566    0.887633    0.000000
      6          1           0        1.139507   -0.887763    0.000000
 ---------------------------------------------------------------------

 Alpha  occ. eigenvalues --  -10.49213 -10.47818  -0.94191  -0.62874  -0.58108
 Alpha  occ. eigenvalues --   -0.52880  -0.41878  -0.34720
 Alpha virt. eigenvalues --    0.03307   0.04263   0.04355   0.06715   0.06981
 Alpha virt. eigenvalues --    0.08821   0.09829   0.16112   0.17940   0.18222
 Alpha virt. eigenvalues --    0.19038   0.24875   0.34374   0.41622   0.43129

  Beta  occ. eigenvalues --  -10.49213 -10.47818  -0.94191  -0.62874  -0.58108
  Beta  occ. eigenvalues --   -0.52880  -0.41878  -0.34720
  Beta virt. eigenvalues --    0.03307   0.04263   0.04355   0.06715   0.06981
  Beta virt. eigenvalues --    0.08821   0.09829   0.16112   0.17940   0.18222
  Beta virt. eigenvalues --    0.19038   0.24875   0.34374   0.41622   0.43129

 Mulliken charges and spin densities:
               1          2
     1  C   -0.256994  -0.000000
     2  C   -0.256994   0.000000
     3  H    0.128506   0.000000
     4  H    0.128488   0.000000
     5  H    0.128506  -0.000000
     6  H    0.128488  -0.000000
 Sum of Mulliken charges =  -0.00000  -0.00000

 Dipole moment (field-independent basis, Debye):
    X=             -0.0000    Y=             -0.0000    Z=             -0.0000  Tot=              0.0000
 Quadrupole moment (field-independent basis, Debye-Ang):
   XX=            -12.5202   YY=            -12.3850   ZZ=            -14.3231
   XY=              0.0003   XZ=              0.0000   YZ=             -0.0000

 Normal termination of Gaussian 16 at Tue Nov 19 10:25:44 2024.
