 Gaussian 16, Revision A.03,
 Gaussian 16:  ES64L-G16RevA.03 25-Dec-2016

 --------------------------------------------
 #p opt UM062X/6-311+G** nosymm int=superfine
 --------------------------------------------

 -------------------
 Title Card Required
 -------------------
 Symbolic Z-matrix:
 Charge =  0 Multiplicity = 1

 SCF Done:  E(UM062X) =  -94.2648108239     A.U. after   15 cycles
 SCF Done:  E(UM062X) =  -94.2691131353     A.U. after   16 cycles
 SCF Done:  E(UM062X) =  -94.2728582406     A.U. after   16 cycles
 SCF Done:  E(UM062X) =  -94.2733908250     A.U. after   17 cycles
 SCF Done:  E(UM062X) =  -94.2737037369     A.U. after   15 cycles
 SCF Done:  E(UM062X) =  -94.2735364831     A.U. after   18 cycles
 SCF Done:  E(UM062X) =  -94.2737238277     A.U. after   15 cycles
 SCF Done:  E(UM062X) =  -94.2737259250     A.U. after   15 cycles
 SCF Done:  E(UM062X) =  -94.2737340398     A.U. after   19 cycles
 SCF Done:  E(UM062X) =  -94.2737401222     A.U. after   14 cycles
 SCF Done:  E(UM062X) =  -94.2737410699     A.U. after   15 cycles
 Optimization completed.
    -- Stationary point found.

                          Input orientation:
 ---------------------------------------------------------------------
 Center     Atomic      Atomic             Coordinates (Angstroms)
 Number     Number       Type             X           Y           Z
 ---------------------------------------------------------------------
      1          6           0       -1.431637    0.000000    0.000000
      2          7           0        1.431637    0.000000    0.000000
      3          1           0       -2.257842   -0.730684   -0.001763
      4          1           0        1.228491   -1.015103    0.000900
      5          1           0       -1.903864    0.994958    0.000452
 ---------------------------------------------------------------------

 Alpha  occ. eigenvalues --  -14.79512 -10.64621  -0.85916  -0.78402  -0.51271
 Alpha  occ. eigenvalues --   -0.42753  -0.34481  -0.30144
 Alpha virt. eigenvalues --   -0.10734  -0.08339   0.01374   0.05367   0.06809
 Alpha virt. eigenvalues --    0.07660   0.12667   0.14443   0.16794   0.17506
 Alpha virt. eigenvalues --    0.18980   0.20089   0.26302   0.42733   0.45984

  Beta  occ. eigenvalues --  -14.79512 -10.64621  -0.85916  -0.78402  -0.51271
  Beta  occ. eigenvalues --   -0.42753  -0.34481  -0.30144
  Beta virt. eigenvalues --   -0.10734  -0.08339   0.01374   0.05367   0.06809
  Beta virt. eigenvalues --    0.07660   0.12667   0.14443   0.16794   0.17506
  Beta virt. eigenvalues --    0.18980   0.20089   0.26302   0.42733   0.45984

 Mulliken charges and spin densities:
               1          2
     1  C   -0.291476  -0.000000
     2  N   -0.227233   0.000000
     3  H    0.161267   0.000000
     4  H    0.195459   0.000000
     5  H    0.161983   0.000000
 Sum of Mulliken charges =  -0.00000  -0.00000

 Dipole moment (field-independent basis, Debye):
    X=             -3.4831    Y=             -1.2031    Z=             -0.0005  Tot=              3.6850
 Quadrupole moment (field-independent basis, Debye-Ang):
   XX=             -9.2951   YY=            -12.6803   ZZ=            -15.0322
   XY=             -2.7446   XZ=              0.0016   YZ=             -0.0022

 Normal termination of Gaussian 16 at Mon Apr 21 18:25:38 2025.
