 Gaussian 16, Revision A.03,
 Gaussian 16:  ES64L-G16RevA.03 25-Dec-2016

 --------------------------------------------
 #p opt UM062X/6-311+G** nosymm int=superfine
 --------------------------------------------

 -------------------
 Title Card Required
 -------------------
 Symbolic Z-matrix:
 Charge =  0 Multiplicity = 1

 SCF Done:  E(UM062X) =  -114.086101438     A.U. after   18 cycles
 SCF Done:  E(UM062X) =  -114.088665100     A.U. after   10 cycles
 SCF Done:  E(UM062X) =  -114.089473532     A.U. after    9 cycles
 SCF Done:  E(UM062X) =  -114.089477523     A.U. after    8 cycles
 Optimization completed.
    -- Stationary point found.

                          Input orientation:
 ---------------------------------------------------------------------
 Center     Atomic      Atomic             Coordinates (Angstroms)
 Number     Number       Type             X           Y           Z
 ---------------------------------------------------------------------
      1          6           0       -1.823311    0.000000    0.000000
      2          8           0        1.823311    0.000000    0.000000
      3          1           0       -2.507490   -0.869300    0.000002
      4          1           0       -2.507495    0.869296    0.000002
 ---------------------------------------------------------------------

 Alpha  occ. eigenvalues --  -19.74514 -10.62658  -1.04280  -0.77117  -0.49379
 Alpha  occ. eigenvalues --   -0.43179  -0.43174  -0.32823
 Alpha virt. eigenvalues --   -0.17297  -0.09565   0.01722   0.06016   0.07912
 Alpha virt. eigenvalues --    0.08314   0.15837   0.16585   0.18531   0.19527
 Alpha virt. eigenvalues --    0.21637   0.25512   0.43661   0.47328   0.57694

  Beta  occ. eigenvalues --  -19.74514 -10.62658  -1.04280  -0.77117  -0.49379
  Beta  occ. eigenvalues --   -0.43179  -0.43174  -0.32823
  Beta virt. eigenvalues --   -0.17297  -0.09565   0.01722   0.06016   0.07912
  Beta virt. eigenvalues --    0.08314   0.15837   0.16585   0.18531   0.19527
  Beta virt. eigenvalues --    0.21637   0.25512   0.43661   0.47328   0.57694

 Mulliken charges and spin densities:
               1          2
     1  C   -0.265391  -0.000000
     2  O   -0.019311   0.000000
     3  H    0.142351  -0.000000
     4  H    0.142351   0.000000
 Sum of Mulliken charges =  -0.00000  -0.00000

 Dipole moment (field-independent basis, Debye):
    X=             -2.7179    Y=             -0.0000    Z=              0.0000  Tot=              2.7179
 Quadrupole moment (field-independent basis, Debye-Ang):
   XX=             -5.1828   YY=            -13.1186   ZZ=            -12.4929
   XY=              0.0000   XZ=             -0.0000   YZ=             -0.0000

 Normal termination of Gaussian 16 at Mon Apr 21 18:56:25 2025.
