 Gaussian 16, Revision A.03,
 Gaussian 16:  ES64L-G16RevA.03 25-Dec-2016

 ---------------------------------------
 #p UM062X/6-311+G** force int=superfine
 ---------------------------------------

 -------------------
 Title Card Required
 -------------------
 Symbolic Z-matrix:
 Charge =  1 Multiplicity = 2

                         Standard orientation:
 ---------------------------------------------------------------------
 Center     Atomic      Atomic             Coordinates (Angstroms)
 Number     Number       Type             X           Y           Z
 ---------------------------------------------------------------------
      1          6           0        0.727352    0.000131   -0.019101
      2          6           0       -0.727352   -0.000131    0.019101
      3          1           0       -0.750267    0.004599   -1.153833
      4          1           0        1.234669   -0.915260   -0.320269
      5          1           0       -1.234656    0.915271    0.320256
      6          1           0       -1.234155   -0.917981    0.313508
      7          1           0        0.750268   -0.004622    1.153834
      8          1           0        1.234141    0.917995   -0.313496
 ---------------------------------------------------------------------

 SCF Done:  E(UM062X) =  -79.3696054791     A.U. after   11 cycles

 The electronic state is 2-A.
 Alpha  occ. eigenvalues --  -10.84093 -10.84041  -1.18709  -0.98717  -0.82536
 Alpha  occ. eigenvalues --   -0.81049  -0.75719  -0.69719  -0.65444
 Alpha virt. eigenvalues --   -0.17301  -0.12726  -0.12280  -0.11957  -0.10881
 Alpha virt. eigenvalues --   -0.07783  -0.06451  -0.05695  -0.05223  -0.02137
 Alpha virt. eigenvalues --   -0.00546   0.02162   0.03671   0.04772   0.06353

  Beta  occ. eigenvalues --  -10.83914 -10.83860  -1.16038  -0.95788  -0.80294
  Beta  occ. eigenvalues --   -0.76634  -0.74429  -0.69112
  Beta virt. eigenvalues --   -0.43567  -0.17169  -0.12837  -0.11880  -0.11817
  Beta virt. eigenvalues --   -0.10458  -0.07804  -0.06468  -0.05394  -0.03454
  Beta virt. eigenvalues --   -0.01898  -0.00135   0.02478   0.04393   0.05547

 Mulliken charges and spin densities:
               1          2
     1  C   -0.393925   0.259271
     2  C   -0.393923   0.259271
     3  H    0.331595   0.246706
     4  H    0.281207  -0.002945
     5  H    0.281207  -0.002946
     6  H    0.281122  -0.003031
     7  H    0.331596   0.246707
     8  H    0.281122  -0.003032
 Sum of Mulliken charges =   1.00000   1.00000

 Dipole moment (field-independent basis, Debye):
    X=              0.0000    Y=             -0.0000    Z=              0.0000  Tot=              0.0000
 Quadrupole moment (field-independent basis, Debye-Ang):
   XX=             -8.1741   YY=            -10.9356   ZZ=             -9.6336
   XY=             -0.0048   XZ=              0.8390   YZ=             -0.0063

 Normal termination of Gaussian 16 at Tue Nov 19 08:42:25 2024.
