 Gaussian 16, Revision A.03,
 Gaussian 16:  ES64L-G16RevA.03 25-Dec-2016

 --------------------------------------------
 #p opt UM062X/6-311+G** nosymm int=superfine
 --------------------------------------------

 -------------------
 Title Card Required
 -------------------
 Symbolic Z-matrix:
 Charge =  0 Multiplicity = 1

 SCF Done:  E(UM062X) =  -83.1319855236     A.U. after   10 cycles
 SCF Done:  E(UM062X) =  -83.1458413676     A.U. after    9 cycles
 SCF Done:  E(UM062X) =  -83.1482304621     A.U. after    9 cycles
 SCF Done:  E(UM062X) =  -83.1482412684     A.U. after    7 cycles
 Optimization completed.
    -- Stationary point found.

                          Input orientation:
 ---------------------------------------------------------------------
 Center     Atomic      Atomic             Coordinates (Angstroms)
 Number     Number       Type             X           Y           Z
 ---------------------------------------------------------------------
      1          5           0       -1.502429    0.000000    0.000000
      2          7           0        1.502429    0.000000    0.000000
      3          1           0        1.861785   -0.947014    0.000000
      4          1           0       -1.535672   -0.594246    1.029227
      5          1           0        1.861667    0.473565   -0.820161
      6          1           0        1.861655    0.473560    0.820169
      7          1           0       -1.535678    1.188456    0.000016
      8          1           0       -1.535685   -0.594221   -1.029240
 ---------------------------------------------------------------------

 Alpha  occ. eigenvalues --  -14.74109  -7.03249  -0.97116  -0.56464  -0.54997
 Alpha  occ. eigenvalues --   -0.54997  -0.38880  -0.38879  -0.35451
 Alpha virt. eigenvalues --   -0.00861   0.02117   0.04830   0.04830   0.06134
 Alpha virt. eigenvalues --    0.08524   0.10973   0.10973   0.17348   0.17348
 Alpha virt. eigenvalues --    0.18166   0.19954   0.19954   0.23113   0.28990

  Beta  occ. eigenvalues --  -14.74109  -7.03249  -0.97116  -0.56464  -0.54997
  Beta  occ. eigenvalues --   -0.54997  -0.38880  -0.38879  -0.35451
  Beta virt. eigenvalues --   -0.00861   0.02117   0.04830   0.04830   0.06134
  Beta virt. eigenvalues --    0.08524   0.10973   0.10973   0.17348   0.17348
  Beta virt. eigenvalues --    0.18166   0.19954   0.19954   0.23113   0.28990

 Mulliken charges and spin densities:
               1          2
     1  B    0.014618  -0.000000
     2  N   -0.749139   0.000000
     3  H    0.255261  -0.000000
     4  H   -0.010421   0.000000
     5  H    0.255262  -0.000000
     6  H    0.255262  -0.000000
     7  H   -0.010423   0.000000
     8  H   -0.010421   0.000000
 Sum of Mulliken charges =  -0.00000   0.00000

 Dipole moment (field-independent basis, Debye):
    X=              2.3757    Y=              0.0002    Z=              0.0000  Tot=              2.3757
 Quadrupole moment (field-independent basis, Debye-Ang):
   XX=            -11.8200   YY=            -15.7471   ZZ=            -15.7472
   XY=              0.0000   XZ=             -0.0000   YZ=              0.0000

 Normal termination of Gaussian 16 at Mon Apr 21 17:36:03 2025.
