 Gaussian 16, Revision A.03,
 Gaussian 16:  ES64L-G16RevA.03 25-Dec-2016

 --------------------------------------------
 #p opt UM062X/6-311+G** nosymm int=superfine
 --------------------------------------------

 -------------------
 Title Card Required
 -------------------
 Symbolic Z-matrix:
 Charge =  0 Multiplicity = 1

 SCF Done:  E(UM062X) =  -92.8257008901     A.U. after   14 cycles
 SCF Done:  E(UM062X) =  -92.8276691911     A.U. after   11 cycles
 SCF Done:  E(UM062X) =  -92.8276798828     A.U. after   10 cycles
 Optimization completed.
    -- Stationary point found.

                          Input orientation:
 ---------------------------------------------------------------------
 Center     Atomic      Atomic             Coordinates (Angstroms)
 Number     Number       Type             X           Y           Z
 ---------------------------------------------------------------------
      1          6           0       -1.797395    0.000000    0.000000
      2          7           0        1.797395    0.000000    0.000000
      3          1           0       -2.922903   -0.000000    0.000000
 ---------------------------------------------------------------------

 Alpha  occ. eigenvalues --  -14.81742 -10.76279  -0.80231  -0.76457  -0.45379
 Alpha  occ. eigenvalues --   -0.26384  -0.26384
 Alpha virt. eigenvalues --   -0.18109  -0.18109  -0.08034  -0.00039   0.06348
 Alpha virt. eigenvalues --    0.06348   0.07885   0.12691   0.16070   0.17328
 Alpha virt. eigenvalues --    0.17328   0.23652   0.42000   0.52046   0.52046

  Beta  occ. eigenvalues --  -14.81742 -10.76279  -0.80231  -0.76457  -0.45379
  Beta  occ. eigenvalues --   -0.26384  -0.26384
  Beta virt. eigenvalues --   -0.18109  -0.18109  -0.08034  -0.00039   0.06348
  Beta virt. eigenvalues --    0.06348   0.07885   0.12691   0.16070   0.17328
  Beta virt. eigenvalues --    0.17328   0.23652   0.42000   0.52046   0.52046

 Mulliken charges and spin densities:
               1          2
     1  C    0.072585   0.000000
     2  N   -0.246090  -0.000000
     3  H    0.173505  -0.000000
 Sum of Mulliken charges =  -0.00000  -0.00000

 Dipole moment (field-independent basis, Debye):
    X=             -6.1407    Y=             -0.0000    Z=              0.0000  Tot=              6.1407
 Quadrupole moment (field-independent basis, Debye-Ang):
   XX=             -4.5645   YY=            -14.2478   ZZ=            -14.2478
   XY=              0.0000   XZ=             -0.0000   YZ=              0.0000

 Normal termination of Gaussian 16 at Mon Apr 21 18:39:57 2025.
