 Gaussian 16, Revision A.03,
 Gaussian 16:  ES64L-G16RevA.03 25-Dec-2016

 ---------------------------------------------------------
 #p opt UM062X/6-311+G** nosymm int=superfine SCF=NoVarAcc
 ---------------------------------------------------------

 -------------------
 Title Card Required
 -------------------
 Symbolic Z-matrix:
 Charge =  1 Multiplicity = 2

 SCF Done:  E(UM062X) =  -77.9060897849     A.U. after   10 cycles
 SCF Done:  E(UM062X) =  -77.9100529381     A.U. after    9 cycles
 SCF Done:  E(UM062X) =  -77.9125810350     A.U. after    9 cycles
 SCF Done:  E(UM062X) =  -77.9125843825     A.U. after    8 cycles
 Optimization completed.
    -- Stationary point found.

                          Input orientation:
 ---------------------------------------------------------------------
 Center     Atomic      Atomic             Coordinates (Angstroms)
 Number     Number       Type             X           Y           Z
 ---------------------------------------------------------------------
      1          6           0       -1.856027    0.000000    0.000000
      2          6           0        1.856027    0.000000    0.000000
      3          1           0       -2.413868   -0.942693   -0.000000
      4          1           0       -2.413813    0.942725   -0.000000
      5          1           0        2.413868    0.942693    0.000000
      6          1           0        2.413813   -0.942725    0.000000
 ---------------------------------------------------------------------

 Alpha  occ. eigenvalues --  -10.88780 -10.88780  -1.00063  -0.99953  -0.74739
 Alpha  occ. eigenvalues --   -0.74680  -0.58663  -0.56635
 Alpha virt. eigenvalues --   -0.32048  -0.31561  -0.12830  -0.10891  -0.09257
 Alpha virt. eigenvalues --   -0.07288  -0.06540  -0.05446  -0.04316  -0.01666
 Alpha virt. eigenvalues --   -0.00562   0.00140   0.02133   0.06002   0.27107

  Beta  occ. eigenvalues --  -10.87964 -10.87963  -0.97868  -0.97623  -0.73705
  Beta  occ. eigenvalues --   -0.73633  -0.47753
  Beta virt. eigenvalues --   -0.35619  -0.30197  -0.29571  -0.12618  -0.10985
  Beta virt. eigenvalues --   -0.09085  -0.07071  -0.06588  -0.04533  -0.03789
  Beta virt. eigenvalues --   -0.01393   0.00100   0.00541   0.02222   0.06757

 Mulliken charges and spin densities:
               1          2
     1  C    0.020883   0.486265
     2  C    0.020883   0.486265
     3  H    0.239559   0.006868
     4  H    0.239558   0.006868
     5  H    0.239559   0.006868
     6  H    0.239558   0.006868
 Sum of Mulliken charges =   1.00000   1.00000

 Dipole moment (field-independent basis, Debye):
    X=              0.0000    Y=             -0.0000    Z=             -0.0000  Tot=              0.0000
 Quadrupole moment (field-independent basis, Debye-Ang):
   XX=             16.5393   YY=             -9.4266   ZZ=            -10.7415
   XY=             -0.0000   XZ=              0.0000   YZ=              0.0000

 Normal termination of Gaussian 16 at Tue Dec  3 13:31:24 2024.
