 Gaussian 16, Revision A.03,
 Gaussian 16:  ES64L-G16RevA.03 25-Dec-2016

 --------------------------------------------
 #p opt UM062X/6-311+G** nosymm int=superfine
 --------------------------------------------

 -------------------
 Title Card Required
 -------------------
 Symbolic Z-matrix:
 Charge =  0 Multiplicity = 1

 SCF Done:  E(UM062X) =  -581.143002450     A.U. after    9 cycles
 SCF Done:  E(UM062X) =  -581.162590635     A.U. after    8 cycles
 SCF Done:  E(UM062X) =  -581.174498022     A.U. after    8 cycles
 SCF Done:  E(UM062X) =  -581.174517996     A.U. after    7 cycles
 Optimization completed.
    -- Stationary point found.

                          Input orientation:
 ---------------------------------------------------------------------
 Center     Atomic      Atomic             Coordinates (Angstroms)
 Number     Number       Type             X           Y           Z
 ---------------------------------------------------------------------
      1         14           0       -2.462518    0.000000    0.000000
      2         14           0        2.462518    0.000000    0.000000
      3          1           0       -3.525088   -1.084391    0.000044
      4          1           0        3.525088    1.084391   -0.000542
      5          1           0       -3.525093    1.084387    0.000261
      6          1           0        3.525093   -1.084386    0.000847
 ---------------------------------------------------------------------

 Alpha  occ. eigenvalues --  -67.01318 -67.01318  -5.56040  -5.56040  -3.87288
 Alpha  occ. eigenvalues --   -3.87288  -3.86746  -3.86746  -3.86603  -3.86603
 Alpha  occ. eigenvalues --   -0.57285  -0.57238  -0.37876  -0.37859  -0.28856
 Alpha  occ. eigenvalues --   -0.27488
 Alpha virt. eigenvalues --   -0.08112  -0.07633   0.02079   0.02504   0.02963
 Alpha virt. eigenvalues --    0.04545   0.05539   0.06047   0.06164   0.07393
 Alpha virt. eigenvalues --    0.07853   0.08987   0.11366   0.13939   0.28639

  Beta  occ. eigenvalues --  -67.01318 -67.01318  -5.56040  -5.56040  -3.87288
  Beta  occ. eigenvalues --   -3.87288  -3.86746  -3.86746  -3.86603  -3.86603
  Beta  occ. eigenvalues --   -0.57285  -0.57238  -0.37876  -0.37859  -0.28856
  Beta  occ. eigenvalues --   -0.27488
  Beta virt. eigenvalues --   -0.08112  -0.07633   0.02079   0.02504   0.02963
  Beta virt. eigenvalues --    0.04545   0.05539   0.06047   0.06164   0.07393
  Beta virt. eigenvalues --    0.07853   0.08987   0.11366   0.13939   0.28639

 Mulliken charges and spin densities:
               1          2
     1  Si   0.323177  -0.000000
     2  Si   0.323177   0.000000
     3  H   -0.161589   0.000000
     4  H   -0.161589  -0.000000
     5  H   -0.161589  -0.000000
     6  H   -0.161589  -0.000000
 Sum of Mulliken charges =  -0.00000  -0.00000

 Dipole moment (field-independent basis, Debye):
    X=              0.0000    Y=              0.0000    Z=              0.0001  Tot=              0.0001
 Quadrupole moment (field-independent basis, Debye-Ang):
   XX=            -35.0785   YY=            -32.7126   ZZ=            -24.3693
   XY=             -0.0000   XZ=              0.0000   YZ=              0.0023

 Normal termination of Gaussian 16 at Mon Apr 21 20:35:21 2025.
