 Gaussian 16, Revision A.03,
 Gaussian 16:  ES64L-G16RevA.03 25-Dec-2016

 --------------------------------------------
 #p opt UM062X/6-311+G** nosymm int=superfine
 --------------------------------------------

 -------------------
 Title Card Required
 -------------------
 Symbolic Z-matrix:
 Charge =  0 Multiplicity = 1

 SCF Done:  E(UM062X) =  -382.360706593     A.U. after   11 cycles
 SCF Done:  E(UM062X) =  -382.365565002     A.U. after   10 cycles
 SCF Done:  E(UM062X) =  -382.366659447     A.U. after   10 cycles
 SCF Done:  E(UM062X) =  -382.366676180     A.U. after    8 cycles
 SCF Done:  E(UM062X) =  -382.366680522     A.U. after    8 cycles
 SCF Done:  E(UM062X) =  -382.366680781     A.U. after    7 cycles
 Optimization completed.
    -- Stationary point found.

                          Input orientation:
 ---------------------------------------------------------------------
 Center     Atomic      Atomic             Coordinates (Angstroms)
 Number     Number       Type             X           Y           Z
 ---------------------------------------------------------------------
      1          6           0       -1.256264    0.000000    0.000000
      2         15           0        1.256264    0.000000    0.000000
      3          1           0        1.280689   -1.417523    0.025387
      4          1           0       -1.489408    1.032421    0.228718
      5          1           0        1.280590    0.086844    1.415069
      6          1           0       -1.489401   -0.307785   -1.011674
      7          1           0       -1.508504   -0.715253    0.772817
 ---------------------------------------------------------------------

 Alpha  occ. eigenvalues --  -78.02927 -10.56543  -6.85263  -4.96795  -4.96761
 Alpha  occ. eigenvalues --   -4.96555  -0.77691  -0.69030  -0.48508  -0.48434
 Alpha  occ. eigenvalues --   -0.43402  -0.35241  -0.29844
 Alpha virt. eigenvalues --   -0.03018   0.01531   0.04005   0.04519   0.05211
 Alpha virt. eigenvalues --    0.06438   0.06696   0.07691   0.07785   0.13191
 Alpha virt. eigenvalues --    0.17589   0.18883   0.19199   0.26053   0.30234

  Beta  occ. eigenvalues --  -78.02927 -10.56543  -6.85263  -4.96795  -4.96761
  Beta  occ. eigenvalues --   -4.96555  -0.77691  -0.69030  -0.48508  -0.48434
  Beta  occ. eigenvalues --   -0.43402  -0.35241  -0.29844
  Beta virt. eigenvalues --   -0.03018   0.01531   0.04005   0.04519   0.05211
  Beta virt. eigenvalues --    0.06438   0.06696   0.07691   0.07785   0.13191
  Beta virt. eigenvalues --    0.17589   0.18883   0.19199   0.26053   0.30234

 Mulliken charges and spin densities:
               1          2
     1  C   -0.559840  -0.000000
     2  P   -0.010976  -0.000000
     3  H    0.014505   0.000000
     4  H    0.180718   0.000000
     5  H    0.014512   0.000000
     6  H    0.180729   0.000000
     7  H    0.180353   0.000000
 Sum of Mulliken charges =  -0.00000  -0.00000

 Dipole moment (field-independent basis, Debye):
    X=             -0.7064    Y=             -0.5018    Z=              0.5433  Tot=              1.0228
 Quadrupole moment (field-independent basis, Debye-Ang):
   XX=            -23.0021   YY=            -22.0872   ZZ=            -22.2013
   XY=             -1.0833   XZ=              1.1725   YZ=              0.7194

 Normal termination of Gaussian 16 at Mon Apr 21 19:03:14 2025.
