 Gaussian 16, Revision A.03,
 Gaussian 16:  ES64L-G16RevA.03 25-Dec-2016

 ---------------------------------------------------
 #p UM062X/6-311+G** force int=superfine pop=saveNBO
 ---------------------------------------------------

 -------------------
 Title Card Required
 -------------------
 Symbolic Z-matrix:
 Charge =  0 Multiplicity = 1

                         Standard orientation:
 ---------------------------------------------------------------------
 Center     Atomic      Atomic             Coordinates (Angstroms)
 Number     Number       Type             X           Y           Z
 ---------------------------------------------------------------------
      1          8           0        0.000000    0.000000    1.443562
      2          8           0        0.000000    0.000000   -1.443562
 ---------------------------------------------------------------------

 SCF Done:  E(UM062X) =  -149.824019855     A.U. after    9 cycles

 Unable to determine electronic state:  partially filled degenerate orbitals.
 Alpha  occ. eigenvalues --  -19.83079 -19.83076  -1.10813  -1.09833  -0.49004
 Alpha  occ. eigenvalues --   -0.48414  -0.42247  -0.40738
 Alpha virt. eigenvalues --   -0.30420  -0.28612   0.09804   0.12676   0.14523
 Alpha virt. eigenvalues --    0.14567   0.19827   0.20092   0.20313   0.29760
 Alpha virt. eigenvalues --    0.94902   0.99383   1.00595   1.01970   1.03293

  Beta  occ. eigenvalues --  -19.83079 -19.83076  -1.10813  -1.09833  -0.49004
  Beta  occ. eigenvalues --   -0.48414  -0.42247  -0.40738
  Beta virt. eigenvalues --   -0.30420  -0.28612   0.09804   0.12676   0.14523
  Beta virt. eigenvalues --    0.14567   0.19827   0.20092   0.20313   0.29760
  Beta virt. eigenvalues --    0.94902   0.99383   1.00595   1.01970   1.03293

 Mulliken charges and spin densities:
               1          2
     1  O   -0.000000   0.000000
     2  O   -0.000000   0.000000
 Sum of Mulliken charges =  -0.00000   0.00000

 Dipole moment (field-independent basis, Debye):
    X=             -0.0000    Y=              0.0000    Z=              0.0000  Tot=              0.0000
 Quadrupole moment (field-independent basis, Debye-Ang):
   XX=            -10.1921   YY=            -12.0136   ZZ=             -9.1306
   XY=              0.0000   XZ=             -0.0000   YZ=              0.0000

 Summary of Natural Population Analysis:

                                       Natural Population
                Natural  -----------------------------------------------
    Atom  No    Charge         Core      Valence    Rydberg      Total
 -----------------------------------------------------------------------
      O    1    0.00000      1.00000     2.99901    0.00099     4.00000
      O    2    0.00000      1.00000     2.99901    0.00099     4.00000
 =======================================================================
   * Total *    0.00000      2.00000     5.99801    0.00199     8.00000

 Normal termination of Gaussian 16 at Mon Apr 21 19:54:09 2025.
