 Gaussian 16, Revision A.03,
 Gaussian 16:  ES64L-G16RevA.03 25-Dec-2016

 ----------------------------------------------------------------------
 #p opt UM062X/6-311+G** nosymm int=superfine SCF=(MaxCycle=200,NoVarAc
 c,noincfock) guess=read
 ----------------------------------------------------------------------

 -------------------
 Title Card Required
 -------------------
 Symbolic Z-matrix:
 Charge =  0 Multiplicity = 1

 SCF Done:  E(UM062X) =  -474.378270687     A.U. after   24 cycles
 SCF Done:  E(UM062X) =  -474.378276426     A.U. after   19 cycles
 SCF Done:  E(UM062X) =  -474.378278039     A.U. after   20 cycles
 SCF Done:  E(UM062X) =  -474.378276222     A.U. after   16 cycles
 SCF Done:  E(UM062X) =  -474.378279763     A.U. after   27 cycles
 SCF Done:  E(UM062X) =  -474.378282291     A.U. after   17 cycles
 SCF Done:  E(UM062X) =  -474.378282302     A.U. after   17 cycles
 SCF Done:  E(UM062X) =  -474.378282056     A.U. after   22 cycles
 SCF Done:  E(UM062X) =  -474.378238009     A.U. after   18 cycles
 SCF Done:  E(UM062X) =  -474.378272357     A.U. after   23 cycles
 SCF Done:  E(UM062X) =  -474.378280848     A.U. after   21 cycles
 SCF Done:  E(UM062X) =  -474.378281788     A.U. after   17 cycles
 SCF Done:  E(UM062X) =  -474.378281847     A.U. after   19 cycles
 SCF Done:  E(UM062X) =  -474.378268534     A.U. after   21 cycles
 SCF Done:  E(UM062X) =  -474.378243692     A.U. after   24 cycles
 SCF Done:  E(UM062X) =  -474.378278192     A.U. after   26 cycles
 SCF Done:  E(UM062X) =  -474.378280619     A.U. after   19 cycles
 SCF Done:  E(UM062X) =  -474.378265117     A.U. after   18 cycles
 SCF Done:  E(UM062X) =  -474.378271956     A.U. after   21 cycles
 SCF Done:  E(UM062X) =  -474.378281755     A.U. after   16 cycles
 Optimization completed.
    -- Stationary point found.

                          Input orientation:
 ---------------------------------------------------------------------
 Center     Atomic      Atomic             Coordinates (Angstroms)
 Number     Number       Type             X           Y           Z
 ---------------------------------------------------------------------
      1          8           0       -1.711007    0.000000    0.000000
      2         16           0        1.711007    0.000000    0.000000
      3          1           0       -1.678514   -0.851051   -0.464466
      4          1           0        1.476781    0.923342    0.952033
 ---------------------------------------------------------------------

 Alpha  occ. eigenvalues --  -89.97848 -19.67277  -8.34002  -6.26214  -6.25847
 Alpha  occ. eigenvalues --   -6.25279  -1.08459  -0.83835  -0.52547  -0.49699
 Alpha  occ. eigenvalues --   -0.39769  -0.35730  -0.34241
 Alpha virt. eigenvalues --   -0.22309   0.01602   0.03851   0.04707   0.05435
 Alpha virt. eigenvalues --    0.06920   0.13466   0.19262   0.19900   0.21113
 Alpha virt. eigenvalues --    0.25514   0.30805   0.33988   0.34460   0.39079

  Beta  occ. eigenvalues --  -89.97848 -19.67277  -8.34002  -6.26214  -6.25847
  Beta  occ. eigenvalues --   -6.25279  -1.08459  -0.83835  -0.52547  -0.49699
  Beta  occ. eigenvalues --   -0.39769  -0.35730  -0.34241
  Beta virt. eigenvalues --   -0.22309   0.01602   0.03851   0.04707   0.05435
  Beta virt. eigenvalues --    0.06920   0.13466   0.19262   0.19900   0.21113
  Beta virt. eigenvalues --    0.25514   0.30805   0.33988   0.34460   0.39079

 Mulliken charges and spin densities:
               1          2
     1  O   -0.395066   0.000001
     2  S    0.038762  -0.000001
     3  H    0.245458  -0.000000
     4  H    0.110846   0.000000
 Sum of Mulliken charges =  -0.00000  -0.00000

 Dipole moment (field-independent basis, Debye):
    X=              2.2856    Y=             -0.7089    Z=              0.0185  Tot=              2.3931
 Quadrupole moment (field-independent basis, Debye-Ang):
   XX=            -18.4468   YY=            -18.8065   ZZ=            -20.0295
   XY=              4.0998   XZ=              2.9082   YZ=              3.1120

 Normal termination of Gaussian 16 at Tue Apr 22 05:27:40 2025.
