 Gaussian 16, Revision A.03,
 Gaussian 16:  ES64L-G16RevA.03 25-Dec-2016

 --------------------------------------------
 #p opt UM062X/6-311+G** nosymm int=superfine
 --------------------------------------------

 -------------------
 Title Card Required
 -------------------
 Symbolic Z-matrix:
 Charge =  1 Multiplicity = 2

 SCF Done:  E(UM062X) =  -79.3306282905     A.U. after   10 cycles
 SCF Done:  E(UM062X) =  -79.3309300120     A.U. after    9 cycles
 Optimization completed.
    -- Stationary point found.

                          Input orientation:
 ---------------------------------------------------------------------
 Center     Atomic      Atomic             Coordinates (Angstroms)
 Number     Number       Type             X           Y           Z
 ---------------------------------------------------------------------
      1          6           0       -1.654940    0.000000    0.000000
      2          6           0        1.654940    0.000000    0.000000
      3          1           0        1.697030   -0.937630    0.542680
      4          1           0       -1.695567   -0.938740   -0.540871
      5          1           0        1.696408    0.938829    0.540651
      6          1           0        1.695569   -0.001164   -1.083406
      7          1           0       -1.697064    0.937729   -0.542507
      8          1           0       -1.696344    0.000942    1.083376
 ---------------------------------------------------------------------

 Alpha  occ. eigenvalues --  -10.84658 -10.84656  -1.03374  -1.02422  -0.74200
 Alpha  occ. eigenvalues --   -0.74199  -0.73773  -0.73773  -0.50872
 Alpha virt. eigenvalues --   -0.36376  -0.13607  -0.10206  -0.10086  -0.10086
 Alpha virt. eigenvalues --   -0.06245  -0.06245  -0.04872  -0.03270  -0.01462
 Alpha virt. eigenvalues --   -0.01460   0.01275   0.01277   0.04257   0.07880

  Beta  occ. eigenvalues --  -10.84455 -10.84455  -1.00617  -0.99983  -0.73687
  Beta  occ. eigenvalues --   -0.73686  -0.73261  -0.73260
  Beta virt. eigenvalues --   -0.32644  -0.26106  -0.15527  -0.11141  -0.11140
  Beta virt. eigenvalues --   -0.10067  -0.06360  -0.06359  -0.05189  -0.02365
  Beta virt. eigenvalues --   -0.01798  -0.01795   0.01571   0.01573   0.05018

 Mulliken charges and spin densities:
               1          2
     1  C   -0.268205   0.563341
     2  C   -0.268208   0.563344
     3  H    0.256087  -0.021117
     4  H    0.256040  -0.021121
     5  H    0.256067  -0.021120
     6  H    0.256052  -0.021105
     7  H    0.256089  -0.021117
     8  H    0.256078  -0.021104
 Sum of Mulliken charges =   1.00000   1.00000

 Dipole moment (field-independent basis, Debye):
    X=             -0.0000    Y=             -0.0000    Z=             -0.0001  Tot=              0.0001
 Quadrupole moment (field-independent basis, Debye-Ang):
   XX=              2.0707   YY=            -11.0647   ZZ=            -11.0647
   XY=             -0.0016   XZ=              0.0009   YZ=              0.0000

 Normal termination of Gaussian 16 at Wed Nov 13 12:45:39 2024.
