 Gaussian 16, Revision A.03,
 Gaussian 16:  ES64L-G16RevA.03 25-Dec-2016

 ---------------------------------------------------
 #p UM062X/6-311+G** force int=superfine pop=saveNBO
 ---------------------------------------------------

 -------------------
 Title Card Required
 -------------------
 Symbolic Z-matrix:
 Charge =  0 Multiplicity = 1

                         Standard orientation:
 ---------------------------------------------------------------------
 Center     Atomic      Atomic             Coordinates (Angstroms)
 Number     Number       Type             X           Y           Z
 ---------------------------------------------------------------------
      1         14           0       -0.000000    1.062518   -0.000009
      2         14           0       -0.000000   -1.062518   -0.000009
      3          1           0       -1.248769    1.843412   -0.000400
      4          1           0        1.248769   -1.843412   -0.000400
      5          1           0        1.248776    1.843423    0.000525
      6          1           0       -1.248776   -1.843423    0.000525
 ---------------------------------------------------------------------

 SCF Done:  E(UM062X) =  -581.272633355     A.U. after    9 cycles

 The electronic state is 1-A.
 Alpha  occ. eigenvalues --  -66.99883 -66.99883  -5.55179  -5.55154  -3.86350
 Alpha  occ. eigenvalues --   -3.86332  -3.86302  -3.86173  -3.86157  -3.86152
 Alpha  occ. eigenvalues --   -0.64127  -0.55715  -0.43929  -0.41213  -0.38254
 Alpha  occ. eigenvalues --   -0.24918
 Alpha virt. eigenvalues --   -0.03970   0.01344   0.02255   0.02865   0.03650
 Alpha virt. eigenvalues --    0.04733   0.04871   0.05843   0.07281   0.07400
 Alpha virt. eigenvalues --    0.07698   0.09390   0.13714   0.23516   0.25990

  Beta  occ. eigenvalues --  -66.99883 -66.99883  -5.55179  -5.55154  -3.86350
  Beta  occ. eigenvalues --   -3.86332  -3.86302  -3.86173  -3.86157  -3.86152
  Beta  occ. eigenvalues --   -0.64127  -0.55715  -0.43929  -0.41213  -0.38254
  Beta  occ. eigenvalues --   -0.24918
  Beta virt. eigenvalues --   -0.03970   0.01344   0.02255   0.02865   0.03650
  Beta virt. eigenvalues --    0.04733   0.04871   0.05843   0.07281   0.07400
  Beta virt. eigenvalues --    0.07698   0.09390   0.13714   0.23516   0.25990

 Mulliken charges and spin densities:
               1          2
     1  Si   0.135112  -0.000000
     2  Si   0.135112  -0.000000
     3  H   -0.067556   0.000000
     4  H   -0.067556   0.000000
     5  H   -0.067556   0.000000
     6  H   -0.067556   0.000000
 Sum of Mulliken charges =  -0.00000  -0.00000

 Dipole moment (field-independent basis, Debye):
    X=             -0.0000    Y=              0.0000    Z=             -0.0000  Tot=              0.0000
 Quadrupole moment (field-independent basis, Debye-Ang):
   XX=            -29.0988   YY=            -27.5888   ZZ=            -31.9211
   XY=             -0.0000   XZ=             -0.0000   YZ=             -0.0000

 Summary of Natural Population Analysis:

                                       Natural Population
                Natural  -----------------------------------------------
    Atom  No    Charge         Core      Valence    Rydberg      Total
 -----------------------------------------------------------------------
     Si    1    0.09620      4.99879     1.89102    0.01398     6.90380
     Si    2    0.09620      4.99879     1.89102    0.01398     6.90380
      H    3   -0.04810      0.00000     0.54669    0.00142     0.54810
      H    4   -0.04810      0.00000     0.54669    0.00142     0.54810
      H    5   -0.04810      0.00000     0.54668    0.00142     0.54810
      H    6   -0.04810      0.00000     0.54668    0.00142     0.54810
 =======================================================================
   * Total *    0.00000      9.99758     5.96879    0.03363    16.00000

 Optimization completed.
    -- Stationary point found.
 Normal termination of Gaussian 16 at Wed Apr 16 05:49:29 2025.
