 Gaussian 16, Revision A.03,
 Gaussian 16:  ES64L-G16RevA.03 25-Dec-2016

 --------------------------------------------
 #p opt UM062X/6-311+G** nosymm int=superfine
 --------------------------------------------

 -------------------
 Title Card Required
 -------------------
 Symbolic Z-matrix:
 Charge =  0 Multiplicity = 1

 SCF Done:  E(UM062X) =  -151.428695624     A.U. after   14 cycles
 SCF Done:  E(UM062X) =  -151.434420391     A.U. after   16 cycles
 SCF Done:  E(UM062X) =  -151.436226041     A.U. after   16 cycles
 SCF Done:  E(UM062X) =  -151.436290715     A.U. after   12 cycles
 SCF Done:  E(UM062X) =  -151.436300255     A.U. after   12 cycles
 SCF Done:  E(UM062X) =  -151.436307803     A.U. after   13 cycles
 SCF Done:  E(UM062X) =  -151.436310498     A.U. after   13 cycles
 SCF Done:  E(UM062X) =  -151.436310693     A.U. after   10 cycles
 SCF Done:  E(UM062X) =  -151.436310739     A.U. after   10 cycles
 Optimization completed.
    -- Stationary point found.

                          Input orientation:
 ---------------------------------------------------------------------
 Center     Atomic      Atomic             Coordinates (Angstroms)
 Number     Number       Type             X           Y           Z
 ---------------------------------------------------------------------
      1          8           0       -1.061938    0.000000    0.000000
      2          8           0        1.061938    0.000000    0.000000
      3          1           0       -0.999818   -0.779842   -0.576427
      4          1           0        0.999883    0.779870    0.576395
 ---------------------------------------------------------------------

 Alpha  occ. eigenvalues --  -19.72312 -19.72308  -1.14991  -1.10121  -0.57857
 Alpha  occ. eigenvalues --   -0.55004  -0.45298  -0.44062  -0.41840
 Alpha virt. eigenvalues --   -0.17007   0.05600   0.09776   0.14770   0.16209
 Alpha virt. eigenvalues --    0.17480   0.19726   0.21706   0.23516   0.25441
 Alpha virt. eigenvalues --    0.34276   0.49203   0.53852   0.95798   0.99884

  Beta  occ. eigenvalues --  -19.72312 -19.72308  -1.14991  -1.10121  -0.57857
  Beta  occ. eigenvalues --   -0.55004  -0.45298  -0.44062  -0.41840
  Beta virt. eigenvalues --   -0.17007   0.05600   0.09776   0.14770   0.16209
  Beta virt. eigenvalues --    0.17480   0.19726   0.21706   0.23516   0.25441
  Beta virt. eigenvalues --    0.34276   0.49203   0.53852   0.95798   0.99884

 Mulliken charges and spin densities:
               1          2
     1  O   -0.272218  -0.000000
     2  O   -0.272229   0.000000
     3  H    0.272224   0.000000
     4  H    0.272223  -0.000000
 Sum of Mulliken charges =  -0.00000  -0.00000

 Dipole moment (field-independent basis, Debye):
    X=              0.0001    Y=              0.0001    Z=             -0.0001  Tot=              0.0001
 Quadrupole moment (field-independent basis, Debye-Ang):
   XX=            -11.8047   YY=            -10.2257   ZZ=            -11.7543
   XY=              3.2620   XZ=              2.4110   YZ=              2.4902

 Normal termination of Gaussian 16 at Mon Apr 21 21:35:16 2025.
