 Gaussian 16, Revision A.03,
 Gaussian 16:  ES64L-G16RevA.03 25-Dec-2016

 --------------------------------------------
 #p opt UM062X/6-311+G** nosymm int=superfine
 --------------------------------------------

 -------------------
 Title Card Required
 -------------------
 Symbolic Z-matrix:
 Charge =  0 Multiplicity = 1

 SCF Done:  E(UM062X) =  -76.8976721901     A.U. after   14 cycles
 SCF Done:  E(UM062X) =  -76.8987439993     A.U. after   13 cycles
 SCF Done:  E(UM062X) =  -76.8999976577     A.U. after   15 cycles
 SCF Done:  E(UM062X) =  -76.9002313063     A.U. after   15 cycles
 SCF Done:  E(UM062X) =  -76.9003225732     A.U. after   15 cycles
 SCF Done:  E(UM062X) =  -76.9003393622     A.U. after   12 cycles
 SCF Done:  E(UM062X) =  -76.9003455370     A.U. after   13 cycles
 SCF Done:  E(UM062X) =  -76.9003464959     A.U. after   12 cycles
 SCF Done:  E(UM062X) =  -76.9003465000     A.U. after   12 cycles
 Optimization completed.
    -- Stationary point found.

                          Input orientation:
 ---------------------------------------------------------------------
 Center     Atomic      Atomic             Coordinates (Angstroms)
 Number     Number       Type             X           Y           Z
 ---------------------------------------------------------------------
      1          6           0       -1.607625    0.000000    0.000000
      2          6           0        1.607625    0.000000    0.000000
      3          1           0       -1.474973   -0.650937    0.898171
      4          1           0        1.474995    0.651234   -0.897960
 ---------------------------------------------------------------------

 Alpha  occ. eigenvalues --  -10.67435 -10.67433  -0.73011  -0.71834  -0.39045
 Alpha  occ. eigenvalues --   -0.38534  -0.25207
 Alpha virt. eigenvalues --   -0.10537  -0.10528  -0.08904   0.03393   0.04843
 Alpha virt. eigenvalues --    0.07277   0.07437   0.09471   0.09940   0.10856
 Alpha virt. eigenvalues --    0.14351   0.17854   0.20033   0.43967   0.45219

  Beta  occ. eigenvalues --  -10.67435 -10.67433  -0.73011  -0.71834  -0.39045
  Beta  occ. eigenvalues --   -0.38534  -0.25207
  Beta virt. eigenvalues --   -0.10537  -0.10528  -0.08904   0.03393   0.04843
  Beta virt. eigenvalues --    0.07277   0.07437   0.09471   0.09940   0.10856
  Beta virt. eigenvalues --    0.14351   0.17854   0.20033   0.43967   0.45219

 Mulliken charges and spin densities:
               1          2
     1  C   -0.146942   0.000000
     2  C   -0.146945  -0.000000
     3  H    0.146944   0.000000
     4  H    0.146943   0.000000
 Sum of Mulliken charges =   0.00000   0.00000

 Dipole moment (field-independent basis, Debye):
    X=              0.0000    Y=              0.0004    Z=              0.0003  Tot=              0.0005
 Quadrupole moment (field-independent basis, Debye-Ang):
   XX=            -16.9386   YY=            -12.8177   ZZ=            -13.6498
   XY=              3.1702   XZ=             -4.3726   YZ=              1.2716

 Normal termination of Gaussian 16 at Tue Dec  3 23:16:52 2024.
