 Gaussian 16, Revision A.03,
 Gaussian 16:  ES64L-G16RevA.03 25-Dec-2016

 ---------------------------------------------------
 #p UM062X/6-311+G** force int=superfine pop=saveNBO
 ---------------------------------------------------

 -------------------
 Title Card Required
 -------------------
 Symbolic Z-matrix:
 Charge =  0 Multiplicity = 1

                         Standard orientation:
 ---------------------------------------------------------------------
 Center     Atomic      Atomic             Coordinates (Angstroms)
 Number     Number       Type             X           Y           Z
 ---------------------------------------------------------------------
      1          6           0        0.000000    0.000000   -1.948067
      2         16           0        0.000000    0.000000    0.730525
 ---------------------------------------------------------------------

 SCF Done:  E(UM062X) =  -435.906675928     A.U. after   15 cycles

 The electronic state is 1-SG.
 Alpha  occ. eigenvalues --  -89.94572 -10.81296  -8.30273  -6.22460  -6.21834
 Alpha  occ. eigenvalues --   -6.21834  -0.75584  -0.69111  -0.35266  -0.31207
 Alpha  occ. eigenvalues --   -0.31207
 Alpha virt. eigenvalues --   -0.16795  -0.16795  -0.12384   0.03377   0.05313
 Alpha virt. eigenvalues --    0.06061   0.06061   0.08726   0.08909   0.08909
 Alpha virt. eigenvalues --    0.15074   0.35960   0.35960   0.36087   0.52871

  Beta  occ. eigenvalues --  -89.94572 -10.81296  -8.30273  -6.22460  -6.21834
  Beta  occ. eigenvalues --   -6.21834  -0.75584  -0.69111  -0.35266  -0.31207
  Beta  occ. eigenvalues --   -0.31207
  Beta virt. eigenvalues --   -0.16795  -0.16795  -0.12384   0.03377   0.05313
  Beta virt. eigenvalues --    0.06061   0.06061   0.08726   0.08909   0.08909
  Beta virt. eigenvalues --    0.15074   0.35960   0.35960   0.36087   0.52871

 Mulliken charges and spin densities:
               1          2
     1  C    0.175492  -0.000000
     2  S   -0.175492   0.000000
 Sum of Mulliken charges =   0.00000  -0.00000

 Dipole moment (field-independent basis, Debye):
    X=              0.0000    Y=              0.0000    Z=             -2.1546  Tot=              2.1546
 Quadrupole moment (field-independent basis, Debye-Ang):
   XX=            -20.7457   YY=            -20.7457   ZZ=            -15.5311
   XY=              0.0000   XZ=              0.0000   YZ=              0.0000

 Summary of Natural Population Analysis:

                                       Natural Population
                Natural  -----------------------------------------------
    Atom  No    Charge         Core      Valence    Rydberg      Total
 -----------------------------------------------------------------------
      C    1    0.14524      1.00000     1.85369    0.00107     2.85476
      S    2   -0.14524      4.99999     3.14432    0.00093     8.14524
 =======================================================================
   * Total *    0.00000      5.99999     4.99801    0.00200    11.00000

 Normal termination of Gaussian 16 at Mon Apr 21 19:46:38 2025.
