 Gaussian 16, Revision A.03,
 Gaussian 16:  ES64L-G16RevA.03 25-Dec-2016

 --------------------------------------------
 #p opt UM062X/6-311+G** nosymm int=superfine
 --------------------------------------------

 -------------------
 Title Card Required
 -------------------
 Symbolic Z-matrix:
 Charge =  0 Multiplicity = 1

 SCF Done:  E(UM062X) =  -80.7451245175     A.U. after   10 cycles
 SCF Done:  E(UM062X) =  -80.7451379590     A.U. after    8 cycles
 SCF Done:  E(UM062X) =  -80.7451370686     A.U. after    7 cycles
 SCF Done:  E(UM062X) =  -80.7451382034     A.U. after    7 cycles
 Optimization completed.
    -- Stationary point found.

                          Input orientation:
 ---------------------------------------------------------------------
 Center     Atomic      Atomic             Coordinates (Angstroms)
 Number     Number       Type             X           Y           Z
 ---------------------------------------------------------------------
      1          5           0       -0.717066    0.000000    0.000000
      2          7           0        0.717066    0.000000    0.000000
      3          1           0       -1.883509   -0.000150   -0.000000
      4          1           0        1.715003    0.000919   -0.000000
 ---------------------------------------------------------------------

 Alpha  occ. eigenvalues --  -14.74583  -7.11390  -0.89548  -0.60634  -0.53023
 Alpha  occ. eigenvalues --   -0.33384  -0.33384
 Alpha virt. eigenvalues --    0.00831   0.00831   0.01292   0.02374   0.06356
 Alpha virt. eigenvalues --    0.06356   0.09708   0.12867   0.18403   0.18403
 Alpha virt. eigenvalues --    0.21553   0.25791   0.34491   0.41603   0.41603

  Beta  occ. eigenvalues --  -14.74583  -7.11390  -0.89548  -0.60634  -0.53023
  Beta  occ. eigenvalues --   -0.33384  -0.33384
  Beta virt. eigenvalues --    0.00831   0.00831   0.01292   0.02374   0.06356
  Beta virt. eigenvalues --    0.06356   0.09708   0.12867   0.18403   0.18403
  Beta virt. eigenvalues --    0.21553   0.25791   0.34491   0.41603   0.41603

 Mulliken charges and spin densities:
               1          2
     1  B    0.230496   0.000000
     2  N   -0.571180  -0.000000
     3  H    0.051006   0.000000
     4  H    0.289678  -0.000000
 Sum of Mulliken charges =  -0.00000   0.00000

 Dipole moment (field-independent basis, Debye):
    X=             -0.9067    Y=              0.0015    Z=             -0.0000  Tot=              0.9067
 Quadrupole moment (field-independent basis, Debye-Ang):
   XX=             -7.3478   YY=            -13.9829   ZZ=            -13.9829
   XY=              0.0036   XZ=              0.0000   YZ=             -0.0000

 Normal termination of Gaussian 16 at Mon Apr 21 18:01:29 2025.
