 Gaussian 16, Revision A.03,
 Gaussian 16:  ES64L-G16RevA.03 25-Dec-2016

 ---------------------------------------
 #p UM062X/6-311+G** force int=superfine
 ---------------------------------------

 -------------------
 Title Card Required
 -------------------
 Symbolic Z-matrix:
 Charge =  1 Multiplicity = 2

                         Standard orientation:
 ---------------------------------------------------------------------
 Center     Atomic      Atomic             Coordinates (Angstroms)
 Number     Number       Type             X           Y           Z
 ---------------------------------------------------------------------
      1          6           0        0.000000    0.579651    0.000000
      2          6           0       -0.000000   -0.579651    0.000000
      3          1           0       -0.909084    1.182961    0.000000
      4          1           0        0.909126    1.182949    0.000000
      5          1           0        0.909084   -1.182961    0.000000
      6          1           0       -0.909126   -1.182949    0.000000
 ---------------------------------------------------------------------

 SCF Done:  E(UM062X) =  -78.0736266665     A.U. after    9 cycles

 The electronic state is 2-AG.
 Alpha  occ. eigenvalues --  -10.83427 -10.83061  -1.22425  -0.98120  -0.89309
 Alpha  occ. eigenvalues --   -0.83593  -0.72505  -0.67299
 Alpha virt. eigenvalues --   -0.20511  -0.15177  -0.14404  -0.12857  -0.10151
 Alpha virt. eigenvalues --   -0.08422  -0.07092  -0.05072  -0.04515  -0.03379
 Alpha virt. eigenvalues --   -0.00612   0.03020   0.12120   0.14932   0.20598

  Beta  occ. eigenvalues --  -10.83388 -10.83008  -1.20667  -0.92995  -0.82957
  Beta  occ. eigenvalues --   -0.80772  -0.66809
  Beta virt. eigenvalues --   -0.50958  -0.20029  -0.15136  -0.14001  -0.12642
  Beta virt. eigenvalues --   -0.10021  -0.08206  -0.05935  -0.04797  -0.02935
  Beta virt. eigenvalues --   -0.02860  -0.00236   0.03616   0.12413   0.15201

 Mulliken charges and spin densities:
               1          2
     1  C   -0.143217   0.133118
     2  C   -0.143217   0.133118
     3  H    0.321602   0.183426
     4  H    0.321614   0.183456
     5  H    0.321602   0.183426
     6  H    0.321614   0.183456
 Sum of Mulliken charges =   1.00000   1.00000

 Dipole moment (field-independent basis, Debye):
    X=             -0.0000    Y=              0.0000    Z=              0.0000  Tot=              0.0000
 Quadrupole moment (field-independent basis, Debye-Ang):
   XX=             -6.4581   YY=             -4.2179   ZZ=            -12.9639
   XY=              0.0003   XZ=              0.0000   YZ=              0.0000

 Normal termination of Gaussian 16 at Tue Nov 19 11:53:06 2024.
