 Gaussian 16, Revision A.03,
 Gaussian 16:  ES64L-G16RevA.03 25-Dec-2016

 --------------------------------------------
 #p opt UM062X/6-311+G** nosymm int=superfine
 --------------------------------------------

 -------------------
 Title Card Required
 -------------------
 Symbolic Z-matrix:
 Charge =  1 Multiplicity = 2

 SCF Done:  E(UM062X) =  -79.3140073603     A.U. after   10 cycles
 SCF Done:  E(UM062X) =  -79.3155527453     A.U. after    9 cycles
 SCF Done:  E(UM062X) =  -79.3155689835     A.U. after    9 cycles
 Optimization completed.
    -- Stationary point found.

                          Input orientation:
 ---------------------------------------------------------------------
 Center     Atomic      Atomic             Coordinates (Angstroms)
 Number     Number       Type             X           Y           Z
 ---------------------------------------------------------------------
      1          6           0       -2.097208    0.000000    0.000000
      2          6           0        2.097208    0.000000    0.000000
      3          1           0        2.121401   -0.937448    0.542580
      4          1           0       -2.119523   -0.938543   -0.540758
      5          1           0        2.120594    0.938638    0.540551
      6          1           0        2.119609   -0.001171   -1.083176
      7          1           0       -2.121459    0.937556   -0.542392
      8          1           0       -2.120620    0.000949    1.083156
 ---------------------------------------------------------------------

 Alpha  occ. eigenvalues --  -10.83140 -10.83139  -1.01738  -1.01493  -0.72829
 Alpha  occ. eigenvalues --   -0.72828  -0.72758  -0.72757  -0.46613
 Alpha virt. eigenvalues --   -0.37788  -0.12496  -0.10091  -0.09190  -0.09190
 Alpha virt. eigenvalues --   -0.06201  -0.06201  -0.04409  -0.02712   0.00333
 Alpha virt. eigenvalues --    0.00336   0.01461   0.01463   0.02418   0.09003

  Beta  occ. eigenvalues --  -10.82916 -10.82916  -0.99078  -0.98943  -0.72295
  Beta  occ. eigenvalues --   -0.72294  -0.72212  -0.72212
  Beta virt. eigenvalues --   -0.32030  -0.26677  -0.17004  -0.10545  -0.10544
  Beta virt. eigenvalues --   -0.10240  -0.06162  -0.06162  -0.05573  -0.01748
  Beta virt. eigenvalues --    0.00192   0.00196   0.01712   0.01714   0.02267

 Mulliken charges and spin densities:
               1          2
     1  C   -0.241869   0.557884
     2  C   -0.241870   0.557884
     3  H    0.247312  -0.019289
     4  H    0.247274  -0.019291
     5  H    0.247293  -0.019294
     6  H    0.247265  -0.019301
     7  H    0.247313  -0.019289
     8  H    0.247283  -0.019305
 Sum of Mulliken charges =   1.00000   1.00000

 Dipole moment (field-independent basis, Debye):
    X=             -0.0000    Y=             -0.0000    Z=             -0.0001  Tot=              0.0001
 Quadrupole moment (field-independent basis, Debye-Ang):
   XX=              9.5709   YY=            -11.1200   ZZ=            -11.1202
   XY=             -0.0020   XZ=              0.0011   YZ=              0.0000

 Normal termination of Gaussian 16 at Sat Nov 16 16:09:30 2024.
