 Gaussian 16, Revision A.03,
 Gaussian 16:  ES64L-G16RevA.03 25-Dec-2016

 --------------------------------------------
 #p opt UM062X/6-311+G** nosymm int=superfine
 --------------------------------------------

 -------------------
 Title Card Required
 -------------------
 Symbolic Z-matrix:
 Charge =  0 Multiplicity = 1

 SCF Done:  E(UM062X) =  -581.143235624     A.U. after    8 cycles
 SCF Done:  E(UM062X) =  -581.162773660     A.U. after    8 cycles
 SCF Done:  E(UM062X) =  -581.174623160     A.U. after    8 cycles
 SCF Done:  E(UM062X) =  -581.174643161     A.U. after    7 cycles
 Optimization completed.
    -- Stationary point found.

                          Input orientation:
 ---------------------------------------------------------------------
 Center     Atomic      Atomic             Coordinates (Angstroms)
 Number     Number       Type             X           Y           Z
 ---------------------------------------------------------------------
      1         14           0       -2.537518    0.000000    0.000000
      2         14           0        2.537518    0.000000    0.000000
      3          1           0       -3.599718   -1.084533    0.000041
      4          1           0        3.599718    1.084533   -0.000546
      5          1           0       -3.599723    1.084529    0.000255
      6          1           0        3.599723   -1.084529    0.000842
 ---------------------------------------------------------------------

 Alpha  occ. eigenvalues --  -67.01343 -67.01343  -5.56064  -5.56064  -3.87313
 Alpha  occ. eigenvalues --   -3.87313  -3.86771  -3.86771  -3.86628  -3.86628
 Alpha  occ. eigenvalues --   -0.57304  -0.57268  -0.37902  -0.37889  -0.28756
 Alpha  occ. eigenvalues --   -0.27632
 Alpha virt. eigenvalues --   -0.08089  -0.07682   0.02078   0.02541   0.02929
 Alpha virt. eigenvalues --    0.04534   0.05464   0.06033   0.06080   0.07482
 Alpha virt. eigenvalues --    0.07716   0.08931   0.11407   0.13864   0.28572

  Beta  occ. eigenvalues --  -67.01343 -67.01343  -5.56064  -5.56064  -3.87313
  Beta  occ. eigenvalues --   -3.87313  -3.86771  -3.86771  -3.86628  -3.86628
  Beta  occ. eigenvalues --   -0.57304  -0.57268  -0.37902  -0.37889  -0.28756
  Beta  occ. eigenvalues --   -0.27632
  Beta virt. eigenvalues --   -0.08089  -0.07682   0.02078   0.02541   0.02929
  Beta virt. eigenvalues --    0.04534   0.05464   0.06033   0.06080   0.07482
  Beta virt. eigenvalues --    0.07716   0.08931   0.11407   0.13864   0.28572

 Mulliken charges and spin densities:
               1          2
     1  Si   0.323389  -0.000000
     2  Si   0.323389   0.000000
     3  H   -0.161694  -0.000000
     4  H   -0.161694  -0.000000
     5  H   -0.161694   0.000000
     6  H   -0.161694  -0.000000
 Sum of Mulliken charges =  -0.00000  -0.00000

 Dipole moment (field-independent basis, Debye):
    X=              0.0000    Y=              0.0000    Z=              0.0001  Tot=              0.0001
 Quadrupole moment (field-independent basis, Debye-Ang):
   XX=            -34.8766   YY=            -32.7005   ZZ=            -24.3612
   XY=             -0.0000   XZ=              0.0000   YZ=              0.0023

 Normal termination of Gaussian 16 at Mon Apr 21 20:36:16 2025.
