 Gaussian 16, Revision A.03,
 Gaussian 16:  ES64L-G16RevA.03 25-Dec-2016

 -------------------------------------------------------------------
 #p opt UM062X/6-311+G** nosymm int=superfine SCF=NoVarAcc SCF=tight
 -------------------------------------------------------------------

 -------------------
 Title Card Required
 -------------------
 Symbolic Z-matrix:
 Charge =  1 Multiplicity = 2

 SCF Done:  E(UM062X) =  -77.8896639267     A.U. after   13 cycles
 SCF Done:  E(UM062X) =  -77.8936039668     A.U. after   10 cycles
 SCF Done:  E(UM062X) =  -77.8964012051     A.U. after   10 cycles
 SCF Done:  E(UM062X) =  -77.8964056670     A.U. after    8 cycles
 Optimization completed.
    -- Stationary point found.

                          Input orientation:
 ---------------------------------------------------------------------
 Center     Atomic      Atomic             Coordinates (Angstroms)
 Number     Number       Type             X           Y           Z
 ---------------------------------------------------------------------
      1          6           0       -9.106027    0.000000    0.000000
      2          6           0        9.106027    0.000000    0.000000
      3          1           0       -9.668883   -0.941531   -0.000000
      4          1           0       -9.668817    0.941569   -0.000000
      5          1           0        9.668883    0.941531   -0.000000
      6          1           0        9.668817   -0.941569   -0.000000
 ---------------------------------------------------------------------

 Alpha  occ. eigenvalues --  -10.84295 -10.84295  -0.95915  -0.95915  -0.70553
 Alpha  occ. eigenvalues --   -0.70553  -0.53274  -0.53274
 Alpha virt. eigenvalues --   -0.27579  -0.27579  -0.08474  -0.08474  -0.04110
 Alpha virt. eigenvalues --   -0.04110  -0.02323  -0.02323  -0.02081  -0.02081
 Alpha virt. eigenvalues --    0.03928   0.03928   0.04650   0.04650   0.31048

  Beta  occ. eigenvalues --  -10.83568 -10.83568  -0.93787  -0.93786  -0.69552
  Beta  occ. eigenvalues --   -0.69552  -0.38447
  Beta virt. eigenvalues --   -0.36829  -0.25992  -0.25992  -0.08776  -0.08775
  Beta virt. eigenvalues --   -0.04615  -0.04615  -0.02810  -0.02810  -0.02384
  Beta virt. eigenvalues --   -0.02384   0.03986   0.03986   0.05125   0.05126

 Mulliken charges and spin densities:
               1          2
     1  C    0.043105   0.486284
     2  C    0.043105   0.486284
     3  H    0.228447   0.006858
     4  H    0.228447   0.006858
     5  H    0.228447   0.006858
     6  H    0.228447   0.006858
 Sum of Mulliken charges =   1.00000   1.00000

 Dipole moment (field-independent basis, Debye):
    X=              0.0000    Y=             -0.0000    Z=             -0.0000  Tot=              0.0000
 Quadrupole moment (field-independent basis, Debye-Ang):
   XX=            446.1514   YY=             -9.5141   ZZ=            -10.6506
   XY=             -0.0009   XZ=             -0.0000   YZ=              0.0000

 Normal termination of Gaussian 16 at Tue Dec  3 15:49:03 2024.
