 Gaussian 16, Revision A.03,
 Gaussian 16:  ES64L-G16RevA.03 25-Dec-2016

 --------------------------------------------
 #p opt UM062X/6-311+G** nosymm int=superfine
 --------------------------------------------

 -------------------
 Title Card Required
 -------------------
 Symbolic Z-matrix:
 Charge =  0 Multiplicity = 1

 SCF Done:  E(UM062X) =  -381.652706596     A.U. after   12 cycles
 SCF Done:  E(UM062X) =  -381.953993717     A.U. after   11 cycles
 SCF Done:  E(UM062X) =  -382.198937820     A.U. after   12 cycles
 SCF Done:  E(UM062X) =  -382.212317864     A.U. after   15 cycles
 SCF Done:  E(UM062X) =  -382.234629992     A.U. after   12 cycles
 SCF Done:  E(UM062X) =  -382.272056462     A.U. after   11 cycles
 SCF Done:  E(UM062X) =  -382.336419092     A.U. after   11 cycles
 SCF Done:  E(UM062X) =  -382.359173943     A.U. after   13 cycles
 SCF Done:  E(UM062X) =  -382.368487122     A.U. after   11 cycles
 SCF Done:  E(UM062X) =  -382.370595617     A.U. after   11 cycles
 SCF Done:  E(UM062X) =  -382.378380065     A.U. after   11 cycles
 SCF Done:  E(UM062X) =  -382.407217732     A.U. after   11 cycles
 SCF Done:  E(UM062X) =  -382.413668860     A.U. after   10 cycles
 SCF Done:  E(UM062X) =  -382.414398086     A.U. after   10 cycles
 SCF Done:  E(UM062X) =  -382.419439942     A.U. after   10 cycles
 SCF Done:  E(UM062X) =  -382.422782852     A.U. after    9 cycles
 SCF Done:  E(UM062X) =  -382.423950651     A.U. after    9 cycles
 SCF Done:  E(UM062X) =  -382.423971304     A.U. after    8 cycles
 SCF Done:  E(UM062X) =  -382.423971897     A.U. after    7 cycles
 Optimization completed.
    -- Stationary point found.

                          Input orientation:
 ---------------------------------------------------------------------
 Center     Atomic      Atomic             Coordinates (Angstroms)
 Number     Number       Type             X           Y           Z
 ---------------------------------------------------------------------
      1          6           0       -0.945229   -0.000056   -0.053817
      2         15           0        0.840072   -0.000243   -0.584578
      3          1           0        1.284603    1.031802    0.278370
      4          1           0       -1.434921   -0.880013   -0.471968
      5          1           0        1.284656   -1.031511    0.279274
      6          1           0       -1.434989    0.879464   -0.472808
      7          1           0       -1.078276    0.000455    1.026715
 ---------------------------------------------------------------------

 Alpha  occ. eigenvalues --  -78.01069 -10.53891  -6.83753  -4.95332  -4.95327
 Alpha  occ. eigenvalues --   -4.95055  -0.82140  -0.67406  -0.49480  -0.48799
 Alpha  occ. eigenvalues --   -0.41619  -0.40888  -0.30369
 Alpha virt. eigenvalues --    0.00540   0.02692   0.03838   0.04431   0.06366
 Alpha virt. eigenvalues --    0.06706   0.08236   0.08632   0.10928   0.13738
 Alpha virt. eigenvalues --    0.17772   0.17804   0.19796   0.28681   0.30108

  Beta  occ. eigenvalues --  -78.01069 -10.53891  -6.83753  -4.95332  -4.95327
  Beta  occ. eigenvalues --   -4.95055  -0.82140  -0.67406  -0.49480  -0.48799
  Beta  occ. eigenvalues --   -0.41619  -0.40888  -0.30369
  Beta virt. eigenvalues --    0.00540   0.02692   0.03838   0.04431   0.06366
  Beta virt. eigenvalues --    0.06706   0.08236   0.08632   0.10928   0.13738
  Beta virt. eigenvalues --    0.17772   0.17804   0.19796   0.28681   0.30108

 Mulliken charges and spin densities:
               1          2
     1  C   -0.575614  -0.000000
     2  P    0.030685   0.000000
     3  H   -0.001440   0.000000
     4  H    0.182431   0.000000
     5  H   -0.001441   0.000000
     6  H    0.182432   0.000000
     7  H    0.182947   0.000000
 Sum of Mulliken charges =  -0.00000   0.00000

 Dipole moment (field-independent basis, Debye):
    X=             -0.7268    Y=              0.0004    Z=              0.9866  Tot=              1.2254
 Quadrupole moment (field-independent basis, Debye-Ang):
   XX=            -22.2815   YY=            -21.2084   ZZ=            -24.4515
   XY=              0.0007   XZ=              1.7354   YZ=             -0.0014

 Normal termination of Gaussian 16 at Wed Apr 16 03:12:30 2025.
