 Gaussian 16, Revision A.03,
 Gaussian 16:  ES64L-G16RevA.03 25-Dec-2016

 ---------------------------------------------------
 #p UM062X/6-311+G** force int=superfine pop=saveNBO
 ---------------------------------------------------

 -------------------
 Title Card Required
 -------------------
 Symbolic Z-matrix:
 Charge =  0 Multiplicity = 1

                         Standard orientation:
 ---------------------------------------------------------------------
 Center     Atomic      Atomic             Coordinates (Angstroms)
 Number     Number       Type             X           Y           Z
 ---------------------------------------------------------------------
      1         16           0        0.000000    0.000000    2.050200
      2         16           0        0.000000    0.000000   -2.050200
 ---------------------------------------------------------------------

 SCF Done:  E(UM062X) =  -796.027979275     A.U. after    9 cycles

 Unable to determine electronic state:  partially filled degenerate orbitals.
 Alpha  occ. eigenvalues --  -89.98693 -89.98693  -8.34503  -8.34503  -6.26530
 Alpha  occ. eigenvalues --   -6.26530  -6.26512  -6.26512  -6.25689  -6.25689
 Alpha  occ. eigenvalues --   -0.78050  -0.77443  -0.34845  -0.34462  -0.32168
 Alpha  occ. eigenvalues --   -0.31003
 Alpha virt. eigenvalues --   -0.23864  -0.22627   0.02941   0.03858   0.04690
 Alpha virt. eigenvalues --    0.05111   0.07025   0.07176   0.07453   0.12198
 Alpha virt. eigenvalues --    0.30562   0.32536   0.33374   0.35670   0.36546

  Beta  occ. eigenvalues --  -89.98693 -89.98693  -8.34503  -8.34503  -6.26530
  Beta  occ. eigenvalues --   -6.26530  -6.26512  -6.26512  -6.25689  -6.25689
  Beta  occ. eigenvalues --   -0.78050  -0.77443  -0.34845  -0.34462  -0.32168
  Beta  occ. eigenvalues --   -0.31003
  Beta virt. eigenvalues --   -0.23864  -0.22627   0.02941   0.03858   0.04690
  Beta virt. eigenvalues --    0.05111   0.07025   0.07176   0.07453   0.12198
  Beta virt. eigenvalues --    0.30562   0.32536   0.33374   0.35670   0.36546

 Mulliken charges and spin densities:
               1          2
     1  S   -0.000000   0.000000
     2  S   -0.000000   0.000000
 Sum of Mulliken charges =  -0.00000   0.00000

 Dipole moment (field-independent basis, Debye):
    X=             -0.0000    Y=             -0.0000    Z=              0.0000  Tot=              0.0000
 Quadrupole moment (field-independent basis, Debye-Ang):
   XX=            -25.3754   YY=            -30.4060   ZZ=            -22.7084
   XY=              0.0000   XZ=             -0.0000   YZ=              0.0000

 Summary of Natural Population Analysis:

                                       Natural Population
                Natural  -----------------------------------------------
    Atom  No    Charge         Core      Valence    Rydberg      Total
 -----------------------------------------------------------------------
      S    1   -0.00000      5.00000     2.99925    0.00075     8.00000
      S    2   -0.00000      5.00000     2.99925    0.00075     8.00000
 =======================================================================
   * Total *   -0.00000      9.99999     5.99850    0.00150    16.00000

 Normal termination of Gaussian 16 at Mon Apr 21 20:03:44 2025.
