 Gaussian 16, Revision A.03,
 Gaussian 16:  ES64L-G16RevA.03 25-Dec-2016

 --------------------------------------------
 #p opt UM062X/6-311+G** nosymm int=superfine
 --------------------------------------------

 -------------------
 Title Card Required
 -------------------
 Symbolic Z-matrix:
 Charge =  0 Multiplicity = 1

 SCF Done:  E(UM062X) =  -474.343348563     A.U. after  108 cycles
 SCF Done:  E(UM062X) =  -474.343548947     A.U. after   25 cycles
 SCF Done:  E(UM062X) =  -474.343816238     A.U. after   37 cycles
 SCF Done:  E(UM062X) =  -474.344242682     A.U. after   33 cycles
 SCF Done:  E(UM062X) =  -474.344494051     A.U. after   28 cycles
 SCF Done:  E(UM062X) =  -474.344635064     A.U. after   22 cycles
 SCF Done:  E(UM062X) =  -474.344785572     A.U. after   42 cycles
 SCF Done:  E(UM062X) =  -474.344787128     A.U. after   22 cycles
 SCF Done:  E(UM062X) =  -474.344787672     A.U. after   23 cycles
 SCF Done:  E(UM062X) =  -474.344787738     A.U. after   19 cycles
 Optimization completed.
    -- Stationary point found.

                          Input orientation:
 ---------------------------------------------------------------------
 Center     Atomic      Atomic             Coordinates (Angstroms)
 Number     Number       Type             X           Y           Z
 ---------------------------------------------------------------------
      1          8           0       -2.189392    0.000000    0.000000
      2         16           0        2.189392    0.000000    0.000000
      3          1           0       -2.172896   -0.698777   -0.672752
      4          1           0        1.891076    0.786699    1.052417
 ---------------------------------------------------------------------

 Alpha  occ. eigenvalues --  -89.97631 -19.66928  -8.33852  -6.26048  -6.25706
 Alpha  occ. eigenvalues --   -6.25134  -1.08288  -0.83976  -0.52365  -0.49846
 Alpha  occ. eigenvalues --   -0.39593  -0.35893  -0.32139
 Alpha virt. eigenvalues --   -0.24469   0.01465   0.03950   0.04614   0.05217
 Alpha virt. eigenvalues --    0.06433   0.11921   0.19063   0.19593   0.21228
 Alpha virt. eigenvalues --    0.23789   0.30831   0.33965   0.34859   0.38859

  Beta  occ. eigenvalues --  -89.97631 -19.66928  -8.33852  -6.26048  -6.25706
  Beta  occ. eigenvalues --   -6.25134  -1.08288  -0.83976  -0.52365  -0.49846
  Beta  occ. eigenvalues --   -0.39593  -0.35893  -0.32139
  Beta virt. eigenvalues --   -0.24469   0.01465   0.03950   0.04614   0.05217
  Beta virt. eigenvalues --    0.06433   0.11921   0.19063   0.19593   0.21228
  Beta virt. eigenvalues --    0.23789   0.30831   0.33965   0.34859   0.38859

 Mulliken charges and spin densities:
               1          2
     1  O   -0.378388  -0.000000
     2  S    0.030507   0.000000
     3  H    0.246203  -0.000000
     4  H    0.101679  -0.000000
 Sum of Mulliken charges =   0.00000   0.00000

 Dipole moment (field-independent basis, Debye):
    X=              2.5610    Y=             -0.5778    Z=             -0.2898  Tot=              2.6414
 Quadrupole moment (field-independent basis, Debye-Ang):
   XX=            -19.0285   YY=            -20.0056   ZZ=            -18.9400
   XY=              4.3021   XZ=              4.7000   YZ=              3.2004

 Normal termination of Gaussian 16 at Thu May 15 13:58:23 2025.
