 Gaussian 16, Revision A.03,
 Gaussian 16:  ES64L-G16RevA.03 25-Dec-2016

 --------------------------------------------
 #p opt UM062X/6-311+G** nosymm int=superfine
 --------------------------------------------

 -------------------
 Title Card Required
 -------------------
 Symbolic Z-matrix:
 Charge =  0 Multiplicity = 1

 SCF Done:  E(UM062X) =  -79.6208405202     A.U. after   10 cycles
 SCF Done:  E(UM062X) =  -79.6224499287     A.U. after    9 cycles
 SCF Done:  E(UM062X) =  -79.6228895638     A.U. after    8 cycles
 Optimization completed.
    -- Stationary point found.

                          Input orientation:
 ---------------------------------------------------------------------
 Center     Atomic      Atomic             Coordinates (Angstroms)
 Number     Number       Type             X           Y           Z
 ---------------------------------------------------------------------
      1          6           0       -1.521675    0.000000    0.000000
      2          6           0        1.521800    0.000000    0.000000
      3          1           0        1.648604   -0.928482    0.537256
      4          1           0       -1.648468   -0.929529   -0.535443
      5          1           0        1.648596    0.929529    0.535442
      6          1           0        1.648588   -0.001047   -1.072721
      7          1           0       -1.648479    0.928482   -0.537256
      8          1           0       -1.648467    0.001046    1.072720
 ---------------------------------------------------------------------

 Alpha  occ. eigenvalues --  -10.56740 -10.56738  -0.76954  -0.75733  -0.48694
 Alpha  occ. eigenvalues --   -0.48693  -0.48043  -0.48042  -0.24432
 Alpha virt. eigenvalues --   -0.07338   0.02885   0.05383   0.05383   0.05713
 Alpha virt. eigenvalues --    0.07854   0.07854   0.10967   0.12521   0.18361
 Alpha virt. eigenvalues --    0.18361   0.21309   0.21309   0.24110   0.25260

  Beta  occ. eigenvalues --  -10.56740 -10.56738  -0.76954  -0.75733  -0.48694
  Beta  occ. eigenvalues --   -0.48693  -0.48043  -0.48042  -0.24432
  Beta virt. eigenvalues --   -0.07338   0.02885   0.05383   0.05383   0.05713
  Beta virt. eigenvalues --    0.07854   0.07854   0.10967   0.12521   0.18361
  Beta virt. eigenvalues --    0.18361   0.21309   0.21309   0.24110   0.25260

 Mulliken charges and spin densities:
               1          2
     1  C   -0.523278  -0.000000
     2  C   -0.523280   0.000000
     3  H    0.174426  -0.000000
     4  H    0.174426   0.000000
     5  H    0.174427  -0.000000
     6  H    0.174426  -0.000000
     7  H    0.174426   0.000000
     8  H    0.174426   0.000000
 Sum of Mulliken charges =  -0.00000   0.00000

 Dipole moment (field-independent basis, Debye):
    X=             -0.0000    Y=             -0.0000    Z=             -0.0000  Tot=              0.0000
 Quadrupole moment (field-independent basis, Debye-Ang):
   XX=            -15.4058   YY=            -14.8054   ZZ=            -14.8055
   XY=             -0.0000   XZ=             -0.0000   YZ=              0.0000

 Normal termination of Gaussian 16 at Tue Dec  3 10:00:47 2024.
