 Gaussian 16, Revision A.03,
 Gaussian 16:  ES64L-G16RevA.03 25-Dec-2016

 --------------------------------
 #p UM062X/6-311+G** Pop=NBO Read
 --------------------------------

 ------------
 NBO Analysis
 ------------
 Symbolic Z-matrix:
 Charge =  0 Multiplicity = 1

                         Standard orientation:
 ---------------------------------------------------------------------
 Center     Atomic      Atomic             Coordinates (Angstroms)
 Number     Number       Type             X           Y           Z
 ---------------------------------------------------------------------
      1         15           0       -1.114311    0.080509   -0.086362
      2         15           0        1.114312   -0.080517   -0.086355
      3          1           0        1.332204    1.313897    0.002022
      4          1           0       -1.332219   -1.313894    0.002132
      5          1           0        1.338969   -0.302145    1.293316
      6          1           0       -1.338967    0.302261    1.293290
 ---------------------------------------------------------------------

 SCF Done:  E(UM062X) =  -685.003135563     A.U. after   10 cycles

 The electronic state is 1-A.
 Alpha  occ. eigenvalues --  -78.05595 -78.05595  -6.86457  -6.86450  -4.97917
 Alpha  occ. eigenvalues --   -4.97897  -4.97875  -4.97874  -4.97640  -4.97636
 Alpha  occ. eigenvalues --   -0.77114  -0.66837  -0.46465  -0.46192  -0.40759
 Alpha  occ. eigenvalues --   -0.32973  -0.31096
 Alpha virt. eigenvalues --    0.00153   0.00660   0.04347   0.04818   0.04893
 Alpha virt. eigenvalues --    0.05376   0.06270   0.07658   0.07763   0.09320
 Alpha virt. eigenvalues --    0.10930   0.19012   0.24527   0.39004   0.42504

  Beta  occ. eigenvalues --  -78.05595 -78.05595  -6.86457  -6.86450  -4.97917
  Beta  occ. eigenvalues --   -4.97897  -4.97875  -4.97874  -4.97640  -4.97636
  Beta  occ. eigenvalues --   -0.77114  -0.66837  -0.46465  -0.46192  -0.40759
  Beta  occ. eigenvalues --   -0.32973  -0.31096
  Beta virt. eigenvalues --    0.00153   0.00660   0.04347   0.04818   0.04893
  Beta virt. eigenvalues --    0.05376   0.06270   0.07658   0.07763   0.09320
  Beta virt. eigenvalues --    0.10930   0.19012   0.24527   0.39004   0.42504

 Mulliken charges and spin densities:
               1          2
     1  P    0.031131   0.000000
     2  P    0.031133   0.000000
     3  H   -0.015025   0.000000
     4  H   -0.015025   0.000000
     5  H   -0.016107   0.000000
     6  H   -0.016107   0.000000
 Sum of Mulliken charges =  -0.00000   0.00000

 Dipole moment (field-independent basis, Debye):
    X=              0.0000    Y=              0.0000    Z=              1.3316  Tot=              1.3316
 Quadrupole moment (field-independent basis, Debye-Ang):
   XX=            -30.8256   YY=            -28.8680   ZZ=            -29.8151
   XY=              2.2168   XZ=             -0.0001   YZ=             -0.0000

 Summary of Natural Population Analysis:

                                       Natural Population
                Natural  -----------------------------------------------
    Atom  No    Charge         Core      Valence    Rydberg      Total
 -----------------------------------------------------------------------
      P    1   -0.00361      4.99957     2.48159    0.02245     7.50361
      P    2   -0.00361      4.99957     2.48159    0.02245     7.50361
      H    3    0.00222      0.00000     0.49603    0.00175     0.49778
      H    4    0.00222      0.00000     0.49602    0.00175     0.49778
      H    5    0.00138      0.00000     0.49688    0.00174     0.49862
      H    6    0.00138      0.00000     0.49688    0.00174     0.49862
 =======================================================================
   * Total *   -0.00000      9.99914     6.94899    0.05187    17.00000

 Normal termination of Gaussian 16 at Wed Apr 16 06:13:58 2025.
