 Gaussian 16, Revision A.03,
 Gaussian 16:  ES64L-G16RevA.03 25-Dec-2016

 ---------------------------------------
 #p UM062X/6-311+G** force int=superfine
 ---------------------------------------

 -------------------
 Title Card Required
 -------------------
 Symbolic Z-matrix:
 Charge =  1 Multiplicity = 2

                         Standard orientation:
 ---------------------------------------------------------------------
 Center     Atomic      Atomic             Coordinates (Angstroms)
 Number     Number       Type             X           Y           Z
 ---------------------------------------------------------------------
      1          7           0        0.000000    0.000000    1.955391
      2          7           0        0.000000    0.000000   -1.955391
 ---------------------------------------------------------------------

 SCF Done:  E(UM062X) =  -108.325316116     A.U. after   10 cycles

 Unable to determine electronic state:  partially filled degenerate orbitals.
 Alpha  occ. eigenvalues --  -15.29974 -15.29971  -1.18735  -1.18346  -0.64199
 Alpha  occ. eigenvalues --   -0.62221  -0.61570
 Alpha virt. eigenvalues --   -0.56913  -0.54274  -0.53811  -0.12920  -0.07964
 Alpha virt. eigenvalues --   -0.07402  -0.07229  -0.04509  -0.02947  -0.02762
 Alpha virt. eigenvalues --    0.03379   0.52062   0.53203   0.53268   0.54056

  Beta  occ. eigenvalues --  -15.29484 -15.29483  -1.14999  -1.14672  -0.60461
  Beta  occ. eigenvalues --   -0.59793
  Beta virt. eigenvalues --   -0.52486  -0.51960  -0.42954  -0.42765  -0.13640
  Beta virt. eigenvalues --   -0.08803  -0.07523  -0.07245  -0.04702  -0.03251
  Beta virt. eigenvalues --   -0.02968   0.02417   0.53064   0.53420   0.54238

 Mulliken charges and spin densities:
               1          2
     1  N    0.500000   0.500000
     2  N    0.500000   0.500000
 Sum of Mulliken charges =   1.00000   1.00000

 Dipole moment (field-independent basis, Debye):
    X=              0.0000    Y=             -0.0000    Z=             -0.0000  Tot=              0.0000
 Quadrupole moment (field-independent basis, Debye-Ang):
   XX=             -9.9966   YY=             -8.5573   ZZ=              9.6263
   XY=             -0.0000   XZ=             -0.0000   YZ=             -0.0000

 Optimization completed.
    -- Stationary point found.
 Normal termination of Gaussian 16 at Wed Feb 26 14:02:01 2025.
