 Gaussian 16, Revision A.03,
 Gaussian 16:  ES64L-G16RevA.03 25-Dec-2016

 --------------------------------------------
 #p opt UM062X/6-311+G** nosymm int=superfine
 --------------------------------------------

 -------------------
 Title Card Required
 -------------------
 Symbolic Z-matrix:
 Charge =  0 Multiplicity = 1

 SCF Done:  E(UM062X) =  -114.362036327     A.U. after   11 cycles
 SCF Done:  E(UM062X) =  -114.364616319     A.U. after   10 cycles
 SCF Done:  E(UM062X) =  -114.365175423     A.U. after   10 cycles
 SCF Done:  E(UM062X) =  -114.365179088     A.U. after    9 cycles
 SCF Done:  E(UM062X) =  -114.365173235     A.U. after    9 cycles
 SCF Done:  E(UM062X) =  -114.365174457     A.U. after    9 cycles
 SCF Done:  E(UM062X) =  -114.365178801     A.U. after    8 cycles
 Optimization completed.
    -- Stationary point found.

                          Input orientation:
 ---------------------------------------------------------------------
 Center     Atomic      Atomic             Coordinates (Angstroms)
 Number     Number       Type             X           Y           Z
 ---------------------------------------------------------------------
      1          6           0       -0.798311    0.000000    0.000000
      2          8           0        0.798311    0.000000    0.000000
      3          1           0       -1.272526   -0.973200   -0.000539
      4          1           0       -1.272528    0.973200   -0.000539
 ---------------------------------------------------------------------

 Alpha  occ. eigenvalues --  -19.66825 -10.69102  -1.04263  -0.78301  -0.57791
 Alpha  occ. eigenvalues --   -0.46640  -0.38208  -0.36603
 Alpha virt. eigenvalues --   -0.09420   0.01162   0.03718   0.04270   0.06648
 Alpha virt. eigenvalues --    0.12972   0.15733   0.19399   0.21367   0.24089
 Alpha virt. eigenvalues --    0.26497   0.32937   0.41738   0.48241   0.54612

  Beta  occ. eigenvalues --  -19.66825 -10.69102  -1.04263  -0.78301  -0.57791
  Beta  occ. eigenvalues --   -0.46640  -0.38208  -0.36603
  Beta virt. eigenvalues --   -0.09420   0.01162   0.03718   0.04270   0.06648
  Beta virt. eigenvalues --    0.12972   0.15733   0.19399   0.21367   0.24089
  Beta virt. eigenvalues --    0.26497   0.32937   0.41738   0.48241   0.54612

 Mulliken charges and spin densities:
               1          2
     1  C   -0.077596  -0.000000
     2  O   -0.310289   0.000000
     3  H    0.193943  -0.000000
     4  H    0.193943   0.000000
 Sum of Mulliken charges =  -0.00000  -0.00000

 Dipole moment (field-independent basis, Debye):
    X=             -3.8321    Y=             -0.0000    Z=             -0.0009  Tot=              3.8321
 Quadrupole moment (field-independent basis, Debye-Ang):
   XX=            -11.1866   YY=            -11.3481   ZZ=            -12.7459
   XY=             -0.0000   XZ=              0.0008   YZ=              0.0000

 Normal termination of Gaussian 16 at Mon Apr 21 18:48:40 2025.
