 Gaussian 16, Revision A.03,
 Gaussian 16:  ES64L-G16RevA.03 25-Dec-2016

 --------------------------------------------
 #p opt UM062X/6-311+G** nosymm int=superfine
 --------------------------------------------

 -------------------
 Title Card Required
 -------------------
 Symbolic Z-matrix:
 Charge =  0 Multiplicity = 3

 SCF Done:  E(UM062X) =  -50.4797570839     A.U. after   13 cycles
 SCF Done:  E(UM062X) =  -50.4806694421     A.U. after   10 cycles
 SCF Done:  E(UM062X) =  -50.4806764905     A.U. after   10 cycles
 Optimization completed.
    -- Stationary point found.

                          Input orientation:
 ---------------------------------------------------------------------
 Center     Atomic      Atomic             Coordinates (Angstroms)
 Number     Number       Type             X           Y           Z
 ---------------------------------------------------------------------
      1          5           0       -1.928410    0.000000    0.000000
      2          5           0        1.928410    0.000000    0.000000
      3          1           0       -3.133815   -0.000082    0.000000
      4          1           0        3.133815    0.000082   -0.000000
 ---------------------------------------------------------------------

 Alpha  occ. eigenvalues --   -7.14408  -7.14407  -0.56896  -0.56700  -0.33558
 Alpha  occ. eigenvalues --   -0.30630  -0.17859
 Alpha virt. eigenvalues --   -0.10028  -0.06439  -0.05413   0.02684   0.02860
 Alpha virt. eigenvalues --    0.05744   0.07029   0.07117   0.08038   0.08119
 Alpha virt. eigenvalues --    0.11529   0.16801   0.22136   0.33324   0.39416

  Beta  occ. eigenvalues --   -7.13501  -7.13500  -0.53591  -0.53442  -0.23964
  Beta virt. eigenvalues --   -0.11285  -0.04568  -0.04057  -0.03104  -0.02576
  Beta virt. eigenvalues --    0.01855   0.02438   0.07035   0.07307   0.07852
  Beta virt. eigenvalues --    0.08067   0.08919   0.09583   0.17295   0.23484

 Mulliken charges and spin densities:
               1          2
     1  B   -0.062965   0.926285
     2  B   -0.062965   0.926285
     3  H    0.062965   0.073715
     4  H    0.062965   0.073715
 Sum of Mulliken charges =  -0.00000   2.00000

 Dipole moment (field-independent basis, Debye):
    X=              0.0000    Y=              0.0000    Z=             -0.0000  Tot=              0.0000
 Quadrupole moment (field-independent basis, Debye-Ang):
   XX=             -7.8755   YY=            -13.6763   ZZ=            -17.6883
   XY=              0.0000   XZ=             -0.0000   YZ=             -0.0001

 1\1\GINC-NODE01\FOpt\UM062X\6-311+G(d,p)\B2H2(3)\SZHAO\21-Apr-2025\0\\
 #p opt UM062X/6-311+G** nosymm int=superfine\\Title Card Required\\0,3
 \B,-1.92841047,0.,0.\B,1.92841047,0.,0.\H,-3.1338152963,-0.0000822378,
 0.0000000011\H,3.1338152833,0.000082239,-0.0000000011\\Version=ES64L-G
 16RevA.03\HF=-50.4806765\S2=2.020728\S2-1=0.\S2A=2.000017\RMSD=2.493e-
 09\RMSF=4.344e-07\Dipole=0.,0.,0.\Quadrupole=3.8694207,-0.4432911,-3.4
 261296,0.0000124,0.,-0.000039\PG=C*V [C*(H1B1B1H1)]\\@

 Normal termination of Gaussian 16 at Mon Apr 21 17:27:19 2025.
