 Gaussian 16, Revision A.03,
 Gaussian 16:  ES64L-G16RevA.03 25-Dec-2016

 --------------------------------------------
 #p opt UM062X/6-311+G** nosymm int=superfine
 --------------------------------------------

 -------------------
 Title Card Required
 -------------------
 Symbolic Z-matrix:
 Charge =  0 Multiplicity = 1

 SCF Done:  E(UM062X) =  -114.200772745     A.U. after   13 cycles
 SCF Done:  E(UM062X) =  -114.202403206     A.U. after   11 cycles
 SCF Done:  E(UM062X) =  -114.203267327     A.U. after   12 cycles
 SCF Done:  E(UM062X) =  -114.203315468     A.U. after   12 cycles
 Optimization completed.
    -- Stationary point found.

                          Input orientation:
 ---------------------------------------------------------------------
 Center     Atomic      Atomic             Coordinates (Angstroms)
 Number     Number       Type             X           Y           Z
 ---------------------------------------------------------------------
      1          6           0       -1.023311    0.000000    0.000000
      2          8           0        1.023311    0.000000    0.000000
      3          1           0       -1.485183   -0.979472   -0.000086
      4          1           0       -1.485183    0.979472   -0.000085
 ---------------------------------------------------------------------

 Alpha  occ. eigenvalues --  -19.67043 -10.72170  -0.98350  -0.81763  -0.59253
 Alpha  occ. eigenvalues --   -0.40160  -0.35520  -0.33646
 Alpha virt. eigenvalues --   -0.14592  -0.05873   0.01204   0.04161   0.06571
 Alpha virt. eigenvalues --    0.06919   0.13018   0.17855   0.21281   0.23852
 Alpha virt. eigenvalues --    0.26535   0.33112   0.39442   0.44332   0.53119

  Beta  occ. eigenvalues --  -19.67043 -10.72170  -0.98350  -0.81763  -0.59253
  Beta  occ. eigenvalues --   -0.40160  -0.35520  -0.33646
  Beta virt. eigenvalues --   -0.14592  -0.05873   0.01204   0.04161   0.06571
  Beta virt. eigenvalues --    0.06919   0.13018   0.17855   0.21281   0.23852
  Beta virt. eigenvalues --    0.26535   0.33112   0.39442   0.44332   0.53119

 Mulliken charges and spin densities:
               1          2
     1  C   -0.115559  -0.000001
     2  O   -0.311012   0.000001
     3  H    0.213286   0.000000
     4  H    0.213286   0.000000
 Sum of Mulliken charges =  -0.00000   0.00000

 Dipole moment (field-independent basis, Debye):
    X=             -4.8662    Y=             -0.0000    Z=             -0.0002  Tot=              4.8662
 Quadrupole moment (field-independent basis, Debye-Ang):
   XX=             -9.9753   YY=            -11.5620   ZZ=            -13.1720
   XY=             -0.0000   XZ=              0.0000   YZ=              0.0000

 Normal termination of Gaussian 16 at Mon Apr 21 18:43:42 2025.
