 Gaussian 16, Revision A.03,
 Gaussian 16:  ES64L-G16RevA.03 25-Dec-2016

 --------------------------------------------
 #p opt UM062X/6-311+G** nosymm int=superfine
 --------------------------------------------

 -------------------
 Title Card Required
 -------------------
 Symbolic Z-matrix:
 Charge =  0 Multiplicity = 1

 SCF Done:  E(UM062X) =  -95.6082444743     A.U. after   14 cycles
 SCF Done:  E(UM062X) =  -95.6249225029     A.U. after   11 cycles
 SCF Done:  E(UM062X) =  -95.6363766209     A.U. after   14 cycles
 SCF Done:  E(UM062X) =  -95.6367173785     A.U. after   12 cycles
 SCF Done:  E(UM062X) =  -95.6368836187     A.U. after   12 cycles
 SCF Done:  E(UM062X) =  -95.6369284236     A.U. after   12 cycles
 SCF Done:  E(UM062X) =  -95.6369348220     A.U. after   10 cycles
 SCF Done:  E(UM062X) =  -95.6369377627     A.U. after   11 cycles
 SCF Done:  E(UM062X) =  -95.6369400383     A.U. after    9 cycles
 SCF Done:  E(UM062X) =  -95.6369408241     A.U. after   11 cycles
 Optimization completed.
    -- Stationary point found.

                          Input orientation:
 ---------------------------------------------------------------------
 Center     Atomic      Atomic             Coordinates (Angstroms)
 Number     Number       Type             X           Y           Z
 ---------------------------------------------------------------------
      1          6           0       -1.605542    0.000000    0.000000
      2          7           0        1.605542    0.000000    0.000000
      3          1           0        1.574154   -1.015788    0.139426
      4          1           0       -1.630151    1.079990    0.007379
      5          1           0        1.574203    0.367350    0.957248
      6          1           0       -1.629874   -0.523246   -0.944805
      7          1           0       -1.748815   -0.547025    0.921026
 ---------------------------------------------------------------------

 Alpha  occ. eigenvalues --  -14.75044 -10.61740  -0.90224  -0.80427  -0.52595
 Alpha  occ. eigenvalues --   -0.52386  -0.50667  -0.35976  -0.26441
 Alpha virt. eigenvalues --   -0.12273   0.01732   0.04762   0.05200   0.06949
 Alpha virt. eigenvalues --    0.10034   0.13212   0.15938   0.16750   0.17207
 Alpha virt. eigenvalues --    0.19065   0.20959   0.22223   0.29239   0.41229

  Beta  occ. eigenvalues --  -14.75044 -10.61740  -0.90224  -0.80427  -0.52595
  Beta  occ. eigenvalues --   -0.52386  -0.50667  -0.35976  -0.26441
  Beta virt. eigenvalues --   -0.12273   0.01732   0.04762   0.05200   0.06949
  Beta virt. eigenvalues --    0.10034   0.13212   0.15938   0.16750   0.17207
  Beta virt. eigenvalues --    0.19065   0.20959   0.22223   0.29239   0.41229

 Mulliken charges and spin densities:
               1          2
     1  C   -0.430176  -0.000000
     2  N   -0.589926   0.000000
     3  H    0.215948  -0.000000
     4  H    0.200824   0.000000
     5  H    0.215947  -0.000000
     6  H    0.200875   0.000000
     7  H    0.186508   0.000000
 Sum of Mulliken charges =  -0.00000  -0.00000

 Dipole moment (field-independent basis, Debye):
    X=             -2.9559    Y=             -0.9827    Z=              1.6619  Tot=              3.5305
 Quadrupole moment (field-independent basis, Debye-Ang):
   XX=            -15.3330   YY=            -13.3929   ZZ=            -14.1942
   XY=             -1.6842   XZ=              2.8485   YZ=              0.7286

 Normal termination of Gaussian 16 at Mon Apr 21 18:15:29 2025.
