 Gaussian 16, Revision A.03,
 Gaussian 16:  ES64L-G16RevA.03 25-Dec-2016

 --------------------------------------------
 #p opt UM062X/6-311+G** nosymm int=superfine
 --------------------------------------------

 -------------------
 Title Card Required
 -------------------
 Symbolic Z-matrix:
 Charge =  0 Multiplicity = 1

 SCF Done:  E(UM062X) =  -579.900919405     A.U. after   10 cycles
 SCF Done:  E(UM062X) =  -579.905755035     A.U. after   10 cycles
 SCF Done:  E(UM062X) =  -579.905804504     A.U. after    9 cycles
 SCF Done:  E(UM062X) =  -579.905804611     A.U. after    8 cycles
 SCF Done:  E(UM062X) =  -579.922947723     A.U. after   17 cycles
 SCF Done:  E(UM062X) =  -579.950362767     A.U. after   12 cycles
 SCF Done:  E(UM062X) =  -579.982184401     A.U. after   10 cycles
 SCF Done:  E(UM062X) =  -579.984003244     A.U. after    9 cycles
 SCF Done:  E(UM062X) =  -579.984011067     A.U. after    8 cycles
 SCF Done:  E(UM062X) =  -579.984011530     A.U. after    7 cycles
 Optimization completed.
    -- Stationary point found.

                          Input orientation:
 ---------------------------------------------------------------------
 Center     Atomic      Atomic             Coordinates (Angstroms)
 Number     Number       Type             X           Y           Z
 ---------------------------------------------------------------------
      1         14           0       -1.453705    0.000000    0.000000
      2         14           0        1.453705    0.000000    0.000000
      3          1           0       -1.499328    1.518961   -0.000005
      4          1           0        1.499218    1.518965    0.000000
 ---------------------------------------------------------------------

 Alpha  occ. eigenvalues --  -67.02661 -67.02661  -5.57143  -5.57143  -3.88328
 Alpha  occ. eigenvalues --   -3.88328  -3.87808  -3.87805  -3.87693  -3.87692
 Alpha  occ. eigenvalues --   -0.56751  -0.51873  -0.34673  -0.29747  -0.23161
 Alpha virt. eigenvalues --   -0.10744  -0.05749  -0.01087   0.02278   0.03738
 Alpha virt. eigenvalues --    0.04148   0.05334   0.05473   0.06288   0.06667
 Alpha virt. eigenvalues --    0.07884   0.10161   0.12810   0.28146   0.30139

  Beta  occ. eigenvalues --  -67.02661 -67.02661  -5.57143  -5.57143  -3.88328
  Beta  occ. eigenvalues --   -3.88328  -3.87808  -3.87805  -3.87693  -3.87692
  Beta  occ. eigenvalues --   -0.56751  -0.51873  -0.34673  -0.29747  -0.23161
  Beta virt. eigenvalues --   -0.10744  -0.05749  -0.01087   0.02278   0.03738
  Beta virt. eigenvalues --    0.04148   0.05334   0.05473   0.06288   0.06667
  Beta virt. eigenvalues --    0.07884   0.10161   0.12810   0.28146   0.30139

 Mulliken charges and spin densities:
               1          2
     1  Si   0.152980   0.000000
     2  Si   0.152993   0.000000
     3  H   -0.152986   0.000000
     4  H   -0.152987  -0.000000
 Sum of Mulliken charges =   0.00000  -0.00000

 Dipole moment (field-independent basis, Debye):
    X=              0.0001    Y=              0.5140    Z=             -0.0000  Tot=              0.5140
 Quadrupole moment (field-independent basis, Debye-Ang):
   XX=            -34.9465   YY=            -33.1281   ZZ=            -23.1005
   XY=             -0.0002   XZ=              0.0000   YZ=              0.0000

 Normal termination of Gaussian 16 at Mon Apr 21 21:25:44 2025.
