 Gaussian 16, Revision A.03,
 Gaussian 16:  ES64L-G16RevA.03 25-Dec-2016

 --------------------------------------------
 #p opt UM062X/6-311+G** nosymm int=superfine
 --------------------------------------------

 -------------------
 Title Card Required
 -------------------
 Symbolic Z-matrix:
 Charge =  0 Multiplicity = 1

 SCF Done:  E(UM062X) =  -110.233042843     A.U. after   13 cycles
 SCF Done:  E(UM062X) =  -110.240207475     A.U. after   13 cycles
 SCF Done:  E(UM062X) =  -110.245575265     A.U. after   14 cycles
 SCF Done:  E(UM062X) =  -110.245592257     A.U. after   10 cycles
 Optimization completed.
    -- Stationary point found.

                          Input orientation:
 ---------------------------------------------------------------------
 Center     Atomic      Atomic             Coordinates (Angstroms)
 Number     Number       Type             X           Y           Z
 ---------------------------------------------------------------------
      1          7           0       -1.390428    0.000000    0.000000
      2          7           0        1.390428    0.000000    0.000000
      3          1           0       -1.226680   -1.025047    0.000000
      4          1           0        1.226680    1.025047    0.000000
 ---------------------------------------------------------------------

 Alpha  occ. eigenvalues --  -14.88834 -14.88830  -0.93413  -0.91462  -0.49443
 Alpha  occ. eigenvalues --   -0.48321  -0.34124  -0.31383
 Alpha virt. eigenvalues --   -0.19945  -0.16920   0.05572   0.07444   0.10660
 Alpha virt. eigenvalues --    0.11931   0.13365   0.14813   0.15822   0.18879
 Alpha virt. eigenvalues --    0.19671   0.23707   0.52183   0.55503   0.70462

  Beta  occ. eigenvalues --  -14.88834 -14.88830  -0.93413  -0.91462  -0.49443
  Beta  occ. eigenvalues --   -0.48321  -0.34124  -0.31383
  Beta virt. eigenvalues --   -0.19945  -0.16920   0.05572   0.07444   0.10660
  Beta virt. eigenvalues --    0.11931   0.13365   0.14813   0.15822   0.18879
  Beta virt. eigenvalues --    0.19671   0.23707   0.52183   0.55503   0.70462

 Mulliken charges and spin densities:
               1          2
     1  N   -0.243210   0.000000
     2  N   -0.243210  -0.000000
     3  H    0.243210  -0.000000
     4  H    0.243210  -0.000000
 Sum of Mulliken charges =  -0.00000  -0.00000

 Dipole moment (field-independent basis, Debye):
    X=             -0.0000    Y=             -0.0000    Z=              0.0000  Tot=              0.0000
 Quadrupole moment (field-independent basis, Debye-Ang):
   XX=            -13.9103   YY=            -11.0738   ZZ=            -14.1779
   XY=              4.7570   XZ=             -0.0000   YZ=             -0.0000

 Normal termination of Gaussian 16 at Thu May 15 15:38:11 2025.
