 Gaussian 16, Revision A.03,
 Gaussian 16:  ES64L-G16RevA.03 25-Dec-2016

 --------------------------------------------
 #p opt UM062X/6-311+G** nosymm int=superfine
 --------------------------------------------

 -------------------
 Title Card Required
 -------------------
 Symbolic Z-matrix:
 Charge =  1 Multiplicity = 2

 SCF Done:  E(UM062X) =  -379.296008837     A.U. after   47 cycles
 SCF Done:  E(UM062X) =  -379.296780761     A.U. after   29 cycles
 SCF Done:  E(UM062X) =  -379.296782323     A.U. after   11 cycles
 Optimization completed.
    -- Stationary point found.

                          Input orientation:
 ---------------------------------------------------------------------
 Center     Atomic      Atomic             Coordinates (Angstroms)
 Number     Number       Type             X           Y           Z
 ---------------------------------------------------------------------
      1          6           0       -2.069427    0.000000    0.000000
      2         15           0        2.069427    0.000000    0.000000
      3          1           0       -3.190538    0.000000    0.000007
 ---------------------------------------------------------------------

 Alpha  occ. eigenvalues --  -78.31661 -10.97305  -7.13218  -5.25362  -5.25011
 Alpha  occ. eigenvalues --   -5.23964  -0.99299  -0.85173  -0.65248  -0.50824
 Alpha  occ. eigenvalues --   -0.45197
 Alpha virt. eigenvalues --   -0.38190  -0.34757  -0.33497  -0.13227  -0.09562
 Alpha virt. eigenvalues --   -0.08465  -0.08122  -0.06550  -0.05422  -0.05048
 Alpha virt. eigenvalues --   -0.02511   0.00083   0.16715   0.17258   0.17511

  Beta  occ. eigenvalues --  -78.30907 -10.97265  -7.12990  -5.24797  -5.23818
  Beta  occ. eigenvalues --   -5.23079  -0.99089  -0.79988  -0.65079  -0.44189
  Beta virt. eigenvalues --   -0.37118  -0.34590  -0.32323  -0.28515  -0.13624
  Beta virt. eigenvalues --   -0.10698  -0.08292  -0.08105  -0.06416  -0.05077
  Beta virt. eigenvalues --   -0.04655  -0.02770  -0.00154   0.14783   0.15520

 Mulliken charges and spin densities:
               1          2
     1  C    0.271246   0.049828
     2  P    0.488675   0.952127
     3  H    0.240078  -0.001955
 Sum of Mulliken charges =   1.00000   1.00000

 Dipole moment (field-independent basis, Debye):
    X=             -2.3155    Y=              0.0000    Z=              0.0000  Tot=              2.3155
 Quadrupole moment (field-independent basis, Debye-Ang):
   XX=             16.1210   YY=            -18.2932   ZZ=            -18.3493
   XY=             -0.0000   XZ=             -0.0000   YZ=              1.5833

 Normal termination of Gaussian 16 at Mon Apr 21 19:28:33 2025.
