 Gaussian 16, Revision A.03,
 Gaussian 16:  ES64L-G16RevA.03 25-Dec-2016

 ---------------------------------------
 #p UM062X/6-311+G** force int=superfine
 ---------------------------------------

 -------------------
 Title Card Required
 -------------------
 Symbolic Z-matrix:
 Charge =  1 Multiplicity = 2

                         Standard orientation:
 ---------------------------------------------------------------------
 Center     Atomic      Atomic             Coordinates (Angstroms)
 Number     Number       Type             X           Y           Z
 ---------------------------------------------------------------------
      1          6           0        0.000000    0.572583    0.000000
      2          6           0       -0.000000   -0.572583    0.000000
      3          1           0       -0.849282    1.322152    0.000000
      4          1           0        0.866069    1.307117    0.000000
      5          1           0        0.849282   -1.322152    0.000000
      6          1           0       -0.866069   -1.307117    0.000000
 ---------------------------------------------------------------------

 SCF Done:  E(UM062X) =  -78.0791523331     A.U. after   10 cycles

 The electronic state is 2-AG.
 Alpha  occ. eigenvalues --  -10.83472 -10.83068  -1.20898  -0.97775  -0.85513
 Alpha  occ. eigenvalues --   -0.84813  -0.68544  -0.67001
 Alpha virt. eigenvalues --   -0.20018  -0.15417  -0.15087  -0.13836  -0.10062
 Alpha virt. eigenvalues --   -0.08615  -0.07410  -0.06986  -0.03435  -0.03090
 Alpha virt. eigenvalues --   -0.00391   0.01991   0.11522   0.15698   0.21157

  Beta  occ. eigenvalues --  -10.83454 -10.83036  -1.19501  -0.93002  -0.82590
  Beta  occ. eigenvalues --   -0.78979  -0.66581
  Beta virt. eigenvalues --   -0.47800  -0.19603  -0.15015  -0.14590  -0.13653
  Beta virt. eigenvalues --   -0.09929  -0.08520  -0.05603  -0.05461  -0.02896
  Beta virt. eigenvalues --   -0.02819  -0.00028   0.02682   0.12018   0.15761

 Mulliken charges and spin densities:
               1          2
     1  C   -0.162205   0.127588
     2  C   -0.162205   0.127588
     3  H    0.330865   0.182597
     4  H    0.331340   0.189815
     5  H    0.330865   0.182597
     6  H    0.331340   0.189815
 Sum of Mulliken charges =   1.00000   1.00000

 Dipole moment (field-independent basis, Debye):
    X=             -0.0000    Y=              0.0000    Z=              0.0000  Tot=              0.0000
 Quadrupole moment (field-independent basis, Debye-Ang):
   XX=             -7.4304   YY=             -2.0935   ZZ=            -13.0737
   XY=              0.0433   XZ=              0.0000   YZ=              0.0000

 Normal termination of Gaussian 16 at Tue Nov 19 11:53:02 2024.
