 Gaussian 16, Revision A.03,
 Gaussian 16:  ES64L-G16RevA.03 25-Dec-2016

 --------------------------------------------
 #p opt UM062X/6-311+G** nosymm int=superfine
 --------------------------------------------

 -------------------
 Title Card Required
 -------------------
 Symbolic Z-matrix:
 Charge =  0 Multiplicity = 1

 SCF Done:  E(UM062X) =  -81.9895566813     A.U. after   10 cycles
 SCF Done:  E(UM062X) =  -81.9901307545     A.U. after    8 cycles
 SCF Done:  E(UM062X) =  -81.9897465819     A.U. after   10 cycles
 SCF Done:  E(UM062X) =  -81.9896204970     A.U. after   10 cycles
 SCF Done:  E(UM062X) =  -81.9891480365     A.U. after   10 cycles
 SCF Done:  E(UM062X) =  -81.9901818901     A.U. after    7 cycles
 SCF Done:  E(UM062X) =  -81.9902712839     A.U. after    8 cycles
 SCF Done:  E(UM062X) =  -81.9902709235     A.U. after    7 cycles
 SCF Done:  E(UM062X) =  -81.9902706490     A.U. after    8 cycles
 SCF Done:  E(UM062X) =  -81.9902720261     A.U. after    7 cycles
 Optimization completed.
    -- Stationary point found.

                          Input orientation:
 ---------------------------------------------------------------------
 Center     Atomic      Atomic             Coordinates (Angstroms)
 Number     Number       Type             X           Y           Z
 ---------------------------------------------------------------------
      1          5           0       -0.820399    0.000000    0.000000
      2          7           0        0.820399    0.000000    0.000000
      3          1           0       -1.342952   -1.061068   -0.000108
      4          1           0        1.353145    0.852958   -0.000123
      5          1           0       -1.342952    1.061068   -0.000447
      6          1           0        1.353145   -0.852958    0.000324
 ---------------------------------------------------------------------

 Alpha  occ. eigenvalues --  -14.74070  -7.07268  -0.93394  -0.58322  -0.56339
 Alpha  occ. eigenvalues --   -0.44253  -0.41374  -0.32896
 Alpha virt. eigenvalues --    0.00055   0.01189   0.03396   0.03683   0.06636
 Alpha virt. eigenvalues --    0.10758   0.12296   0.16229   0.17212   0.18765
 Alpha virt. eigenvalues --    0.20378   0.22761   0.23428   0.28294   0.39477

  Beta  occ. eigenvalues --  -14.74070  -7.07268  -0.93394  -0.58322  -0.56339
  Beta  occ. eigenvalues --   -0.44253  -0.41374  -0.32896
  Beta virt. eigenvalues --    0.00055   0.01189   0.03396   0.03683   0.06636
  Beta virt. eigenvalues --    0.10758   0.12296   0.16229   0.17212   0.18765
  Beta virt. eigenvalues --    0.20378   0.22761   0.23428   0.28294   0.39477

 Mulliken charges and spin densities:
               1          2
     1  B    0.156458   0.000000
     2  N   -0.680769  -0.000000
     3  H   -0.002226   0.000000
     4  H    0.264382  -0.000000
     5  H   -0.002226  -0.000000
     6  H    0.264382   0.000000
 Sum of Mulliken charges =   0.00000  -0.00000

 Dipole moment (field-independent basis, Debye):
    X=              0.7333    Y=             -0.0000    Z=              0.0006  Tot=              0.7333
 Quadrupole moment (field-independent basis, Debye-Ang):
   XX=            -12.6059   YY=            -13.0193   ZZ=            -15.6722
   XY=              0.0000   XZ=              0.0001   YZ=             -0.0008

 Normal termination of Gaussian 16 at Mon Apr 21 17:42:46 2025.
