 Gaussian 16, Revision A.03,
 Gaussian 16:  ES64L-G16RevA.03 25-Dec-2016

 ---------------------------------------
 #p UM062X/6-311+G** force int=superfine
 ---------------------------------------

 -------------------
 Title Card Required
 -------------------
 Symbolic Z-matrix:
 Charge =  0 Multiplicity = 1

                         Standard orientation:
 ---------------------------------------------------------------------
 Center     Atomic      Atomic             Coordinates (Angstroms)
 Number     Number       Type             X           Y           Z
 ---------------------------------------------------------------------
      1          6           0        0.000000    0.868362    0.000000
      2          6           0       -0.000000   -0.868362   -0.000000
      3          1           0        0.955277    1.370380   -0.000000
      4          1           0       -0.955187    1.370404    0.000000
      5          1           0       -0.955277   -1.370380   -0.000000
      6          1           0        0.955187   -1.370404    0.000000
 ---------------------------------------------------------------------

 SCF Done:  E(UM062X) =  -78.4647296680     A.U. after    8 cycles

 The electronic state is 1-AG.
 Alpha  occ. eigenvalues --  -10.59062 -10.59037  -0.79520  -0.69743  -0.53006
 Alpha  occ. eigenvalues --   -0.47437  -0.42056  -0.28222
 Alpha virt. eigenvalues --   -0.03498   0.03370   0.03397   0.05378   0.07610
 Alpha virt. eigenvalues --    0.08667   0.09759   0.11735   0.15656   0.16704
 Alpha virt. eigenvalues --    0.17671   0.20963   0.22848   0.29062   0.40884

  Beta  occ. eigenvalues --  -10.59062 -10.59037  -0.79520  -0.69743  -0.53006
  Beta  occ. eigenvalues --   -0.47437  -0.42056  -0.28222
  Beta virt. eigenvalues --   -0.03498   0.03370   0.03397   0.05378   0.07610
  Beta virt. eigenvalues --    0.08667   0.09759   0.11735   0.15656   0.16704
  Beta virt. eigenvalues --    0.17671   0.20963   0.22848   0.29062   0.40884

 Mulliken charges and spin densities:
               1          2
     1  C   -0.339631  -0.000000
     2  C   -0.339631  -0.000000
     3  H    0.169814  -0.000000
     4  H    0.169817   0.000000
     5  H    0.169814  -0.000000
     6  H    0.169817   0.000000
 Sum of Mulliken charges =   0.00000   0.00000

 Dipole moment (field-independent basis, Debye):
    X=              0.0000    Y=             -0.0000    Z=             -0.0000  Tot=              0.0000
 Quadrupole moment (field-independent basis, Debye-Ang):
   XX=            -12.1975   YY=            -11.7212   ZZ=            -17.4386
   XY=             -0.0001   XZ=              0.0000   YZ=              0.0000

 Normal termination of Gaussian 16 at Tue Nov 19 11:47:29 2024.
