 Gaussian 16, Revision A.03,
 Gaussian 16:  ES64L-G16RevA.03 25-Dec-2016

 --------------------------------------------
 #p opt UM062X/6-311+G** nosymm int=superfine
 --------------------------------------------

 -------------------
 Title Card Required
 -------------------
 Symbolic Z-matrix:
 Charge =  0 Multiplicity = 3

 SCF Done:  E(UM062X) =  -50.5457403760     A.U. after   13 cycles
 SCF Done:  E(UM062X) =  -50.5457879498     A.U. after    8 cycles
 Optimization completed.
    -- Stationary point found.

                          Input orientation:
 ---------------------------------------------------------------------
 Center     Atomic      Atomic             Coordinates (Angstroms)
 Number     Number       Type             X           Y           Z
 ---------------------------------------------------------------------
      1          5           0       -1.253410    0.000000    0.000000
      2          5           0        1.253410    0.000000    0.000000
      3          1           0       -2.433066   -0.000081    0.000000
      4          1           0        2.433066    0.000081   -0.000000
 ---------------------------------------------------------------------

 Alpha  occ. eigenvalues --   -7.15860  -7.15848  -0.58233  -0.56234  -0.37490
 Alpha  occ. eigenvalues --   -0.22194  -0.22194
 Alpha virt. eigenvalues --   -0.07360  -0.07085  -0.07085   0.02565   0.02585
 Alpha virt. eigenvalues --    0.06593   0.06593   0.07675   0.07675   0.07824
 Alpha virt. eigenvalues --    0.13200   0.20926   0.23762   0.37492   0.38328

  Beta  occ. eigenvalues --   -7.15581  -7.15577  -0.55041  -0.54212  -0.35004
  Beta virt. eigenvalues --   -0.06308  -0.06308  -0.02048  -0.01525  -0.01525
  Beta virt. eigenvalues --    0.00624   0.02862   0.05507   0.08147   0.08147
  Beta virt. eigenvalues --    0.10592   0.10861   0.10861   0.21789   0.25228

 Mulliken charges and spin densities:
               1          2
     1  B   -0.122315   1.040207
     2  B   -0.122315   1.040207
     3  H    0.122315  -0.040207
     4  H    0.122315  -0.040207
 Sum of Mulliken charges =  -0.00000   2.00000

 Dipole moment (field-independent basis, Debye):
    X=             -0.0000    Y=             -0.0000    Z=             -0.0000  Tot=              0.0000
 Quadrupole moment (field-independent basis, Debye-Ang):
   XX=             -9.9103   YY=            -16.6891   ZZ=            -16.6891
   XY=              0.0007   XZ=             -0.0000   YZ=             -0.0000

 1\1\GINC-NODE01\FOpt\UM062X\6-311+G(d,p)\B2H2(3)\SZHAO\21-Apr-2025\0\\
 #p opt UM062X/6-311+G** nosymm int=superfine\\Title Card Required\\0,3
 \B,-1.25341047,0.,0.\B,1.25341047,0.,0.\H,-2.4330658538,-0.0000806836,
 0.0000000005\H,2.4330658646,0.0000806831,-0.0000000005\\Version=ES64L-
 G16RevA.03\HF=-50.5457879\S2=2.010248\S2-1=0.\S2A=2.000032\RMSD=9.213e
 -09\RMSF=1.736e-05\Dipole=0.,0.,0.\Quadrupole=3.3599423,-1.679971,-1.6
 799713,0.0004922,0.,0.\PG=C*V [C*(H1B1B1H1)]\\@

 Normal termination of Gaussian 16 at Mon Apr 21 17:25:51 2025.
