 Gaussian 16, Revision A.03,
 Gaussian 16:  ES64L-G16RevA.03 25-Dec-2016

 ---------------------------------------
 #p UM062X/6-311+G** force int=superfine
 ---------------------------------------

 -------------------
 Title Card Required
 -------------------
 Symbolic Z-matrix:
 Charge =  0 Multiplicity = 1

                         Standard orientation:
 ---------------------------------------------------------------------
 Center     Atomic      Atomic             Coordinates (Angstroms)
 Number     Number       Type             X           Y           Z
 ---------------------------------------------------------------------
      1          6           0       -0.011809   -0.114216    1.116583
      2          6           0        0.011809    0.114217   -1.116583
      3          1           0        0.446494   -0.818462   -1.454473
      4          1           0       -0.631603   -0.989470    1.267573
      5          1           0        0.631602    0.989470   -1.267576
      6          1           0       -1.034916    0.246675   -1.361184
      7          1           0       -0.446494    0.818462    1.454472
      8          1           0        1.034915   -0.246676    1.361188
 ---------------------------------------------------------------------

 SCF Done:  E(UM062X) =  -79.7083589728     A.U. after    9 cycles

 The electronic state is 1-A.
 Alpha  occ. eigenvalues --  -10.55251 -10.55244  -0.77994  -0.73490  -0.48265
 Alpha  occ. eigenvalues --   -0.48264  -0.45520  -0.45520  -0.30314
 Alpha virt. eigenvalues --    0.00570   0.02439   0.05586   0.05586   0.08157
 Alpha virt. eigenvalues --    0.08356   0.08356   0.09827   0.13242   0.18164
 Alpha virt. eigenvalues --    0.18164   0.22101   0.22102   0.24359   0.26531

  Beta  occ. eigenvalues --  -10.55251 -10.55244  -0.77994  -0.73490  -0.48265
  Beta  occ. eigenvalues --   -0.48264  -0.45520  -0.45520  -0.30314
  Beta virt. eigenvalues --    0.00570   0.02439   0.05586   0.05586   0.08157
  Beta virt. eigenvalues --    0.08356   0.08356   0.09827   0.13242   0.18164
  Beta virt. eigenvalues --    0.18164   0.22101   0.22102   0.24359   0.26531

 Mulliken charges and spin densities:
               1          2
     1  C   -0.505139  -0.000000
     2  C   -0.505139   0.000000
     3  H    0.168380  -0.000000
     4  H    0.168380   0.000000
     5  H    0.168380  -0.000000
     6  H    0.168380  -0.000000
     7  H    0.168380   0.000000
     8  H    0.168380   0.000000
 Sum of Mulliken charges =  -0.00000  -0.00000

 Dipole moment (field-independent basis, Debye):
    X=             -0.0000    Y=             -0.0000    Z=             -0.0000  Tot=              0.0000
 Quadrupole moment (field-independent basis, Debye-Ang):
   XX=            -14.8329   YY=            -14.8402   ZZ=            -15.5428
   XY=             -0.0008   XZ=              0.0075   YZ=              0.0726

 Normal termination of Gaussian 16 at Tue Nov 19 12:54:24 2024.
