 Gaussian 16, Revision A.03,
 Gaussian 16:  ES64L-G16RevA.03 25-Dec-2016

 --------------------------------------------
 #p opt UM062X/6-311+G** nosymm int=superfine
 --------------------------------------------

 -------------------
 Title Card Required
 -------------------
 Symbolic Z-matrix:
 Charge =  0 Multiplicity = 1

 SCF Done:  E(UM062X) =  -582.429265874     A.U. after   10 cycles
 SCF Done:  E(UM062X) =  -582.430851645     A.U. after    8 cycles
 SCF Done:  E(UM062X) =  -582.431153296     A.U. after    8 cycles
 Optimization completed.
    -- Stationary point found.

                          Input orientation:
 ---------------------------------------------------------------------
 Center     Atomic      Atomic             Coordinates (Angstroms)
 Number     Number       Type             X           Y           Z
 ---------------------------------------------------------------------
      1         14           0       -1.819819    0.000000    0.000000
      2         14           0        1.819819    0.000000    0.000000
      3          1           0        2.250336   -1.411841   -0.000057
      4          1           0       -2.250356   -0.705792    1.222769
      5          1           0        2.250459    0.705965   -1.222633
      6          1           0        2.250362    0.705844    1.222736
      7          1           0       -2.250339    1.411840   -0.000116
      8          1           0       -2.250464   -0.706018   -1.222600
 ---------------------------------------------------------------------

 Alpha  occ. eigenvalues --  -67.01454 -67.01454  -5.56288  -5.56287  -3.87502
 Alpha  occ. eigenvalues --   -3.87502  -3.87315  -3.87315  -3.87315  -3.87315
 Alpha  occ. eigenvalues --   -0.61097  -0.60176  -0.41739  -0.41739  -0.41432
 Alpha  occ. eigenvalues --   -0.41432  -0.24957
 Alpha virt. eigenvalues --   -0.06935   0.02176   0.02914   0.02914   0.03609
 Alpha virt. eigenvalues --    0.05209   0.05359   0.05359   0.07123   0.07123
 Alpha virt. eigenvalues --    0.07340   0.09063   0.09064   0.13937   0.16774

  Beta  occ. eigenvalues --  -67.01454 -67.01454  -5.56288  -5.56287  -3.87502
  Beta  occ. eigenvalues --   -3.87502  -3.87315  -3.87315  -3.87315  -3.87315
  Beta  occ. eigenvalues --   -0.61097  -0.60176  -0.41739  -0.41739  -0.41432
  Beta  occ. eigenvalues --   -0.41432  -0.24957
  Beta virt. eigenvalues --   -0.06935   0.02176   0.02914   0.02914   0.03609
  Beta virt. eigenvalues --    0.05209   0.05359   0.05359   0.07123   0.07123
  Beta virt. eigenvalues --    0.07340   0.09063   0.09064   0.13937   0.16774

 Mulliken charges and spin densities:
               1          2
     1  Si   0.281421  -0.000000
     2  Si   0.281421   0.000000
     3  H   -0.093807  -0.000000
     4  H   -0.093807  -0.000000
     5  H   -0.093807  -0.000000
     6  H   -0.093807  -0.000000
     7  H   -0.093807   0.000000
     8  H   -0.093807  -0.000000
 Sum of Mulliken charges =  -0.00000  -0.00000

 Dipole moment (field-independent basis, Debye):
    X=              0.0000    Y=             -0.0000    Z=              0.0000  Tot=              0.0000
 Quadrupole moment (field-independent basis, Debye-Ang):
   XX=            -29.5554   YY=            -31.9295   ZZ=            -31.9295
   XY=              0.0001   XZ=              0.0000   YZ=              0.0000

 Normal termination of Gaussian 16 at Mon Apr 21 20:14:37 2025.
