 Gaussian 16, Revision A.03,
 Gaussian 16:  ES64L-G16RevA.03 25-Dec-2016

 --------------------------------------------
 #p opt UM062X/6-311+G** nosymm int=superfine
 --------------------------------------------

 -------------------
 Title Card Required
 -------------------
 Symbolic Z-matrix:
 Charge =  0 Multiplicity = 3

 SCF Done:  E(UM062X) =  -50.4829100350     A.U. after   14 cycles
 SCF Done:  E(UM062X) =  -50.4838180350     A.U. after   10 cycles
 SCF Done:  E(UM062X) =  -50.4838249447     A.U. after   15 cycles
 Optimization completed.
    -- Stationary point found.

                          Input orientation:
 ---------------------------------------------------------------------
 Center     Atomic      Atomic             Coordinates (Angstroms)
 Number     Number       Type             X           Y           Z
 ---------------------------------------------------------------------
      1          5           0       -1.878410    0.000000    0.000000
      2          5           0        1.878410    0.000000    0.000000
      3          1           0       -3.083721   -0.000082    0.000000
      4          1           0        3.083721    0.000082   -0.000000
 ---------------------------------------------------------------------

 Alpha  occ. eigenvalues --   -7.14369  -7.14368  -0.56876  -0.56653  -0.33693
 Alpha  occ. eigenvalues --   -0.30342  -0.17952
 Alpha virt. eigenvalues --   -0.09849  -0.06464  -0.05319   0.02675   0.02847
 Alpha virt. eigenvalues --    0.05793   0.07074   0.07128   0.08105   0.08128
 Alpha virt. eigenvalues --    0.11601   0.17060   0.22226   0.33515   0.39336

  Beta  occ. eigenvalues --   -7.13459  -7.13458  -0.53567  -0.53402  -0.24220
  Beta virt. eigenvalues --   -0.10885  -0.04599  -0.04091  -0.03000  -0.02485
  Beta virt. eigenvalues --    0.01834   0.02454   0.07028   0.07299   0.07767
  Beta virt. eigenvalues --    0.08094   0.08967   0.09580   0.17690   0.23566

 Mulliken charges and spin densities:
               1          2
     1  B   -0.064027   0.925075
     2  B   -0.064027   0.925075
     3  H    0.064027   0.074925
     4  H    0.064027   0.074925
 Sum of Mulliken charges =  -0.00000   2.00000

 Dipole moment (field-independent basis, Debye):
    X=             -0.0000    Y=             -0.0000    Z=             -0.0000  Tot=              0.0000
 Quadrupole moment (field-independent basis, Debye-Ang):
   XX=             -8.1340   YY=            -13.6684   ZZ=            -17.6885
   XY=              0.0000   XZ=             -0.0000   YZ=             -0.0088

 1\1\GINC-NODE03\FOpt\UM062X\6-311+G(d,p)\B2H2(3)\SZHAO\21-Apr-2025\0\\
 #p opt UM062X/6-311+G** nosymm int=superfine\\Title Card Required\\0,3
 \B,-1.87841047,0.,0.\B,1.87841047,0.,0.\H,-3.0837212065,-0.0000822312,
 0.0000001558\H,3.0837212631,0.000082226,-0.0000002051\\Version=ES64L-G
 16RevA.03\HF=-50.4838249\S2=2.019705\S2-1=0.\S2A=2.000017\RMSD=6.092e-
 09\RMSF=4.367e-07\Dipole=0.,0.,0.\Quadrupole=3.7394205,-0.3753102,-3.3
 641103,0.0000103,0.,-0.0065654\PG=C*V [C*(H1B1B1H1)]\\@

 Normal termination of Gaussian 16 at Mon Apr 21 17:24:42 2025.
