 Gaussian 16, Revision A.03,
 Gaussian 16:  ES64L-G16RevA.03 25-Dec-2016

 --------------------------------------------
 #p opt UM062X/6-311+G** nosymm int=superfine
 --------------------------------------------

 -------------------
 Title Card Required
 -------------------
 Symbolic Z-matrix:
 Charge =  0 Multiplicity = 1

 SCF Done:  E(UM062X) =  -92.8755561293     A.U. after   14 cycles
 SCF Done:  E(UM062X) =  -92.8774534494     A.U. after   11 cycles
 SCF Done:  E(UM062X) =  -92.8774639255     A.U. after    8 cycles
 Optimization completed.
    -- Stationary point found.

                          Input orientation:
 ---------------------------------------------------------------------
 Center     Atomic      Atomic             Coordinates (Angstroms)
 Number     Number       Type             X           Y           Z
 ---------------------------------------------------------------------
      1          6           0       -1.322395    0.000000    0.000000
      2          7           0        1.322395    0.000000    0.000000
      3          1           0       -2.446860    0.000000    0.000000
 ---------------------------------------------------------------------

 Alpha  occ. eigenvalues --  -14.84757 -10.75137  -0.79735  -0.77900  -0.44265
 Alpha  occ. eigenvalues --   -0.28820  -0.28820
 Alpha virt. eigenvalues --   -0.16091  -0.16091  -0.08875   0.00672   0.07075
 Alpha virt. eigenvalues --    0.07075   0.07169   0.13194   0.17067   0.17067
 Alpha virt. eigenvalues --    0.17775   0.25678   0.43858   0.52876   0.52876

  Beta  occ. eigenvalues --  -14.84757 -10.75137  -0.79735  -0.77900  -0.44265
  Beta  occ. eigenvalues --   -0.28820  -0.28820
  Beta virt. eigenvalues --   -0.16091  -0.16091  -0.08875   0.00672   0.07075
  Beta virt. eigenvalues --    0.07075   0.07169   0.13194   0.17067   0.17067
  Beta virt. eigenvalues --    0.17775   0.25678   0.43858   0.52876   0.52876

 Mulliken charges and spin densities:
               1          2
     1  C   -0.024599  -0.000000
     2  N   -0.164484   0.000000
     3  H    0.189082   0.000000
 Sum of Mulliken charges =  -0.00000  -0.00000

 Dipole moment (field-independent basis, Debye):
    X=             -4.3976    Y=             -0.0000    Z=              0.0000  Tot=              4.3976
 Quadrupole moment (field-independent basis, Debye-Ang):
   XX=             -5.7678   YY=            -14.2887   ZZ=            -14.2887
   XY=              0.0000   XZ=             -0.0000   YZ=              0.0000

 Normal termination of Gaussian 16 at Mon Apr 21 18:36:09 2025.
