 Gaussian 16, Revision A.03,
 Gaussian 16:  ES64L-G16RevA.03 25-Dec-2016

 --------------------------------------------
 #p opt UM062X/6-311+G** nosymm int=superfine
 --------------------------------------------

 -------------------
 Title Card Required
 -------------------
 Symbolic Z-matrix:
 Charge =  1 Multiplicity = 2

 SCF Done:  E(UM062X) =  -92.5771643964     A.U. after   31 cycles
 SCF Done:  E(UM062X) =  -92.5774479346     A.U. after   26 cycles
 Optimization completed.
    -- Stationary point found.

                          Input orientation:
 ---------------------------------------------------------------------
 Center     Atomic      Atomic             Coordinates (Angstroms)
 Number     Number       Type             X           Y           Z
 ---------------------------------------------------------------------
      1          6           0       -1.676540    0.000000    0.000000
      2          7           0        1.676540    0.000000    0.000000
      3          1           0       -2.792185    0.000000    0.000000
 ---------------------------------------------------------------------

 Alpha  occ. eigenvalues --  -15.23802 -10.97443  -1.18949  -0.98631  -0.73881
 Alpha  occ. eigenvalues --   -0.71144  -0.65571
 Alpha virt. eigenvalues --   -0.44073  -0.34198  -0.32520  -0.13763  -0.09857
 Alpha virt. eigenvalues --   -0.08047  -0.07362  -0.04554  -0.02559  -0.02007
 Alpha virt. eigenvalues --   -0.01118   0.07651   0.25373   0.34893   0.35072

  Beta  occ. eigenvalues --  -15.21091 -10.97877  -1.06552  -1.01064  -0.67033
  Beta  occ. eigenvalues --   -0.51901
  Beta virt. eigenvalues --   -0.43094  -0.40250  -0.36358  -0.35443  -0.13561
  Beta virt. eigenvalues --   -0.10519  -0.08526  -0.08025  -0.04938  -0.02708
  Beta virt. eigenvalues --   -0.02131  -0.02078   0.05835   0.25918   0.34385

 Mulliken charges and spin densities:
               1          2
     1  C    0.245395  -0.527624
     2  N    0.498050   1.511069
     3  H    0.256556   0.016555
 Sum of Mulliken charges =   1.00000   1.00000

 Dipole moment (field-independent basis, Debye):
    X=             -2.3673    Y=              0.0000    Z=             -0.0000  Tot=              2.3673
 Quadrupole moment (field-independent basis, Debye-Ang):
   XX=             12.6398   YY=            -11.2663   ZZ=             -9.4639
   XY=              0.0000   XZ=              0.0000   YZ=             -0.2100

 Normal termination of Gaussian 16 at Mon Apr 21 18:37:20 2025.
