 Gaussian 16, Revision A.03,
 Gaussian 16:  ES64L-G16RevA.03 25-Dec-2016

 --------------------------------------------
 #p opt UM062X/6-311+G** nosymm int=superfine
 --------------------------------------------

 -------------------
 Title Card Required
 -------------------
 Symbolic Z-matrix:
 Charge = -1 Multiplicity = 2

 SCF Done:  E(UM062X) =  -51.9227253765     A.U. after   11 cycles
 SCF Done:  E(UM062X) =  -51.9258572861     A.U. after   10 cycles
 SCF Done:  E(UM062X) =  -51.9271351055     A.U. after    9 cycles
 SCF Done:  E(UM062X) =  -51.9271455088     A.U. after   10 cycles
 SCF Done:  E(UM062X) =  -51.9271195504     A.U. after   12 cycles
 SCF Done:  E(UM062X) =  -51.9271396375     A.U. after   12 cycles
 SCF Done:  E(UM062X) =  -51.9271451908     A.U. after   10 cycles
 Optimization completed.
    -- Stationary point found.

                          Input orientation:
 ---------------------------------------------------------------------
 Center     Atomic      Atomic             Coordinates (Angstroms)
 Number     Number       Type             X           Y           Z
 ---------------------------------------------------------------------
      1          5           0       -1.322274    0.000000    0.000000
      2          5           0        1.322274    0.000000    0.000000
      3          1           0       -1.880481   -1.057611    0.001717
      4          1           0        1.880481    1.057612    0.001209
      5          1           0       -1.880481    1.057611    0.001264
      6          1           0        1.880481   -1.057611    0.001772
 ---------------------------------------------------------------------

 Alpha  occ. eigenvalues --   -6.86762  -6.86757  -0.37280  -0.35199  -0.22313
 Alpha  occ. eigenvalues --   -0.21197  -0.05380   0.01282
 Alpha virt. eigenvalues --    0.14224   0.15473   0.16697   0.19103   0.19236
 Alpha virt. eigenvalues --    0.22471   0.22597   0.24306   0.24404   0.26100
 Alpha virt. eigenvalues --    0.32921   0.34752   0.35698   0.42166   0.49894

  Beta  occ. eigenvalues --   -6.86732  -6.86728  -0.35639  -0.33944  -0.22167
  Beta  occ. eigenvalues --   -0.21154  -0.04217
  Beta virt. eigenvalues --    0.10859   0.13810   0.14427   0.14536   0.16242
  Beta virt. eigenvalues --    0.17763   0.19041   0.19717   0.22167   0.25539
  Beta virt. eigenvalues --    0.26613   0.31968   0.34511   0.34857   0.41952

 Mulliken charges and spin densities:
               1          2
     1  B   -0.408633   0.545310
     2  B   -0.408633   0.545310
     3  H   -0.045683  -0.022655
     4  H   -0.045683  -0.022655
     5  H   -0.045683  -0.022655
     6  H   -0.045683  -0.022655
 Sum of Mulliken charges =  -1.00000   1.00000

 Dipole moment (field-independent basis, Debye):
    X=              0.0000    Y=              0.0000    Z=              0.0017  Tot=              0.0017
 Quadrupole moment (field-independent basis, Debye-Ang):
   XX=            -31.4733   YY=            -23.4350   ZZ=            -25.3454
   XY=             -0.0000   XZ=             -0.0000   YZ=             -0.0005

 Normal termination of Gaussian 16 at Mon Apr 21 17:18:35 2025.
