 Gaussian 16, Revision A.03,
 Gaussian 16:  ES64L-G16RevA.03 25-Dec-2016

 --------------------------------------------
 #p opt UM062X/6-311+G** nosymm int=superfine
 --------------------------------------------

 -------------------
 Title Card Required
 -------------------
 Symbolic Z-matrix:
 Charge =  0 Multiplicity = 1

 SCF Done:  E(UM062X) =  -79.0171746122     A.U. after   10 cycles
 SCF Done:  E(UM062X) =  -79.0866688554     A.U. after    9 cycles
 SCF Done:  E(UM062X) =  -79.1478718709     A.U. after    9 cycles
 SCF Done:  E(UM062X) =  -79.1528349635     A.U. after    8 cycles
 SCF Done:  E(UM062X) =  -79.1528979023     A.U. after    7 cycles
 Optimization completed.
    -- Stationary point found.

                          Input orientation:
 ---------------------------------------------------------------------
 Center     Atomic      Atomic             Coordinates (Angstroms)
 Number     Number       Type             X           Y           Z
 ---------------------------------------------------------------------
      1          6           0       -0.458128    0.000000    0.000000
      2          6           0        0.458175    0.000000    0.000000
      3          1           0        1.024101   -0.841381    0.486865
      4          1           0       -1.024033   -0.842390   -0.485203
      5          1           0        1.024079    0.842391    0.485198
      6          1           0        1.024085   -0.000901   -0.972131
      7          1           0       -1.024054    0.841378   -0.486871
      8          1           0       -1.024038    0.000898    0.972129
 ---------------------------------------------------------------------

 Alpha  occ. eigenvalues --  -10.51730 -10.49007  -1.00473  -0.66406  -0.60291
 Alpha  occ. eigenvalues --   -0.60290  -0.55713  -0.30755  -0.30753
 Alpha virt. eigenvalues --    0.01800   0.03618   0.03618   0.04053   0.08509
 Alpha virt. eigenvalues --    0.09089   0.09089   0.14248   0.16085   0.16086
 Alpha virt. eigenvalues --    0.21286   0.21287   0.23472   0.27182   0.41759

  Beta  occ. eigenvalues --  -10.51730 -10.49007  -1.00473  -0.66406  -0.60291
  Beta  occ. eigenvalues --   -0.60290  -0.55713  -0.30755  -0.30753
  Beta virt. eigenvalues --    0.01800   0.03618   0.03618   0.04053   0.08509
  Beta virt. eigenvalues --    0.09089   0.09089   0.14248   0.16085   0.16086
  Beta virt. eigenvalues --    0.21286   0.21287   0.23472   0.27182   0.41759

 Mulliken charges and spin densities:
               1          2
     1  C   -0.398444  -0.000000
     2  C   -0.398444   0.000000
     3  H    0.132820  -0.000000
     4  H    0.132812   0.000000
     5  H    0.132812  -0.000000
     6  H    0.132812  -0.000000
     7  H    0.132820   0.000000
     8  H    0.132812   0.000000
 Sum of Mulliken charges =  -0.00000  -0.00000

 Dipole moment (field-independent basis, Debye):
    X=              0.0000    Y=             -0.0000    Z=             -0.0000  Tot=              0.0000
 Quadrupole moment (field-independent basis, Debye-Ang):
   XX=            -15.7732   YY=            -14.9794   ZZ=            -14.9796
   XY=             -0.0001   XZ=              0.0000   YZ=             -0.0002

 Normal termination of Gaussian 16 at Tue Nov 19 11:32:36 2024.
