 Gaussian 16, Revision A.03,
 Gaussian 16:  ES64L-G16RevA.03 25-Dec-2016

 --------------------------------------------
 #p opt UM062X/6-311+G** nosymm int=superfine
 --------------------------------------------

 -------------------
 Title Card Required
 -------------------
 Symbolic Z-matrix:
 Charge =  0 Multiplicity = 1

 SCF Done:  E(UM062X) =  -76.0321637744     A.U. after   12 cycles
 SCF Done:  E(UM062X) =  -76.1410453995     A.U. after    9 cycles
 SCF Done:  E(UM062X) =  -76.2795391335     A.U. after    9 cycles
 SCF Done:  E(UM062X) =  -76.3449621488     A.U. after   10 cycles
 SCF Done:  E(UM062X) =  -76.3463300283     A.U. after    9 cycles
 SCF Done:  E(UM062X) =  -76.3465240072     A.U. after    8 cycles
 SCF Done:  E(UM062X) =  -76.3465345215     A.U. after    7 cycles
 Optimization completed.
    -- Stationary point found.

                          Input orientation:
 ---------------------------------------------------------------------
 Center     Atomic      Atomic             Coordinates (Angstroms)
 Number     Number       Type             X           Y           Z
 ---------------------------------------------------------------------
      1          6           0       -0.331436    0.000000    0.000000
      2          6           0        0.331436    0.000000    0.000000
      3          1           0       -1.137740   -0.800819    0.000000
      4          1           0       -1.137754    0.800752    0.000000
      5          1           0        1.137740    0.800819    0.000000
      6          1           0        1.137754   -0.800752    0.000000
 ---------------------------------------------------------------------

 Alpha  occ. eigenvalues --  -10.75076 -10.49388  -0.88898  -0.68099  -0.60079
 Alpha  occ. eigenvalues --   -0.59788  -0.48715  -0.25253
 Alpha virt. eigenvalues --    0.01727   0.02588   0.04025   0.05205   0.08178
 Alpha virt. eigenvalues --    0.09726   0.09807   0.12962   0.15824   0.18813
 Alpha virt. eigenvalues --    0.24804   0.27407   0.37789   0.41881   0.44584

  Beta  occ. eigenvalues --  -10.75076 -10.49388  -0.88898  -0.68099  -0.60079
  Beta  occ. eigenvalues --   -0.59788  -0.48715  -0.25253
  Beta virt. eigenvalues --    0.01727   0.02588   0.04025   0.05205   0.08178
  Beta virt. eigenvalues --    0.09726   0.09807   0.12962   0.15824   0.18813
  Beta virt. eigenvalues --    0.24804   0.27407   0.37789   0.41881   0.44584

 Mulliken charges and spin densities:
               1          2
     1  C   -0.248195   0.000000
     2  C   -0.248195  -0.000000
     3  H    0.124088   0.000000
     4  H    0.124106  -0.000000
     5  H    0.124088  -0.000000
     6  H    0.124106   0.000000
 Sum of Mulliken charges =  -0.00000   0.00000

 Dipole moment (field-independent basis, Debye):
    X=              0.0000    Y=              0.0000    Z=              0.0000  Tot=              0.0000
 Quadrupole moment (field-independent basis, Debye-Ang):
   XX=            -12.9452   YY=            -12.9732   ZZ=            -12.7129
   XY=             -0.0003   XZ=              0.0000   YZ=              0.0000

 Normal termination of Gaussian 16 at Tue Nov 19 10:08:25 2024.
