 Gaussian 16, Revision A.03,
 Gaussian 16:  ES64L-G16RevA.03 25-Dec-2016

 --------------------------------------------
 #p opt UM062X/6-311+G** nosymm int=superfine
 --------------------------------------------

 -------------------
 Title Card Required
 -------------------
 Symbolic Z-matrix:
 Charge =  0 Multiplicity = 1

 SCF Done:  E(UM062X) =  -379.674720883     A.U. after   13 cycles
 SCF Done:  E(UM062X) =  -379.675414557     A.U. after   10 cycles
 SCF Done:  E(UM062X) =  -379.675415221     A.U. after    8 cycles
 Optimization completed.
    -- Stationary point found.

                          Input orientation:
 ---------------------------------------------------------------------
 Center     Atomic      Atomic             Coordinates (Angstroms)
 Number     Number       Type             X           Y           Z
 ---------------------------------------------------------------------
      1          6           0       -1.290377    0.000000    0.000000
      2         15           0        1.290377    0.000000    0.000000
      3          1           0       -2.397329    0.000000   -0.000000
 ---------------------------------------------------------------------

 Alpha  occ. eigenvalues --  -78.10562 -10.69680  -6.92082  -5.03719  -5.03191
 Alpha  occ. eigenvalues --   -5.03191  -0.74855  -0.62956  -0.41651  -0.26691
 Alpha  occ. eigenvalues --   -0.26691
 Alpha virt. eigenvalues --   -0.12358  -0.12358  -0.09250   0.01558   0.03992
 Alpha virt. eigenvalues --    0.05644   0.05644   0.07327   0.09644   0.09644
 Alpha virt. eigenvalues --    0.15262   0.19935   0.30394   0.32742   0.32742

  Beta  occ. eigenvalues --  -78.10562 -10.69680  -6.92082  -5.03719  -5.03191
  Beta  occ. eigenvalues --   -5.03191  -0.74855  -0.62956  -0.41651  -0.26691
  Beta  occ. eigenvalues --   -0.26691
  Beta virt. eigenvalues --   -0.12358  -0.12358  -0.09250   0.01558   0.03992
  Beta virt. eigenvalues --    0.05644   0.05644   0.07327   0.09644   0.09644
  Beta virt. eigenvalues --    0.15262   0.19935   0.30394   0.32742   0.32742

 Mulliken charges and spin densities:
               1          2
     1  C   -0.317880   0.000000
     2  P    0.104189  -0.000000
     3  H    0.213692  -0.000000
 Sum of Mulliken charges =  -0.00000  -0.00000

 Dipole moment (field-independent basis, Debye):
    X=             -0.9528    Y=              0.0000    Z=             -0.0000  Tot=              0.9528
 Quadrupole moment (field-independent basis, Debye-Ang):
   XX=            -11.8044   YY=            -23.3709   ZZ=            -23.3709
   XY=             -0.0000   XZ=              0.0000   YZ=             -0.0000

 Normal termination of Gaussian 16 at Mon Apr 21 19:29:56 2025.
