 Gaussian 16, Revision A.03,
 Gaussian 16:  ES64L-G16RevA.03 25-Dec-2016

 --------------------------------------------
 #p opt UM062X/6-311+G** nosymm int=superfine
 --------------------------------------------

 -------------------
 Title Card Required
 -------------------
 Symbolic Z-matrix:
 Charge = -1 Multiplicity = 2

 SCF Done:  E(UM062X) =  -53.1830151313     A.U. after   12 cycles
 SCF Done:  E(UM062X) =  -53.2180672090     A.U. after   10 cycles
 SCF Done:  E(UM062X) =  -53.2312920077     A.U. after   11 cycles
 SCF Done:  E(UM062X) =  -53.2344560883     A.U. after   10 cycles
 SCF Done:  E(UM062X) =  -53.2352217225     A.U. after    9 cycles
 SCF Done:  E(UM062X) =  -53.2353236298     A.U. after    9 cycles
 SCF Done:  E(UM062X) =  -53.2353442218     A.U. after    9 cycles
 SCF Done:  E(UM062X) =  -53.2353453934     A.U. after    8 cycles
 Optimization completed.
    -- Stationary point found.

                          Input orientation:
 ---------------------------------------------------------------------
 Center     Atomic      Atomic             Coordinates (Angstroms)
 Number     Number       Type             X           Y           Z
 ---------------------------------------------------------------------
      1          5           0       -1.090633   -0.000114    0.000036
      2          5           0        1.090710    0.000114   -0.000049
      3          1           0        1.298299   -1.028543    0.595190
      4          1           0       -1.297754   -1.030017   -0.593208
      5          1           0        1.298018    1.030008    0.593151
      6          1           0        1.297782   -0.001036   -1.188601
      7          1           0       -1.298231    1.028538   -0.595209
      8          1           0       -1.297882    0.001000    1.188560
 ---------------------------------------------------------------------

 Alpha  occ. eigenvalues --   -6.80309  -6.80297  -0.40658  -0.33624  -0.20396
 Alpha  occ. eigenvalues --   -0.20395  -0.16182  -0.16182  -0.04387
 Alpha virt. eigenvalues --    0.15992   0.17196   0.17669   0.17669   0.19331
 Alpha virt. eigenvalues --    0.19331   0.20439   0.23595   0.31604   0.33242
 Alpha virt. eigenvalues --    0.33243   0.37977   0.37978   0.38821   0.42379

  Beta  occ. eigenvalues --   -6.80203  -6.80202  -0.37908  -0.31794  -0.19719
  Beta  occ. eigenvalues --   -0.19718  -0.15777  -0.15777
  Beta virt. eigenvalues --    0.12793   0.15244   0.17665   0.17665   0.18049
  Beta virt. eigenvalues --    0.18882   0.18882   0.21497   0.24449   0.33310
  Beta virt. eigenvalues --    0.33311   0.35515   0.38345   0.38346   0.39187

 Mulliken charges and spin densities:
               1          2
     1  B   -0.262810   0.568642
     2  B   -0.262810   0.568642
     3  H   -0.079074  -0.022890
     4  H   -0.079057  -0.022879
     5  H   -0.079070  -0.022882
     6  H   -0.079046  -0.022869
     7  H   -0.079074  -0.022890
     8  H   -0.079058  -0.022872
 Sum of Mulliken charges =  -1.00000   1.00000

 Dipole moment (field-independent basis, Debye):
    X=             -0.0002    Y=              0.0000    Z=              0.0000  Tot=              0.0002
 Quadrupole moment (field-independent basis, Debye-Ang):
   XX=            -30.9640   YY=            -23.9395   ZZ=            -23.9393
   XY=             -0.0007   XZ=              0.0001   YZ=              0.0000

 Normal termination of Gaussian 16 at Tue Apr 15 16:43:37 2025.
