 Gaussian 16, Revision A.03,
 Gaussian 16:  ES64L-G16RevA.03 25-Dec-2016

 ---------------------------------------------------
 #p UM062X/6-311+G** force int=superfine pop=saveNBO
 ---------------------------------------------------

 -------------------
 Title Card Required
 -------------------
 Symbolic Z-matrix:
 Charge =  0 Multiplicity = 1

                         Standard orientation:
 ---------------------------------------------------------------------
 Center     Atomic      Atomic             Coordinates (Angstroms)
 Number     Number       Type             X           Y           Z
 ---------------------------------------------------------------------
      1         16           0        0.000000    0.000000    2.175200
      2         16           0        0.000000    0.000000   -2.175200
 ---------------------------------------------------------------------

 SCF Done:  E(UM062X) =  -796.016844994     A.U. after    9 cycles

 Unable to determine electronic state:  partially filled degenerate orbitals.
 Alpha  occ. eigenvalues --  -89.98545 -89.98545  -8.34375  -8.34375  -6.26401
 Alpha  occ. eigenvalues --   -6.26401  -6.26384  -6.26383  -6.25562  -6.25562
 Alpha  occ. eigenvalues --   -0.77912  -0.77457  -0.34742  -0.34485  -0.31614
 Alpha  occ. eigenvalues --   -0.30713
 Alpha virt. eigenvalues --   -0.24065  -0.23102   0.02887   0.03921   0.04643
 Alpha virt. eigenvalues --    0.05057   0.06974   0.07000   0.07416   0.11926
 Alpha virt. eigenvalues --    0.30217   0.32892   0.33724   0.35353   0.36211

  Beta  occ. eigenvalues --  -89.98545 -89.98545  -8.34375  -8.34375  -6.26401
  Beta  occ. eigenvalues --   -6.26401  -6.26384  -6.26383  -6.25562  -6.25562
  Beta  occ. eigenvalues --   -0.77912  -0.77457  -0.34742  -0.34485  -0.31614
  Beta  occ. eigenvalues --   -0.30713
  Beta virt. eigenvalues --   -0.24065  -0.23102   0.02887   0.03921   0.04643
  Beta virt. eigenvalues --    0.05057   0.06974   0.07000   0.07416   0.11926
  Beta virt. eigenvalues --    0.30217   0.32892   0.33724   0.35353   0.36211

 Mulliken charges and spin densities:
               1          2
     1  S    0.000000  -0.000000
     2  S    0.000000  -0.000000
 Sum of Mulliken charges =   0.00000  -0.00000

 Dipole moment (field-independent basis, Debye):
    X=              0.0000    Y=              0.0000    Z=             -0.0000  Tot=              0.0000
 Quadrupole moment (field-independent basis, Debye-Ang):
   XX=            -25.3509   YY=            -30.4092   ZZ=            -22.8876
   XY=              0.0000   XZ=             -0.0000   YZ=              0.0000

 Summary of Natural Population Analysis:

                                       Natural Population
                Natural  -----------------------------------------------
    Atom  No    Charge         Core      Valence    Rydberg      Total
 -----------------------------------------------------------------------
      S    1    0.00000      5.00000     2.99943    0.00057     8.00000
      S    2    0.00000      5.00000     2.99943    0.00057     8.00000
 =======================================================================
   * Total *    0.00000      9.99999     5.99886    0.00114    16.00000

 Normal termination of Gaussian 16 at Mon Apr 21 20:08:43 2025.
