 Gaussian 16, Revision A.03,
 Gaussian 16:  ES64L-G16RevA.03 25-Dec-2016

 ---------------------------------------------------
 #p UM062X/6-311+G** force int=superfine pop=saveNBO
 ---------------------------------------------------

 -------------------
 Title Card Required
 -------------------
 Symbolic Z-matrix:
 Charge =  0 Multiplicity = 1

                         Standard orientation:
 ---------------------------------------------------------------------
 Center     Atomic      Atomic             Coordinates (Angstroms)
 Number     Number       Type             X           Y           Z
 ---------------------------------------------------------------------
      1          8           0        0.000000    0.000000    1.843562
      2          8           0        0.000000    0.000000   -1.843562
 ---------------------------------------------------------------------

 SCF Done:  E(UM062X) =  -149.773447774     A.U. after   10 cycles

 Unable to determine electronic state:  partially filled degenerate orbitals.
 Alpha  occ. eigenvalues --  -19.82312 -19.82311  -1.10120  -1.09830  -0.48440
 Alpha  occ. eigenvalues --   -0.48327  -0.39743  -0.39176
 Alpha virt. eigenvalues --   -0.31412  -0.30743   0.09058   0.12448   0.14458
 Alpha virt. eigenvalues --    0.14527   0.17301   0.18894   0.19119   0.27925
 Alpha virt. eigenvalues --    0.99759   1.00418   1.01036   1.01415   1.02730

  Beta  occ. eigenvalues --  -19.82312 -19.82311  -1.10120  -1.09830  -0.48440
  Beta  occ. eigenvalues --   -0.48327  -0.39743  -0.39176
  Beta virt. eigenvalues --   -0.31412  -0.30743   0.09058   0.12448   0.14458
  Beta virt. eigenvalues --    0.14527   0.17301   0.18894   0.19119   0.27925
  Beta virt. eigenvalues --    0.99759   1.00418   1.01036   1.01415   1.02730

 Mulliken charges and spin densities:
               1          2
     1  O    0.000000  -0.000000
     2  O    0.000000  -0.000000
 Sum of Mulliken charges =   0.00000  -0.00000

 Dipole moment (field-independent basis, Debye):
    X=              0.0000    Y=             -0.0000    Z=              0.0000  Tot=              0.0000
 Quadrupole moment (field-independent basis, Debye-Ang):
   XX=            -12.0472   YY=            -10.1639   ZZ=             -9.3755
   XY=             -0.0000   XZ=             -0.0000   YZ=              0.0000

 Summary of Natural Population Analysis:

                                       Natural Population
                Natural  -----------------------------------------------
    Atom  No    Charge         Core      Valence    Rydberg      Total
 -----------------------------------------------------------------------
      O    1   -0.00000      1.00000     2.99891    0.00109     4.00000
      O    2   -0.00000      1.00000     2.99891    0.00109     4.00000
 =======================================================================
   * Total *   -0.00000      2.00000     5.99781    0.00219     8.00000

 Normal termination of Gaussian 16 at Mon Apr 21 19:53:48 2025.
