 Gaussian 16, Revision A.03,
 Gaussian 16:  ES64L-G16RevA.03 25-Dec-2016

 ---------------------------------------------------------------------
 #p opt UM062X/6-311+G** nosymm int=superfine SCF=(Tight,MaxCycle=200)
 ---------------------------------------------------------------------

 -------------------
 Title Card Required
 -------------------
 Symbolic Z-matrix:
 Charge =  1 Multiplicity = 2

 SCF Done:  E(UM062X) =  -1613.64322718     A.U. after   42 cycles
 SCF Done:  E(UM062X) =  -1614.13148320     A.U. after   30 cycles
 SCF Done:  E(UM062X) =  -1614.76960130     A.U. after   28 cycles
 SCF Done:  E(UM062X) =  -1615.22339728     A.U. after   27 cycles
 SCF Done:  E(UM062X) =  -1615.27785725     A.U. after   27 cycles
 SCF Done:  E(UM062X) =  -1615.40320011     A.U. after   26 cycles
 SCF Done:  E(UM062X) =  -1615.51664964     A.U. after   26 cycles
 SCF Done:  E(UM062X) =  -1615.53888555     A.U. after   25 cycles
 SCF Done:  E(UM062X) =  -1615.54080868     A.U. after   22 cycles
 SCF Done:  E(UM062X) =  -1615.54166582     A.U. after   26 cycles
 SCF Done:  E(UM062X) =  -1615.55213241     A.U. after   20 cycles
 SCF Done:  E(UM062X) =  -1615.55221925     A.U. after   20 cycles
 SCF Done:  E(UM062X) =  -1615.55229633     A.U. after   20 cycles
 SCF Done:  E(UM062X) =  -1615.55234607     A.U. after   18 cycles
 SCF Done:  E(UM062X) =  -1615.55235603     A.U. after   18 cycles
 SCF Done:  E(UM062X) =  -1615.55236701     A.U. after   17 cycles
 SCF Done:  E(UM062X) =  -1615.55237032     A.U. after   13 cycles
 SCF Done:  E(UM062X) =  -1615.55237179     A.U. after   16 cycles
 SCF Done:  E(UM062X) =  -1615.55237197     A.U. after   12 cycles
 SCF Done:  E(UM062X) =  -1615.55237208     A.U. after   12 cycles
 Optimization completed.
    -- Stationary point found.

                          Input orientation:
 ---------------------------------------------------------------------
 Center     Atomic      Atomic             Coordinates (Angstroms)
 Number     Number       Type             X           Y           Z
 ---------------------------------------------------------------------
      1          6           0       -0.870116    0.000000    0.000000
      2          6           0        0.870116   -0.000000    0.000000
      3          6           0        0.000006   -2.197718    0.002340
      4          6           0       -0.000005   -3.557270    0.003734
      5          6           0       -1.109366   -4.325891    0.388802
      6          6           0       -1.130077   -1.467668    0.375064
      7          6           0        0.642609   -5.724270   -0.217990
      8          1           0        1.229959   -6.607721   -0.424327
      9          6           0       -1.385100    0.962538    1.059185
     10          6           0       -0.642752   -5.723801    0.229606
     11          1           0       -1.230155   -6.606818    0.437639
     12          6           0        1.109299   -4.326697   -0.379895
     13          6           0        1.130073   -1.468453   -0.371978
     14          6           0        1.596375    2.360671   -0.903044
     15          6           0       -1.369247    0.152200   -1.460459
     16          6           0       -1.883333    3.158332    2.042029
     17          1           0       -2.038871    4.220667    1.892134
     18          6           0       -2.233428   -3.622123    0.782803
     19          1           0       -3.137701   -4.130560    1.098408
     20          6           0       -1.481907    1.381653   -2.167295
     21          6           0        2.244428   -2.184486   -0.759503
     22          1           0        3.163828   -1.678322   -1.034587
     23          6           0        1.369266    0.155324    1.460125
     24          6           0        1.481798    1.386287    2.164358
     25          6           0        2.233338   -3.623759   -0.775432
     26          1           0        3.137553   -4.132857   -1.090132
     27          6           0       -1.596491    2.362555    0.898038
     28          6           0       -1.493689    0.458619    2.359539
     29          1           0       -1.311832   -0.591180    2.537540
     30          6           0        1.620450   -0.999548    2.220564
     31          1           0        1.596481   -1.976788    1.767069
     32          6           0       -1.975845    2.628189    3.306391
     33          1           0       -2.196895    3.260254    4.157151
     34          6           0       -2.244482   -2.182888    0.763954
     35          1           0       -3.163903   -1.676143    1.037897
     36          6           0       -1.729716    1.383740   -3.558557
     37          1           0       -1.780144    2.341504   -4.063627
     38          6           0        1.385076    0.960300   -1.061219
     39          6           0       -1.513122    3.112558   -0.318088
     40          1           0       -1.549631    4.188979   -0.179116
     41          6           0       -1.937973    0.223891   -4.272007
     42          1           0       -2.138182    0.254588   -5.335554
     43          6           0       -1.411067    2.701275   -1.606008
     44          1           0       -1.382348    3.498458   -2.342655
     45          6           0        1.729601    1.391351    3.555617
     46          1           0        1.779911    2.350187    4.058658
     47          6           0       -1.778502    1.256347    3.461655
     48          1           0       -1.835016    0.800950    4.443273
     49          6           0       -1.620284   -1.004312   -2.218455
     50          1           0       -1.596200   -1.980585   -1.762886
     51          6           0        1.937998    0.233039    4.271517
     52          1           0        2.138202    0.266005    5.334996
     53          6           0        1.883213    3.154035   -2.048713
     54          1           0        2.038673    4.216696   -1.901069
     55          6           0        1.905294   -0.970902    3.580716
     56          1           0        2.091260   -1.905900    4.095342
     57          6           0        1.975812    2.621206   -3.311940
     58          1           0        2.196856    3.251469   -4.164037
     59          6           0        1.512888    3.113246    0.311474
     60          1           0        1.549304    4.189373    0.170216
     61          6           0       -1.905117   -0.978583   -3.578664
     62          1           0       -2.090961   -1.914692   -4.091311
     63          6           0        1.410826    2.704698    1.600272
     64          1           0        1.382004    3.503448    2.335216
     65          6           0        1.493742    0.453624   -2.360491
     66          1           0        1.311952   -0.596561   -2.536270
     67          6           0        1.778554    1.249026   -3.464288
     68          1           0        1.835128    0.791544   -4.444934
 ---------------------------------------------------------------------

 Alpha  occ. eigenvalues --  -10.71259 -10.71241 -10.68782 -10.68782 -10.68688
 Alpha  occ. eigenvalues --  -10.68688 -10.68262 -10.68262 -10.67734 -10.67733
 Alpha  occ. eigenvalues --  -10.67479 -10.67479 -10.67427 -10.67426 -10.66971
 Alpha  occ. eigenvalues --  -10.66971 -10.66916 -10.66916 -10.66033 -10.66033
 Alpha  occ. eigenvalues --  -10.65950 -10.65950 -10.65770 -10.65770 -10.65707
 Alpha  occ. eigenvalues --  -10.65707 -10.65617 -10.65617 -10.65328 -10.65327
 Alpha  occ. eigenvalues --  -10.65220 -10.65220 -10.64965 -10.64964 -10.64938
 Alpha  occ. eigenvalues --  -10.64938 -10.64491 -10.64491 -10.63768 -10.63673
 Alpha  occ. eigenvalues --  -10.63420 -10.62106  -1.13131  -1.10361  -1.09715
 Alpha  occ. eigenvalues --   -1.08561  -1.07948  -1.06324  -1.03503  -1.03058
 Alpha  occ. eigenvalues --   -1.02564  -1.00613  -0.99224  -0.98006  -0.97962
 Alpha  occ. eigenvalues --   -0.96892  -0.96220  -0.94595  -0.93438  -0.93407
 Alpha  occ. eigenvalues --   -0.92269  -0.91676  -0.88331  -0.86232  -0.84971
 Alpha  occ. eigenvalues --   -0.84828  -0.82296  -0.81710  -0.80922  -0.80068
 Alpha  occ. eigenvalues --   -0.79700  -0.79476  -0.77964  -0.76222  -0.75947
 Alpha  occ. eigenvalues --   -0.75223  -0.74891  -0.73837  -0.70318  -0.70068
 Alpha  occ. eigenvalues --   -0.68724  -0.68019  -0.67629  -0.67620  -0.67279
 Alpha  occ. eigenvalues --   -0.66909  -0.65412  -0.64965  -0.64883  -0.64494
 Alpha  occ. eigenvalues --   -0.63812  -0.63021  -0.62303  -0.61793  -0.61523
 Alpha  occ. eigenvalues --   -0.61438  -0.60571  -0.60336  -0.59982  -0.59590
 Alpha  occ. eigenvalues --   -0.59484  -0.58746  -0.58087  -0.57735  -0.57645
 Alpha  occ. eigenvalues --   -0.56938  -0.56070  -0.56003  -0.55663  -0.55639
 Alpha  occ. eigenvalues --   -0.55421  -0.54511  -0.54451  -0.52977  -0.52896
 Alpha  occ. eigenvalues --   -0.52481  -0.52106  -0.51947  -0.51573  -0.51187
 Alpha  occ. eigenvalues --   -0.50744  -0.50445  -0.50312  -0.48815  -0.48689
 Alpha  occ. eigenvalues --   -0.48340  -0.48018  -0.47691  -0.44033  -0.43764
 Alpha  occ. eigenvalues --   -0.43484  -0.42650  -0.41373  -0.40758  -0.39538
 Alpha  occ. eigenvalues --   -0.38240  -0.37443  -0.36827  -0.36299
 Alpha virt. eigenvalues --   -0.16014  -0.15174  -0.14903  -0.12036  -0.10480
 Alpha virt. eigenvalues --   -0.09827  -0.08949  -0.08924  -0.08537  -0.07756
 Alpha virt. eigenvalues --   -0.07648  -0.07590  -0.07214  -0.06579  -0.06276

  Beta  occ. eigenvalues --  -10.71240 -10.71223 -10.68759 -10.68758 -10.68653
  Beta  occ. eigenvalues --  -10.68653 -10.68244 -10.68243 -10.67693 -10.67692
  Beta  occ. eigenvalues --  -10.67470 -10.67469 -10.67377 -10.67376 -10.66925
  Beta  occ. eigenvalues --  -10.66924 -10.66842 -10.66842 -10.66059 -10.66058
  Beta  occ. eigenvalues --  -10.65945 -10.65945 -10.65754 -10.65753 -10.65732
  Beta  occ. eigenvalues --  -10.65732 -10.65617 -10.65617 -10.65307 -10.65306
  Beta  occ. eigenvalues --  -10.65218 -10.65218 -10.64973 -10.64973 -10.64948
  Beta  occ. eigenvalues --  -10.64947 -10.64490 -10.64490 -10.63768 -10.63673
  Beta  occ. eigenvalues --  -10.63421 -10.62107  -1.13028  -1.10243  -1.09501
  Beta  occ. eigenvalues --   -1.08427  -1.07804  -1.06223  -1.03440  -1.02784
  Beta  occ. eigenvalues --   -1.02332  -1.00528  -0.99138  -0.97803  -0.97788
  Beta  occ. eigenvalues --   -0.96823  -0.96154  -0.94567  -0.93178  -0.93155
  Beta  occ. eigenvalues --   -0.92166  -0.91549  -0.88184  -0.86135  -0.84796
  Beta  occ. eigenvalues --   -0.84659  -0.82234  -0.81591  -0.80852  -0.79933
  Beta  occ. eigenvalues --   -0.79613  -0.79395  -0.77803  -0.76062  -0.75811
  Beta  occ. eigenvalues --   -0.75102  -0.74878  -0.73746  -0.70173  -0.69954
  Beta  occ. eigenvalues --   -0.68655  -0.67853  -0.67570  -0.67473  -0.67138
  Beta  occ. eigenvalues --   -0.66780  -0.65312  -0.64839  -0.64806  -0.64380
  Beta  occ. eigenvalues --   -0.63515  -0.62963  -0.62214  -0.61701  -0.61372
  Beta  occ. eigenvalues --   -0.61280  -0.60476  -0.60225  -0.59863  -0.59408
  Beta  occ. eigenvalues --   -0.59387  -0.58507  -0.58055  -0.57568  -0.57172
  Beta  occ. eigenvalues --   -0.56884  -0.55899  -0.55861  -0.55389  -0.55243
  Beta  occ. eigenvalues --   -0.54942  -0.54431  -0.54132  -0.52849  -0.52788
  Beta  occ. eigenvalues --   -0.52409  -0.51911  -0.51881  -0.51461  -0.51090
  Beta  occ. eigenvalues --   -0.50326  -0.50216  -0.49422  -0.48770  -0.48281
  Beta  occ. eigenvalues --   -0.48093  -0.47848  -0.47491  -0.43458  -0.43051
  Beta  occ. eigenvalues --   -0.42611  -0.42082  -0.41079  -0.40502  -0.39493
  Beta  occ. eigenvalues --   -0.37324  -0.36842  -0.36092
  Beta virt. eigenvalues --   -0.26804  -0.15658  -0.14805  -0.14427  -0.11799
  Beta virt. eigenvalues --   -0.10028  -0.09701  -0.08861  -0.08441  -0.08285
  Beta virt. eigenvalues --   -0.07620  -0.07521  -0.07427  -0.06884  -0.06576

 Mulliken charges and spin densities:
               1          2
     1  C    0.077779  -0.037371
     2  C    0.077838  -0.037412
     3  C    0.207895   0.001209
     4  C    0.095391   0.000830
     5  C    0.130309   0.002334
     6  C    0.103666   0.004719
     7  C   -0.299628   0.000115
     8  H    0.174572  -0.000013
     9  C    0.120430   0.076467
    10  C   -0.299716   0.000116
    11  H    0.174573  -0.000013
    12  C    0.130400   0.002335
    13  C    0.103785   0.004717
    14  C    0.021207  -0.012099
    15  C    0.091989   0.054112
    16  C   -0.145510   0.105860
    17  H    0.171167  -0.003962
    18  C   -0.511977   0.005231
    19  H    0.172708   0.000132
    20  C    0.320345  -0.007675
    21  C   -0.150371   0.009917
    22  H    0.173519  -0.000048
    23  C    0.091922   0.054128
    24  C    0.320685  -0.007676
    25  C   -0.511968   0.005231
    26  H    0.172711   0.000132
    27  C    0.020796  -0.012083
    28  C   -0.136922  -0.063655
    29  H    0.198287   0.001608
    30  C   -0.400062  -0.014066
    31  H    0.207001   0.000427
    32  C   -0.170351  -0.014624
    33  H    0.178894   0.000899
    34  C   -0.150344   0.009919
    35  H    0.173511  -0.000048
    36  C   -0.224879   0.030029
    37  H    0.164278  -0.001281
    38  C    0.120407   0.076493
    39  C   -0.165570   0.123378
    40  H    0.170504  -0.008202
    41  C   -0.308135  -0.001990
    42  H    0.176616   0.000444
    43  C   -0.170955   0.075317
    44  H    0.165274  -0.003424
    45  C   -0.224985   0.030055
    46  H    0.164282  -0.001281
    47  C   -0.211060   0.155360
    48  H    0.179750  -0.007615
    49  C   -0.399993  -0.014052
    50  H    0.206976   0.000427
    51  C   -0.308236  -0.001998
    52  H    0.176618   0.000445
    53  C   -0.145775   0.105881
    54  H    0.171168  -0.003963
    55  C    0.069450   0.030472
    56  H    0.176397  -0.001882
    57  C   -0.170288  -0.014624
    58  H    0.178894   0.000900
    59  C   -0.165622   0.123453
    60  H    0.170508  -0.008206
    61  C    0.069309   0.030437
    62  H    0.176393  -0.001881
    63  C   -0.171025   0.075336
    64  H    0.165279  -0.003425
    65  C   -0.137105  -0.063676
    66  H    0.198283   0.001608
    67  C   -0.211033   0.155389
    68  H    0.179750  -0.007616
 Sum of Mulliken charges =   1.00000   1.00000

 Dipole moment (field-independent basis, Debye):
    X=              0.0004    Y=              4.0507    Z=             -0.0042  Tot=              4.0507
 Quadrupole moment (field-independent basis, Debye-Ang):
   XX=           -222.0964   YY=           -173.7408   ZZ=           -177.0620
   XY=             -0.0034   XZ=             -3.0790   YZ=             -0.0012

 Normal termination of Gaussian 16 at Fri Mar 21 14:02:54 2025.
