 Gaussian 16, Revision A.03,
 Gaussian 16:  ES64L-G16RevA.03 25-Dec-2016

 --------------------------------------------
 #p opt UM062X/6-311+G** nosymm int=superfine
 --------------------------------------------

 -------------------
 Title Card Required
 -------------------
 Symbolic Z-matrix:
 Charge =  0 Multiplicity = 1

 SCF Done:  E(UM062X) =  -80.6305586970     A.U. after   11 cycles
 SCF Done:  E(UM062X) =  -80.6306537233     A.U. after    9 cycles
 SCF Done:  E(UM062X) =  -80.6306541007     A.U. after    8 cycles
 Optimization completed.
    -- Stationary point found.

                          Input orientation:
 ---------------------------------------------------------------------
 Center     Atomic      Atomic             Coordinates (Angstroms)
 Number     Number       Type             X           Y           Z
 ---------------------------------------------------------------------
      1          5           0       -0.842066    0.000000    0.000000
      2          7           0        0.842066    0.000000    0.000000
      3          1           0       -2.010435    0.002304   -0.000000
      4          1           0        1.846239    0.004551    0.000000
 ---------------------------------------------------------------------

 Alpha  occ. eigenvalues --  -14.76028  -7.18067  -0.86492  -0.60245  -0.52049
 Alpha  occ. eigenvalues --   -0.30589  -0.30589
 Alpha virt. eigenvalues --   -0.02920  -0.02920   0.00456   0.01439   0.05376
 Alpha virt. eigenvalues --    0.05377   0.06879   0.10391   0.18233   0.18233
 Alpha virt. eigenvalues --    0.22352   0.24279   0.30426   0.39860   0.39860

  Beta  occ. eigenvalues --  -14.76028  -7.18067  -0.86492  -0.60245  -0.52049
  Beta  occ. eigenvalues --   -0.30589  -0.30589
  Beta virt. eigenvalues --   -0.02920  -0.02920   0.00456   0.01439   0.05376
  Beta virt. eigenvalues --    0.05377   0.06879   0.10391   0.18233   0.18233
  Beta virt. eigenvalues --    0.22352   0.24279   0.30426   0.39860   0.39860

 Mulliken charges and spin densities:
               1          2
     1  B    0.286761   0.000000
     2  N   -0.681051  -0.000000
     3  H    0.084336  -0.000000
     4  H    0.309955  -0.000000
 Sum of Mulliken charges =  -0.00000   0.00000

 Dipole moment (field-independent basis, Debye):
    X=             -1.8280    Y=              0.0064    Z=             -0.0000  Tot=              1.8280
 Quadrupole moment (field-independent basis, Debye-Ang):
   XX=             -6.5520   YY=            -14.7603   ZZ=            -14.7604
   XY=              0.0184   XZ=              0.0000   YZ=             -0.0000

 Normal termination of Gaussian 16 at Mon Apr 21 18:02:00 2025.
