 Gaussian 16, Revision A.03,
 Gaussian 16:  ES64L-G16RevA.03 25-Dec-2016

 --------------------------------
 #p UM062X/6-311+G** Pop=NBO Read
 --------------------------------

 ------------
 NBO Analysis
 ------------
 Symbolic Z-matrix:
 Charge =  0 Multiplicity = 1

                         Standard orientation:
 ---------------------------------------------------------------------
 Center     Atomic      Atomic             Coordinates (Angstroms)
 Number     Number       Type             X           Y           Z
 ---------------------------------------------------------------------
      1          8           0       -1.087927    0.027193   -0.116770
      2         16           0        0.582163   -0.089421    0.007792
      3          1           0       -1.460352   -0.017059    0.769109
      4          1           0        0.849164    1.230244    0.040375
 ---------------------------------------------------------------------

 SCF Done:  E(UM062X) =  -474.510608234     A.U. after   12 cycles

 The electronic state is 1-A.
 Alpha  occ. eigenvalues --  -89.97335 -19.68495  -8.31534  -6.23738  -6.23308
 Alpha  occ. eigenvalues --   -6.22803  -1.17259  -0.81495  -0.59875  -0.51942
 Alpha  occ. eigenvalues --   -0.47415  -0.38334  -0.31184
 Alpha virt. eigenvalues --   -0.01248   0.02247   0.05863   0.06542   0.09186
 Alpha virt. eigenvalues --    0.11910   0.16826   0.19229   0.20756   0.25942
 Alpha virt. eigenvalues --    0.31966   0.48266   0.51849   0.52064   0.55439

  Beta  occ. eigenvalues --  -89.97335 -19.68495  -8.31534  -6.23738  -6.23308
  Beta  occ. eigenvalues --   -6.22803  -1.17259  -0.81495  -0.59875  -0.51942
  Beta  occ. eigenvalues --   -0.47415  -0.38334  -0.31184
  Beta virt. eigenvalues --   -0.01248   0.02247   0.05863   0.06542   0.09186
  Beta virt. eigenvalues --    0.11910   0.16826   0.19229   0.20756   0.25942
  Beta virt. eigenvalues --    0.31966   0.48266   0.51849   0.52064   0.55439

 Mulliken charges and spin densities:
               1          2
     1  O   -0.489584  -0.000000
     2  S    0.144096  -0.000000
     3  H    0.299963  -0.000000
     4  H    0.045526   0.000000
 Sum of Mulliken charges =  -0.00000  -0.00000

 Dipole moment (field-independent basis, Debye):
    X=              0.2286    Y=              0.8791    Z=              1.7049  Tot=              1.9318
 Quadrupole moment (field-independent basis, Debye-Ang):
   XX=            -18.3531   YY=            -18.6294   ZZ=            -20.2659
   XY=              1.3625   XZ=             -2.8806   YZ=              0.0375

 Summary of Natural Population Analysis:

                                       Natural Population
                Natural  -----------------------------------------------
    Atom  No    Charge         Core      Valence    Rydberg      Total
 -----------------------------------------------------------------------
      O    1   -0.43891      0.99995     3.43072    0.00824     4.43891
      S    2    0.12164      4.99974     2.84891    0.02972     7.87836
      H    3    0.25885      0.00000     0.23889    0.00225     0.24115
      H    4    0.05842      0.00000     0.43905    0.00253     0.44158
 =======================================================================
   * Total *   -0.00000      5.99968     6.95757    0.04274    13.00000

 Normal termination of Gaussian 16 at Mon May 12 15:18:18 2025.
