 Gaussian 16, Revision A.03,
 Gaussian 16:  ES64L-G16RevA.03 25-Dec-2016

 --------------------------------------------
 #p opt UM062X/6-311+G** nosymm int=superfine
 --------------------------------------------

 -------------------
 Title Card Required
 -------------------
 Symbolic Z-matrix:
 Charge =  0 Multiplicity = 1

 SCF Done:  E(UM062X) =  -115.692679634     A.U. after   10 cycles
 SCF Done:  E(UM062X) =  -115.694062834     A.U. after    9 cycles
 SCF Done:  E(UM062X) =  -115.694083454     A.U. after    8 cycles
 SCF Done:  E(UM062X) =  -115.694083919     A.U. after    7 cycles
 Optimization completed.
    -- Stationary point found.

                          Input orientation:
 ---------------------------------------------------------------------
 Center     Atomic      Atomic             Coordinates (Angstroms)
 Number     Number       Type             X           Y           Z
 ---------------------------------------------------------------------
      1          6           0       -0.782203    0.000000    0.000000
      2          8           0        0.782203    0.000000    0.000000
      3          1           0        1.034730   -0.926558    0.000496
      4          1           0       -1.139987   -0.493929    0.901573
      5          1           0       -1.049904    1.051355   -0.000625
      6          1           0       -1.139995   -0.494999   -0.900983
 ---------------------------------------------------------------------

 Alpha  occ. eigenvalues --  -19.62085 -10.59057  -1.10667  -0.78377  -0.56132
 Alpha  occ. eigenvalues --   -0.51122  -0.48186  -0.42016  -0.36036
 Alpha virt. eigenvalues --    0.01308   0.02886   0.05291   0.05507   0.15819
 Alpha virt. eigenvalues --    0.17737   0.18104   0.18753   0.20324   0.23113
 Alpha virt. eigenvalues --    0.23922   0.24378   0.32651   0.42515   0.44388

  Beta  occ. eigenvalues --  -19.62085 -10.59057  -1.10667  -0.78377  -0.56132
  Beta  occ. eigenvalues --   -0.51122  -0.48186  -0.42016  -0.36036
  Beta virt. eigenvalues --    0.01308   0.02886   0.05291   0.05507   0.15819
  Beta virt. eigenvalues --    0.17737   0.18104   0.18753   0.20324   0.23113
  Beta virt. eigenvalues --    0.23922   0.24378   0.32651   0.42515   0.44388

 Mulliken charges and spin densities:
               1          2
     1  C   -0.306954  -0.000000
     2  O   -0.422065   0.000000
     3  H    0.252227  -0.000000
     4  H    0.152794   0.000000
     5  H    0.171206   0.000000
     6  H    0.152791   0.000000
 Sum of Mulliken charges =  -0.00000   0.00000

 Dipole moment (field-independent basis, Debye):
    X=             -1.6792    Y=             -1.5416    Z=              0.0008  Tot=              2.2795
 Quadrupole moment (field-independent basis, Debye-Ang):
   XX=            -13.4699   YY=            -11.5893   ZZ=            -13.8330
   XY=             -2.1286   XZ=              0.0011   YZ=             -0.0012

 Normal termination of Gaussian 16 at Mon Apr 21 18:35:40 2025.
