 Gaussian 16, Revision A.03,
 Gaussian 16:  ES64L-G16RevA.03 25-Dec-2016

 --------------------------------------------
 #p opt UM062X/6-311+G** nosymm int=superfine
 --------------------------------------------

 -------------------
 Title Card Required
 -------------------
 Symbolic Z-matrix:
 Charge =  0 Multiplicity = 1

 SCF Done:  E(UM062X) =  -79.6484283012     A.U. after   10 cycles
 SCF Done:  E(UM062X) =  -79.6490174459     A.U. after    8 cycles
 SCF Done:  E(UM062X) =  -79.6491420861     A.U. after    9 cycles
 Optimization completed.
    -- Stationary point found.

                          Input orientation:
 ---------------------------------------------------------------------
 Center     Atomic      Atomic             Coordinates (Angstroms)
 Number     Number       Type             X           Y           Z
 ---------------------------------------------------------------------
      1          6           0       -1.371675    0.000000    0.000000
      2          6           0        1.371800    0.000000    0.000000
      3          1           0        1.535090   -0.924799    0.535126
      4          1           0       -1.534958   -0.925842   -0.533321
      5          1           0        1.535085    0.925842    0.533320
      6          1           0        1.535048   -0.001042   -1.068470
      7          1           0       -1.534965    0.924799   -0.535126
      8          1           0       -1.534926    0.001042    1.068470
 ---------------------------------------------------------------------

 Alpha  occ. eigenvalues --  -10.56321 -10.56317  -0.77052  -0.75062  -0.48464
 Alpha  occ. eigenvalues --   -0.48464  -0.47340  -0.47340  -0.25994
 Alpha virt. eigenvalues --   -0.04932   0.02722   0.05431   0.05431   0.06152
 Alpha virt. eigenvalues --    0.08037   0.08037   0.10578   0.12685   0.18244
 Alpha virt. eigenvalues --    0.18244   0.21721   0.21721   0.24299   0.25616

  Beta  occ. eigenvalues --  -10.56321 -10.56317  -0.77052  -0.75062  -0.48464
  Beta  occ. eigenvalues --   -0.48464  -0.47340  -0.47340  -0.25994
  Beta virt. eigenvalues --   -0.04932   0.02722   0.05431   0.05431   0.06152
  Beta virt. eigenvalues --    0.08037   0.08037   0.10578   0.12685   0.18244
  Beta virt. eigenvalues --    0.18244   0.21721   0.21721   0.24299   0.25616

 Mulliken charges and spin densities:
               1          2
     1  C   -0.517876  -0.000000
     2  C   -0.517876   0.000000
     3  H    0.172625  -0.000000
     4  H    0.172625  -0.000000
     5  H    0.172625  -0.000000
     6  H    0.172626  -0.000000
     7  H    0.172625  -0.000000
     8  H    0.172626  -0.000000
 Sum of Mulliken charges =  -0.00000  -0.00000

 Dipole moment (field-independent basis, Debye):
    X=             -0.0000    Y=             -0.0000    Z=             -0.0000  Tot=              0.0000
 Quadrupole moment (field-independent basis, Debye-Ang):
   XX=            -15.4818   YY=            -14.7914   ZZ=            -14.7914
   XY=             -0.0000   XZ=              0.0001   YZ=             -0.0000

 Normal termination of Gaussian 16 at Tue Dec  3 09:58:54 2024.
