 Gaussian 16, Revision A.03,
 Gaussian 16:  ES64L-G16RevA.03 25-Dec-2016

 --------------------------------------------
 #p opt UM062X/6-311+G** nosymm int=superfine
 --------------------------------------------

 -------------------
 Title Card Required
 -------------------
 Symbolic Z-matrix:
 Charge =  0 Multiplicity = 1

 SCF Done:  E(UM062X) =  -51.9762910630     A.U. after    8 cycles
 SCF Done:  E(UM062X) =  -51.9765793115     A.U. after    7 cycles
 SCF Done:  E(UM062X) =  -51.9766939967     A.U. after    8 cycles
 SCF Done:  E(UM062X) =  -51.9771690666     A.U. after    9 cycles
 SCF Done:  E(UM062X) =  -51.9677320141     A.U. after   10 cycles
 SCF Done:  E(UM062X) =  -51.9810558836     A.U. after   10 cycles
 SCF Done:  E(UM062X) =  -51.9695250856     A.U. after   11 cycles
 SCF Done:  E(UM062X) =  -51.9844133184     A.U. after    9 cycles
 SCF Done:  E(UM062X) =  -51.9778412127     A.U. after   10 cycles
 SCF Done:  E(UM062X) =  -51.9849431441     A.U. after    9 cycles
 SCF Done:  E(UM062X) =  -51.9850405324     A.U. after    9 cycles
 SCF Done:  E(UM062X) =  -51.9849926383     A.U. after    8 cycles
 SCF Done:  E(UM062X) =  -51.9849527140     A.U. after    9 cycles
 SCF Done:  E(UM062X) =  -51.9850345091     A.U. after    9 cycles
 SCF Done:  E(UM062X) =  -51.9850383650     A.U. after    8 cycles
 SCF Done:  E(UM062X) =  -51.9850407750     A.U. after    7 cycles
 SCF Done:  E(UM062X) =  -51.9850422709     A.U. after    7 cycles
 SCF Done:  E(UM062X) =  -51.9850426200     A.U. after    6 cycles
 SCF Done:  E(UM062X) =  -51.9850427184     A.U. after    6 cycles
 Optimization completed.
    -- Stationary point found.

                          Input orientation:
 ---------------------------------------------------------------------
 Center     Atomic      Atomic             Coordinates (Angstroms)
 Number     Number       Type             X           Y           Z
 ---------------------------------------------------------------------
      1          5           0       -0.995607    0.000000    0.000000
      2          5           0        0.995607    0.000000    0.000000
      3          1           0       -1.593014   -0.728924   -0.726049
      4          1           0        1.593014    0.726144   -0.728829
      5          1           0       -1.593012    0.728889    0.726086
      6          1           0        1.593013   -0.726118    0.728856
 ---------------------------------------------------------------------

 Alpha  occ. eigenvalues --   -7.06627  -7.06607  -0.59457  -0.53953  -0.41536
 Alpha  occ. eigenvalues --   -0.41536  -0.32551
 Alpha virt. eigenvalues --   -0.03331  -0.03330   0.02303   0.03013   0.04835
 Alpha virt. eigenvalues --    0.04835   0.06805   0.07694   0.07694   0.11158
 Alpha virt. eigenvalues --    0.15400   0.18530   0.20190   0.22111   0.22111

  Beta  occ. eigenvalues --   -7.06627  -7.06607  -0.59457  -0.53953  -0.41536
  Beta  occ. eigenvalues --   -0.41536  -0.32551
  Beta virt. eigenvalues --   -0.03331  -0.03330   0.02303   0.03013   0.04835
  Beta virt. eigenvalues --    0.04835   0.06805   0.07694   0.07694   0.11158
  Beta virt. eigenvalues --    0.15400   0.18530   0.20190   0.22111   0.22111

 Mulliken charges and spin densities:
               1          2
     1  B   -0.030727   0.000000
     2  B   -0.030727  -0.000000
     3  H    0.015363  -0.000000
     4  H    0.015363   0.000000
     5  H    0.015364  -0.000000
     6  H    0.015364   0.000000
 Sum of Mulliken charges =  -0.00000   0.00000

 Dipole moment (field-independent basis, Debye):
    X=             -0.0000    Y=              0.0000    Z=             -0.0000  Tot=              0.0000
 Quadrupole moment (field-independent basis, Debye-Ang):
   XX=            -16.8156   YY=            -14.9240   ZZ=            -14.9237
   XY=             -0.0001   XZ=              0.0000   YZ=              0.0000

 Normal termination of Gaussian 16 at Mon Apr 21 17:01:57 2025.
