 Gaussian 16, Revision A.03,
 Gaussian 16:  ES64L-G16RevA.03 25-Dec-2016

 --------------------------------------------
 #p opt UM062X/6-311+G** nosymm int=superfine
 --------------------------------------------

 -------------------
 Title Card Required
 -------------------
 Symbolic Z-matrix:
 Charge =  0 Multiplicity = 1

 SCF Done:  E(UM062X) =  -437.156191169     A.U. after   17 cycles
 SCF Done:  E(UM062X) =  -437.159090354     A.U. after   16 cycles
 SCF Done:  E(UM062X) =  -437.160042067     A.U. after   17 cycles
 SCF Done:  E(UM062X) =  -437.160043363     A.U. after   10 cycles
 Optimization completed.
    -- Stationary point found.

                          Input orientation:
 ---------------------------------------------------------------------
 Center     Atomic      Atomic             Coordinates (Angstroms)
 Number     Number       Type             X           Y           Z
 ---------------------------------------------------------------------
      1          6           0       -2.202140    0.000000    0.000000
      2         16           0        2.202140    0.000000    0.000000
      3          1           0       -2.893357   -0.865292    0.000038
      4          1           0       -2.894350    0.864497   -0.000085
 ---------------------------------------------------------------------

 Alpha  occ. eigenvalues --  -89.94697 -10.62066  -8.30749  -6.23542  -6.21950
 Alpha  occ. eigenvalues --   -6.21950  -0.76753  -0.74854  -0.48817  -0.32635
 Alpha  occ. eigenvalues --   -0.32156  -0.32151
 Alpha virt. eigenvalues --   -0.17165  -0.09280   0.01584   0.04507   0.05391
 Alpha virt. eigenvalues --    0.06340   0.07915   0.08383   0.08881   0.13817
 Alpha virt. eigenvalues --    0.17430   0.18833   0.35278   0.36541   0.36559

  Beta  occ. eigenvalues --  -89.94697 -10.62066  -8.30749  -6.23542  -6.21950
  Beta  occ. eigenvalues --   -6.21950  -0.76753  -0.74854  -0.48817  -0.32635
  Beta  occ. eigenvalues --   -0.32156  -0.32151
  Beta virt. eigenvalues --   -0.17165  -0.09280   0.01584   0.04507   0.05391
  Beta virt. eigenvalues --    0.06340   0.07915   0.08383   0.08881   0.13817
  Beta virt. eigenvalues --    0.17430   0.18833   0.35278   0.36541   0.36559

 Mulliken charges and spin densities:
               1          2
     1  C   -0.276447  -0.000000
     2  S    0.002723   0.000000
     3  H    0.136859  -0.000000
     4  H    0.136866   0.000000
 Sum of Mulliken charges =  -0.00000  -0.00000

 Dipole moment (field-independent basis, Debye):
    X=             -2.3950    Y=             -0.0012    Z=             -0.0001  Tot=              2.3950
 Quadrupole moment (field-independent basis, Debye-Ang):
   XX=             -9.5919   YY=            -22.3832   ZZ=            -21.6877
   XY=              0.0005   XZ=              0.0005   YZ=              0.0000

 Normal termination of Gaussian 16 at Mon Apr 21 19:46:26 2025.
