 Gaussian 16, Revision A.03,
 Gaussian 16:  ES64L-G16RevA.03 25-Dec-2016

 --------------------------------------------
 #p opt UM062X/6-311+G** nosymm int=superfine
 --------------------------------------------

 -------------------
 Title Card Required
 -------------------
 Symbolic Z-matrix:
 Charge =  0 Multiplicity = 1

 SCF Done:  E(UM062X) =  -76.8493991701     A.U. after   15 cycles
 SCF Done:  E(UM062X) =  -76.8496322067     A.U. after   15 cycles
 SCF Done:  E(UM062X) =  -76.8502866807     A.U. after   21 cycles
 SCF Done:  E(UM062X) =  -76.8509187457     A.U. after   17 cycles
 SCF Done:  E(UM062X) =  -76.8509647516     A.U. after   17 cycles
 SCF Done:  E(UM062X) =  -76.8509788642     A.U. after   20 cycles
 SCF Done:  E(UM062X) =  -76.8509792029     A.U. after   16 cycles
 SCF Done:  E(UM062X) =  -76.8509794135     A.U. after   16 cycles
 Optimization completed.
    -- Stationary point found.

                          Input orientation:
 ---------------------------------------------------------------------
 Center     Atomic      Atomic             Coordinates (Angstroms)
 Number     Number       Type             X           Y           Z
 ---------------------------------------------------------------------
      1          6           0       -2.232625    0.000000    0.000000
      2          6           0        2.232625    0.000000    0.000000
      3          1           0       -2.026613   -0.651744    0.886041
      4          1           0        2.026800    0.652488   -0.885536
 ---------------------------------------------------------------------

 Alpha  occ. eigenvalues --  -10.67556 -10.67555  -0.72995  -0.72805  -0.39167
 Alpha  occ. eigenvalues --   -0.39104  -0.22414
 Alpha virt. eigenvalues --   -0.14421  -0.10260  -0.09911   0.02990   0.04320
 Alpha virt. eigenvalues --    0.07167   0.07236   0.09027   0.09436   0.10201
 Alpha virt. eigenvalues --    0.13628   0.17850   0.19005   0.45254   0.46282

  Beta  occ. eigenvalues --  -10.67556 -10.67555  -0.72995  -0.72805  -0.39167
  Beta  occ. eigenvalues --   -0.39104  -0.22414
  Beta virt. eigenvalues --   -0.14421  -0.10260  -0.09911   0.02990   0.04320
  Beta virt. eigenvalues --    0.07167   0.07236   0.09027   0.09436   0.10201
  Beta virt. eigenvalues --    0.13628   0.17850   0.19005   0.45254   0.46282

 Mulliken charges and spin densities:
               1          2
     1  C   -0.138581  -0.000000
     2  C   -0.138597   0.000000
     3  H    0.138590   0.000000
     4  H    0.138588   0.000000
 Sum of Mulliken charges =  -0.00000   0.00000

 Dipole moment (field-independent basis, Debye):
    X=              0.0002    Y=              0.0011    Z=              0.0008  Tot=              0.0014
 Quadrupole moment (field-independent basis, Debye-Ang):
   XX=            -17.8337   YY=            -13.0517   ZZ=            -13.8747
   XY=              4.2475   XZ=             -5.7703   YZ=              1.3231

 Normal termination of Gaussian 16 at Wed Dec  4 00:42:18 2024.
