 Gaussian 16, Revision A.03,
 Gaussian 16:  ES64L-G16RevA.03 25-Dec-2016

 ---------------------------------------------------------------------
 #p opt UM062X/6-311+G** nosymm int=superfine SCF=(Tight,MaxCycle=200)
 ---------------------------------------------------------------------

 -------------------
 Title Card Required
 -------------------
 Symbolic Z-matrix:
 Charge =  1 Multiplicity = 2

 SCF Done:  E(UM062X) =  -1615.45909481     A.U. after   22 cycles
 SCF Done:  E(UM062X) =  -1615.52250153     A.U. after   19 cycles
 SCF Done:  E(UM062X) =  -1615.56480138     A.U. after   19 cycles
 SCF Done:  E(UM062X) =  -1615.56532266     A.U. after   19 cycles
 SCF Done:  E(UM062X) =  -1615.52572034     A.U. after   23 cycles
 SCF Done:  E(UM062X) =  -1615.56079310     A.U. after   21 cycles
 SCF Done:  E(UM062X) =  -1615.56641161     A.U. after   16 cycles
 SCF Done:  E(UM062X) =  -1615.56424999     A.U. after   21 cycles
 SCF Done:  E(UM062X) =  -1615.56661237     A.U. after   19 cycles
 SCF Done:  E(UM062X) =  -1615.56697247     A.U. after   19 cycles
 SCF Done:  E(UM062X) =  -1615.56705303     A.U. after   17 cycles
 SCF Done:  E(UM062X) =  -1615.56709112     A.U. after   17 cycles
 SCF Done:  E(UM062X) =  -1615.56710722     A.U. after   16 cycles
 SCF Done:  E(UM062X) =  -1615.56711324     A.U. after   16 cycles
 SCF Done:  E(UM062X) =  -1615.56711637     A.U. after   14 cycles
 SCF Done:  E(UM062X) =  -1615.56711654     A.U. after   12 cycles
 SCF Done:  E(UM062X) =  -1615.56711659     A.U. after   12 cycles
 SCF Done:  E(UM062X) =  -1615.56711663     A.U. after   12 cycles
 Optimization completed.
    -- Stationary point found.

                          Input orientation:
 ---------------------------------------------------------------------
 Center     Atomic      Atomic             Coordinates (Angstroms)
 Number     Number       Type             X           Y           Z
 ---------------------------------------------------------------------
      1          6           0       -1.112840    0.000000    0.000000
      2          6           0        1.112840    0.000000    0.000000
      3          6           0       -0.000036   -2.173606    0.000164
      4          6           0       -0.000053   -3.543420    0.000262
      5          6           0       -1.125620   -4.327593    0.311377
      6          6           0       -1.185275   -1.479478    0.294940
      7          6           0        0.654150   -5.724533   -0.181732
      8          1           0        1.258207   -6.604040   -0.353343
      9          6           0       -1.434520    0.871143    1.136353
     10          6           0       -0.654309   -5.724492    0.182564
     11          1           0       -1.258385   -6.603961    0.354301
     12          6           0        1.125495   -4.327663   -0.310743
     13          6           0        1.185213   -1.479535   -0.294720
     14          6           0        1.640475    2.283630   -1.101206
     15          6           0       -1.443394    0.262715   -1.420311
     16          6           0       -1.866012    2.977816    2.311479
     17          1           0       -2.026420    4.048412    2.259882
     18          6           0       -2.283432   -3.652236    0.638142
     19          1           0       -3.197119   -4.177084    0.893409
     20          6           0       -1.555573    1.545937   -2.035164
     21          6           0        2.305490   -2.220315   -0.618203
     22          1           0        3.242698   -1.715558   -0.828192
     23          6           0        1.443463    0.262895    1.420263
     24          6           0        1.555815    1.546191    2.034923
     25          6           0        2.283318   -3.652376   -0.637610
     26          1           0        3.196992   -4.177280   -0.892807
     27          6           0       -1.640324    2.283818    1.100899
     28          6           0       -1.448024    0.262064    2.417317
     29          1           0       -1.266504   -0.798621    2.497198
     30          6           0        1.599054   -0.852722    2.286390
     31          1           0        1.559217   -1.855688    1.892323
     32          6           0       -1.888461    2.346046    3.532230
     33          1           0       -2.066343    2.910469    4.439394
     34          6           0       -2.305573   -2.220177    0.618527
     35          1           0       -3.242768   -1.715366    0.828447
     36          6           0       -1.748918    1.638450   -3.431085
     37          1           0       -1.811694    2.627822   -3.868965
     38          6           0        1.434667    0.870953   -1.136462
     39          6           0       -1.597057    3.128847   -0.060870
     40          1           0       -1.642198    4.189696    0.165632
     41          6           0       -1.886522    0.530550   -4.233791
     42          1           0       -2.051383    0.638698   -5.298730
     43          6           0       -1.528311    2.820891   -1.371398
     44          1           0       -1.523411    3.670048   -2.047983
     45          6           0        1.749424    1.638888    3.430795
     46          1           0        1.812351    2.628317    3.868525
     47          6           0       -1.669529    0.965097    3.580167
     48          1           0       -1.663091    0.442763    4.529162
     49          6           0       -1.598969   -0.853007   -2.286301
     50          1           0       -1.559290   -1.855920   -1.892085
     51          6           0        1.887076    0.531090    4.233631
     52          1           0        2.052159    0.639375    5.298521
     53          6           0        1.866306    2.977446   -2.311860
     54          1           0        2.026725    4.048047   -2.260402
     55          6           0        1.825930   -0.730638    3.641321
     56          1           0        1.953914   -1.625065    4.238705
     57          6           0        1.888885    2.345492   -3.532513
     58          1           0        2.066893    2.909774   -4.439740
     59          6           0        1.597058    3.128838    0.060431
     60          1           0        1.642054    4.189657   -0.166237
     61          6           0       -1.825624   -0.731096   -3.641286
     62          1           0       -1.953619   -1.625598   -4.238556
     63          6           0        1.528390    2.821059    1.371002
     64          1           0        1.523413    3.670302    2.047480
     65          6           0        1.448261    0.261688   -2.417335
     66          1           0        1.266703   -0.798999   -2.497082
     67          6           0        1.669906    0.964546   -3.580266
     68          1           0        1.663532    0.442073   -4.529185
 ---------------------------------------------------------------------

 Alpha  occ. eigenvalues --  -10.71888 -10.71883 -10.68749 -10.68749 -10.68553
 Alpha  occ. eigenvalues --  -10.68553 -10.68445 -10.68445 -10.67917 -10.67916
 Alpha  occ. eigenvalues --  -10.66807 -10.66807 -10.66750 -10.66750 -10.66663
 Alpha  occ. eigenvalues --  -10.66663 -10.66065 -10.66064 -10.65942 -10.65942
 Alpha  occ. eigenvalues --  -10.65884 -10.65883 -10.65843 -10.65843 -10.65694
 Alpha  occ. eigenvalues --  -10.65694 -10.65612 -10.65612 -10.65576 -10.65575
 Alpha  occ. eigenvalues --  -10.65459 -10.65459 -10.65442 -10.65441 -10.65254
 Alpha  occ. eigenvalues --  -10.65254 -10.65007 -10.65007 -10.64887 -10.64107
 Alpha  occ. eigenvalues --  -10.64011 -10.62904  -1.12919  -1.10396  -1.09925
 Alpha  occ. eigenvalues --   -1.08518  -1.07827  -1.06111  -1.04471  -1.02700
 Alpha  occ. eigenvalues --   -1.02233  -1.00687  -1.00398  -0.97926  -0.97705
 Alpha  occ. eigenvalues --   -0.96962  -0.96233  -0.94986  -0.93454  -0.93428
 Alpha  occ. eigenvalues --   -0.92744  -0.91939  -0.87770  -0.87194  -0.84971
 Alpha  occ. eigenvalues --   -0.84733  -0.82922  -0.81589  -0.81255  -0.79912
 Alpha  occ. eigenvalues --   -0.79755  -0.79522  -0.77714  -0.76417  -0.76195
 Alpha  occ. eigenvalues --   -0.75569  -0.75388  -0.73820  -0.70178  -0.69883
 Alpha  occ. eigenvalues --   -0.69107  -0.68369  -0.67751  -0.67578  -0.67026
 Alpha  occ. eigenvalues --   -0.66806  -0.65571  -0.65295  -0.65015  -0.64875
 Alpha  occ. eigenvalues --   -0.63505  -0.63067  -0.62247  -0.62245  -0.61429
 Alpha  occ. eigenvalues --   -0.61238  -0.60720  -0.60332  -0.60175  -0.60000
 Alpha  occ. eigenvalues --   -0.59603  -0.58882  -0.58657  -0.58118  -0.57807
 Alpha  occ. eigenvalues --   -0.57496  -0.56379  -0.55771  -0.55718  -0.55697
 Alpha  occ. eigenvalues --   -0.54946  -0.54385  -0.53541  -0.52867  -0.52739
 Alpha  occ. eigenvalues --   -0.52564  -0.52244  -0.52089  -0.51554  -0.51031
 Alpha  occ. eigenvalues --   -0.50939  -0.50936  -0.50541  -0.49360  -0.48890
 Alpha  occ. eigenvalues --   -0.48861  -0.48503  -0.48079  -0.44391  -0.43952
 Alpha  occ. eigenvalues --   -0.43541  -0.43175  -0.40738  -0.40247  -0.39374
 Alpha  occ. eigenvalues --   -0.37989  -0.37868  -0.37240  -0.34232
 Alpha virt. eigenvalues --   -0.17253  -0.15552  -0.15295  -0.14875  -0.10280
 Alpha virt. eigenvalues --   -0.09942  -0.08743  -0.08640  -0.08327  -0.07668
 Alpha virt. eigenvalues --   -0.07625  -0.07490  -0.06607  -0.06606  -0.06367

  Beta  occ. eigenvalues --  -10.71785 -10.71783 -10.68738 -10.68738 -10.68559
  Beta  occ. eigenvalues --  -10.68558 -10.68403 -10.68403 -10.67886 -10.67886
  Beta  occ. eigenvalues --  -10.66787 -10.66787 -10.66756 -10.66756 -10.66638
  Beta  occ. eigenvalues --  -10.66637 -10.66043 -10.66043 -10.65944 -10.65944
  Beta  occ. eigenvalues --  -10.65891 -10.65890 -10.65829 -10.65828 -10.65681
  Beta  occ. eigenvalues --  -10.65681 -10.65610 -10.65610 -10.65583 -10.65583
  Beta  occ. eigenvalues --  -10.65450 -10.65450 -10.65432 -10.65432 -10.65254
  Beta  occ. eigenvalues --  -10.65254 -10.65003 -10.65003 -10.64874 -10.64107
  Beta  occ. eigenvalues --  -10.64011 -10.62906  -1.12778  -1.10292  -1.09750
  Beta  occ. eigenvalues --   -1.08382  -1.07701  -1.05977  -1.04368  -1.02531
  Beta  occ. eigenvalues --   -1.02079  -1.00553  -1.00245  -0.97809  -0.97599
  Beta  occ. eigenvalues --   -0.96830  -0.96121  -0.94940  -0.93355  -0.93338
  Beta  occ. eigenvalues --   -0.92604  -0.91823  -0.87482  -0.86928  -0.84875
  Beta  occ. eigenvalues --   -0.84646  -0.82851  -0.81466  -0.81176  -0.79806
  Beta  occ. eigenvalues --   -0.79682  -0.79449  -0.77579  -0.76232  -0.76025
  Beta  occ. eigenvalues --   -0.75401  -0.75352  -0.73696  -0.70066  -0.69740
  Beta  occ. eigenvalues --   -0.68999  -0.68276  -0.67651  -0.67498  -0.66898
  Beta  occ. eigenvalues --   -0.66702  -0.65478  -0.65172  -0.64890  -0.64745
  Beta  occ. eigenvalues --   -0.63219  -0.63025  -0.62167  -0.62141  -0.61169
  Beta  occ. eigenvalues --   -0.61059  -0.60565  -0.60202  -0.60117  -0.59935
  Beta  occ. eigenvalues --   -0.59467  -0.58704  -0.58574  -0.58009  -0.57482
  Beta  occ. eigenvalues --   -0.57304  -0.56246  -0.55680  -0.55607  -0.55209
  Beta  occ. eigenvalues --   -0.54930  -0.53950  -0.53296  -0.52763  -0.52641
  Beta  occ. eigenvalues --   -0.52510  -0.52146  -0.51973  -0.51088  -0.50951
  Beta  occ. eigenvalues --   -0.50822  -0.50575  -0.49860  -0.49154  -0.48801
  Beta  occ. eigenvalues --   -0.48752  -0.48417  -0.47612  -0.43801  -0.43332
  Beta  occ. eigenvalues --   -0.43004  -0.42791  -0.40294  -0.40191  -0.38764
  Beta  occ. eigenvalues --   -0.37698  -0.37348  -0.36909
  Beta virt. eigenvalues --   -0.24624  -0.16148  -0.15491  -0.14829  -0.14796
  Beta virt. eigenvalues --   -0.10128  -0.09547  -0.08533  -0.08371  -0.08245
  Beta virt. eigenvalues --   -0.07581  -0.07552  -0.07366  -0.06591  -0.06351

 Mulliken charges and spin densities:
               1          2
     1  C   -0.018357   0.115272
     2  C   -0.018285   0.115298
     3  C    0.163365   0.000733
     4  C    0.111627  -0.004105
     5  C    0.109388   0.006877
     6  C    0.116263  -0.001981
     7  C   -0.299698   0.001544
     8  H    0.176210  -0.000077
     9  C    0.221313   0.040439
    10  C   -0.299741   0.001544
    11  H    0.176210  -0.000077
    12  C    0.109380   0.006876
    13  C    0.116215  -0.001978
    14  C    0.163123   0.063228
    15  C    0.249572   0.017547
    16  C   -0.196870  -0.016735
    17  H    0.164576   0.000426
    18  C   -0.467749  -0.001175
    19  H    0.175177   0.000511
    20  C    0.215459   0.074166
    21  C   -0.162155   0.015781
    22  H    0.174854  -0.000654
    23  C    0.249618   0.017545
    24  C    0.215588   0.074162
    25  C   -0.467715  -0.001173
    26  H    0.175176   0.000511
    27  C    0.163120   0.063255
    28  C   -0.140267   0.003816
    29  H    0.199555  -0.000789
    30  C   -0.281085   0.017739
    31  H    0.221825  -0.000262
    32  C   -0.311242   0.043333
    33  H    0.180571  -0.002252
    34  C   -0.162169   0.015776
    35  H    0.174851  -0.000654
    36  C   -0.146173  -0.025967
    37  H    0.164507   0.000780
    38  C    0.221257   0.040443
    39  C   -0.227992   0.076506
    40  H    0.168606  -0.005530
    41  C   -0.246576   0.029950
    42  H    0.179011  -0.001336
    43  C   -0.194898   0.041314
    44  H    0.160475  -0.002628
    45  C   -0.146310  -0.025971
    46  H    0.164513   0.000780
    47  C   -0.136390   0.024631
    48  H    0.171655  -0.002703
    49  C   -0.281023   0.017731
    50  H    0.221826  -0.000262
    51  C   -0.246641   0.029944
    52  H    0.179012  -0.001335
    53  C   -0.196972  -0.016738
    54  H    0.164577   0.000426
    55  C   -0.195126  -0.010038
    56  H    0.174963  -0.000052
    57  C   -0.311308   0.043324
    58  H    0.180571  -0.002251
    59  C   -0.227824   0.076504
    60  H    0.168595  -0.005530
    61  C   -0.195193  -0.010037
    62  H    0.174964  -0.000052
    63  C   -0.194752   0.041298
    64  H    0.160470  -0.002626
    65  C   -0.140225   0.003833
    66  H    0.199547  -0.000789
    67  C   -0.136505   0.024614
    68  H    0.171653  -0.002702
 Sum of Mulliken charges =   1.00000   1.00000

 Dipole moment (field-independent basis, Debye):
    X=              0.0004    Y=              2.6799    Z=             -0.0002  Tot=              2.6799
 Quadrupole moment (field-independent basis, Debye-Ang):
   XX=           -222.4077   YY=           -174.5983   ZZ=           -176.8783
   XY=              0.0008   XZ=             -1.6573   YZ=             -0.0000

 Normal termination of Gaussian 16 at Fri Mar 21 09:30:43 2025.
