 Gaussian 16, Revision A.03,
 Gaussian 16:  ES64L-G16RevA.03 25-Dec-2016

 ---------------------------------------------------
 #p UM062X/6-311+G** force int=superfine pop=saveNBO
 ---------------------------------------------------

 -------------------
 Title Card Required
 -------------------
 Symbolic Z-matrix:
 Charge =  0 Multiplicity = 1

                         Standard orientation:
 ---------------------------------------------------------------------
 Center     Atomic      Atomic             Coordinates (Angstroms)
 Number     Number       Type             X           Y           Z
 ---------------------------------------------------------------------
      1          8           0        0.000000    0.000000   -1.560091
      2         16           0        0.000000    0.000000    0.780045
 ---------------------------------------------------------------------

 SCF Done:  E(UM062X) =  -473.089898897     A.U. after   18 cycles

 Unable to determine electronic state:  an orbital has unidentified symmetry.
 Alpha  occ. eigenvalues --  -90.03508 -19.75544  -8.38994  -6.31053  -6.31018
 Alpha  occ. eigenvalues --   -6.30120  -1.05056  -0.80884  -0.43330  -0.43052
 Alpha  occ. eigenvalues --   -0.38025  -0.36785
 Alpha virt. eigenvalues --   -0.22657  -0.15769   0.02615   0.04703   0.05237
 Alpha virt. eigenvalues --    0.05643   0.18219   0.20140   0.20423   0.26796
 Alpha virt. eigenvalues --    0.32803   0.33737   0.33829   0.59222   0.74483

  Beta  occ. eigenvalues --  -90.03508 -19.75544  -8.38994  -6.31053  -6.31018
  Beta  occ. eigenvalues --   -6.30120  -1.05056  -0.80884  -0.43330  -0.43052
  Beta  occ. eigenvalues --   -0.38025  -0.36785
  Beta virt. eigenvalues --   -0.22657  -0.15769   0.02615   0.04703   0.05237
  Beta virt. eigenvalues --    0.05643   0.18219   0.20140   0.20423   0.26796
  Beta virt. eigenvalues --    0.32803   0.33737   0.33829   0.59222   0.74483

 Mulliken charges and spin densities:
               1          2
     1  O   -0.232570   0.000000
     2  S    0.232570  -0.000000
 Sum of Mulliken charges =  -0.00000   0.00000

 Dipole moment (field-independent basis, Debye):
    X=              0.0000    Y=              0.0000    Z=              2.6282  Tot=              2.6282
 Quadrupole moment (field-independent basis, Debye-Ang):
   XX=            -17.1514   YY=            -20.6109   ZZ=            -18.3840
   XY=              0.0000   XZ=              0.0000   YZ=              0.0000

 Summary of Natural Population Analysis:

                                       Natural Population
                Natural  -----------------------------------------------
    Atom  No    Charge         Core      Valence    Rydberg      Total
 -----------------------------------------------------------------------
      O    1   -0.16256      1.00000     3.16121    0.00136     4.16256
      S    2    0.16256      4.99999     2.83516    0.00229     7.83744
 =======================================================================
   * Total *   -0.00000      5.99999     5.99637    0.00364    12.00000

 Normal termination of Gaussian 16 at Mon Apr 21 19:59:53 2025.
