 Gaussian 16, Revision A.03,
 Gaussian 16:  ES64L-G16RevA.03 25-Dec-2016

 --------------------------------------------
 #p opt UM062X/6-311+G** nosymm int=superfine
 --------------------------------------------

 -------------------
 Title Card Required
 -------------------
 Symbolic Z-matrix:
 Charge = -1 Multiplicity = 2

 SCF Done:  E(UM062X) =  -53.1935266247     A.U. after   12 cycles
 SCF Done:  E(UM062X) =  -53.1985515275     A.U. after   10 cycles
 SCF Done:  E(UM062X) =  -53.1997026973     A.U. after   11 cycles
 SCF Done:  E(UM062X) =  -53.1997069786     A.U. after    8 cycles
 Optimization completed.
    -- Stationary point found.

                          Input orientation:
 ---------------------------------------------------------------------
 Center     Atomic      Atomic             Coordinates (Angstroms)
 Number     Number       Type             X           Y           Z
 ---------------------------------------------------------------------
      1          5           0       -2.390672    0.000000    0.000000
      2          5           0        2.390672    0.000000    0.000000
      3          1           0        2.438881   -1.197045   -0.000016
      4          1           0       -2.438891   -0.598512    1.036675
      5          1           0        2.439060    0.598529   -1.036658
      6          1           0        2.438820    0.598498    1.036686
      7          1           0       -2.438890    1.197044   -0.000001
      8          1           0       -2.438980   -0.598516   -1.036669
 ---------------------------------------------------------------------

 Alpha  occ. eigenvalues --   -6.85499  -6.85498  -0.40728  -0.40503  -0.22628
 Alpha  occ. eigenvalues --   -0.22627  -0.22544  -0.22543   0.01489
 Alpha virt. eigenvalues --    0.09735   0.16311   0.17440   0.17440   0.17977
 Alpha virt. eigenvalues --    0.17977   0.18171   0.23489   0.23953   0.32663
 Alpha virt. eigenvalues --    0.32664   0.33353   0.33353   0.34157   0.38407

  Beta  occ. eigenvalues --   -6.85462  -6.85461  -0.39088  -0.38935  -0.22484
  Beta  occ. eigenvalues --   -0.22484  -0.22378  -0.22378
  Beta virt. eigenvalues --    0.05120   0.12675   0.12853   0.13934   0.13934
  Beta virt. eigenvalues --    0.17371   0.17371   0.19298   0.22573   0.24524
  Beta virt. eigenvalues --    0.31647   0.31647   0.31663   0.32383   0.32384

 Mulliken charges and spin densities:
               1          2
     1  B   -0.364756   0.545371
     2  B   -0.364756   0.545371
     3  H   -0.045067  -0.015108
     4  H   -0.045086  -0.015131
     5  H   -0.045093  -0.015132
     6  H   -0.045084  -0.015131
     7  H   -0.045068  -0.015109
     8  H   -0.045090  -0.015132
 Sum of Mulliken charges =  -1.00000   1.00000

 Dipole moment (field-independent basis, Debye):
    X=              0.0000    Y=             -0.0000    Z=              0.0001  Tot=              0.0001
 Quadrupole moment (field-independent basis, Debye-Ang):
   XX=            -50.9611   YY=            -24.3890   ZZ=            -24.3890
   XY=             -0.0000   XZ=              0.0000   YZ=              0.0000

 Normal termination of Gaussian 16 at Mon Apr 21 16:56:53 2025.
