 Gaussian 16, Revision A.03,
 Gaussian 16:  ES64L-G16RevA.03 25-Dec-2016

 -------------------------------------------------------------------
 #p opt UM062X/6-311+G** nosymm int=superfine SCF=NoVarAcc SCF=tight
 -------------------------------------------------------------------

 -------------------
 Title Card Required
 -------------------
 Symbolic Z-matrix:
 Charge =  1 Multiplicity = 2

 SCF Done:  E(UM062X) =  -77.8889375791     A.U. after   10 cycles
 SCF Done:  E(UM062X) =  -77.8930173465     A.U. after   10 cycles
 SCF Done:  E(UM062X) =  -77.8958051382     A.U. after   10 cycles
 SCF Done:  E(UM062X) =  -77.8958091820     A.U. after    8 cycles
 Optimization completed.
    -- Stationary point found.

                          Input orientation:
 ---------------------------------------------------------------------
 Center     Atomic      Atomic             Coordinates (Angstroms)
 Number     Number       Type             X           Y           Z
 ---------------------------------------------------------------------
      1          6           0       -3.106027    0.000000    0.000000
      2          6           0        3.106027    0.000000    0.000000
      3          1           0       -3.669023   -0.941265   -0.000000
      4          1           0       -3.668959    0.941303   -0.000000
      5          1           0        3.669023    0.941265    0.000000
      6          1           0        3.668959   -0.941303    0.000000
 ---------------------------------------------------------------------

 Alpha  occ. eigenvalues --  -10.86616 -10.86616  -0.98155  -0.98154  -0.72786
 Alpha  occ. eigenvalues --   -0.72786  -0.55699  -0.55665
 Alpha virt. eigenvalues --   -0.29880  -0.29868  -0.11103  -0.10276  -0.07187
 Alpha virt. eigenvalues --   -0.06931  -0.05726  -0.05147  -0.03843  -0.01010
 Alpha virt. eigenvalues --    0.01731   0.01766   0.02454   0.03330   0.27807

  Beta  occ. eigenvalues --  -10.85884 -10.85884  -0.96027  -0.95989  -0.71783
  Beta  occ. eigenvalues --   -0.71782  -0.42614
  Beta virt. eigenvalues --   -0.37414  -0.28261  -0.28235  -0.11082  -0.10533
  Beta virt. eigenvalues --   -0.07423  -0.06131  -0.05776  -0.05551  -0.04282
  Beta virt. eigenvalues --   -0.00916   0.01839   0.02297   0.02697   0.03849

 Mulliken charges and spin densities:
               1          2
     1  C    0.034082   0.486053
     2  C    0.034082   0.486053
     3  H    0.232959   0.006974
     4  H    0.232959   0.006974
     5  H    0.232959   0.006974
     6  H    0.232959   0.006974
 Sum of Mulliken charges =   1.00000   1.00000

 Dipole moment (field-independent basis, Debye):
    X=             -0.0000    Y=              0.0000    Z=             -0.0000  Tot=              0.0000
 Quadrupole moment (field-independent basis, Debye-Ang):
   XX=             54.2515   YY=             -9.4949   ZZ=            -10.6800
   XY=             -0.0002   XZ=              0.0000   YZ=              0.0000

 Normal termination of Gaussian 16 at Tue Dec  3 15:41:00 2024.
