 Gaussian 16, Revision A.03,
 Gaussian 16:  ES64L-G16RevA.03 25-Dec-2016

 --------------------------------------------
 #p opt UM062X/6-311+G** nosymm int=superfine
 --------------------------------------------

 -------------------
 Title Card Required
 -------------------
 Symbolic Z-matrix:
 Charge =  1 Multiplicity = 2

 SCF Done:  E(UM062X) =  -379.555492533     A.U. after   20 cycles
 SCF Done:  E(UM062X) =  -379.555514276     A.U. after   14 cycles
 Optimization completed.
    -- Stationary point found.

                          Input orientation:
 ---------------------------------------------------------------------
 Center     Atomic      Atomic             Coordinates (Angstroms)
 Number     Number       Type             X           Y           Z
 ---------------------------------------------------------------------
      1          6           0       -0.894427    0.000000    0.000000
      2         15           0        0.894427    0.000000    0.000000
      3          1           0       -1.985156    0.000000    0.000000
 ---------------------------------------------------------------------

 Alpha  occ. eigenvalues --  -78.39477 -10.93124  -7.20964  -5.32959  -5.32109
 Alpha  occ. eigenvalues --   -5.31933  -1.08306  -0.91285  -0.71630  -0.62475
 Alpha  occ. eigenvalues --   -0.60449
 Alpha virt. eigenvalues --   -0.34550  -0.32652  -0.19409  -0.14455  -0.10317
 Alpha virt. eigenvalues --   -0.10235  -0.09837  -0.08825  -0.05211  -0.04935
 Alpha virt. eigenvalues --   -0.00219   0.04832   0.13169   0.13176   0.13949

  Beta  occ. eigenvalues --  -78.39288 -10.92734  -7.20944  -5.32228  -5.32135
  Beta  occ. eigenvalues --   -5.32066  -1.04089  -0.89751  -0.70559  -0.58364
  Beta virt. eigenvalues --   -0.41739  -0.30981  -0.27859  -0.18133  -0.15304
  Beta virt. eigenvalues --   -0.10447  -0.09964  -0.09907  -0.08776  -0.05017
  Beta virt. eigenvalues --   -0.04932  -0.00996   0.05354   0.10891   0.12960

 Mulliken charges and spin densities:
               1          2
     1  C    0.024345   0.738669
     2  P    0.665281   0.288436
     3  H    0.310374  -0.027105
 Sum of Mulliken charges =   1.00000   1.00000

 Dipole moment (field-independent basis, Debye):
    X=              0.2862    Y=              0.0000    Z=              0.0000  Tot=              0.2862
 Quadrupole moment (field-independent basis, Debye-Ang):
   XX=             -6.7970   YY=            -17.2802   ZZ=            -15.2314
   XY=             -0.0000   XZ=             -0.0000   YZ=             -0.8466

 Normal termination of Gaussian 16 at Mon Apr 21 19:20:58 2025.
