 Gaussian 16, Revision A.03,
 Gaussian 16:  ES64L-G16RevA.03 25-Dec-2016

 --------------------------------------------
 #p opt UM062X/6-311+G** nosymm int=superfine
 --------------------------------------------

 -------------------
 Title Card Required
 -------------------
 Symbolic Z-matrix:
 Charge =  0 Multiplicity = 1

 SCF Done:  E(UM062X) =  -438.477999381     A.U. after   16 cycles
 SCF Done:  E(UM062X) =  -438.477999440     A.U. after   12 cycles
 SCF Done:  E(UM062X) =  -438.477999436     A.U. after   13 cycles
 SCF Done:  E(UM062X) =  -438.477999495     A.U. after    8 cycles
 SCF Done:  E(UM062X) =  -438.477999513     A.U. after    8 cycles
 SCF Done:  E(UM062X) =  -438.477999540     A.U. after   16 cycles
 SCF Done:  E(UM062X) =  -438.477999554     A.U. after   10 cycles
 SCF Done:  E(UM062X) =  -438.477999562     A.U. after   13 cycles
 Optimization completed.
    -- Stationary point found.

                          Input orientation:
 ---------------------------------------------------------------------
 Center     Atomic      Atomic             Coordinates (Angstroms)
 Number     Number       Type             X           Y           Z
 ---------------------------------------------------------------------
      1          6           0       -2.410220    0.000000    0.000000
      2         16           0        2.410220    0.000000    0.000000
      3          1           0        2.400704   -1.342937    0.069232
      4          1           0       -2.367882    1.080208    0.012083
      5          1           0       -2.439488   -0.528568   -0.942626
      6          1           0       -2.448225   -0.549214    0.930425
 ---------------------------------------------------------------------

 Alpha  occ. eigenvalues --  -89.87183 -10.65122  -8.23526  -6.15562  -6.15509
 Alpha  occ. eigenvalues --   -6.14954  -0.83760  -0.75179  -0.55820  -0.55769
 Alpha  occ. eigenvalues --   -0.41728  -0.27669  -0.25179
 Alpha virt. eigenvalues --   -0.18023   0.00680   0.03507   0.03713   0.05353
 Alpha virt. eigenvalues --    0.07357   0.08125   0.08378   0.10588   0.13032
 Alpha virt. eigenvalues --    0.15169   0.15197   0.19471   0.35218   0.38231

  Beta  occ. eigenvalues --  -89.87183 -10.65122  -8.23526  -6.15562  -6.15509
  Beta  occ. eigenvalues --   -6.14954  -0.83760  -0.75179  -0.55820  -0.55769
  Beta  occ. eigenvalues --   -0.41728  -0.27669  -0.25179
  Beta virt. eigenvalues --   -0.18023   0.00680   0.03507   0.03713   0.05353
  Beta virt. eigenvalues --    0.07357   0.08125   0.08378   0.10588   0.13032
  Beta virt. eigenvalues --    0.15169   0.15197   0.19471   0.35218   0.38231

 Mulliken charges and spin densities:
               1          2
     1  C   -0.356537  -0.000000
     2  S   -0.298321   0.000000
     3  H    0.050284  -0.000000
     4  H    0.203311  -0.000000
     5  H    0.200815   0.000000
     6  H    0.200448  -0.000000
 Sum of Mulliken charges =  -0.00000  -0.00000

 Dipole moment (field-independent basis, Debye):
    X=             -6.0091    Y=             -0.9621    Z=              0.0491  Tot=              6.0858
 Quadrupole moment (field-independent basis, Debye-Ang):
   XX=            -21.2817   YY=            -19.6204   ZZ=            -23.6497
   XY=             -2.3477   XZ=              0.1179   YZ=             -0.2078

 Normal termination of Gaussian 16 at Mon Apr 21 22:38:15 2025.
