 Gaussian 16, Revision A.03,
 Gaussian 16:  ES64L-G16RevA.03 25-Dec-2016

 --------------------------------------------
 #p opt UM062X/6-311+G** nosymm int=superfine
 --------------------------------------------

 -------------------
 Title Card Required
 -------------------
 Symbolic Z-matrix:
 Charge =  0 Multiplicity = 1

 SCF Done:  E(UM062X) =  -579.880395351     A.U. after   10 cycles
 SCF Done:  E(UM062X) =  -579.883163303     A.U. after   10 cycles
 SCF Done:  E(UM062X) =  -579.883167961     A.U. after    7 cycles
 Optimization completed.
    -- Stationary point found.

                          Input orientation:
 ---------------------------------------------------------------------
 Center     Atomic      Atomic             Coordinates (Angstroms)
 Number     Number       Type             X           Y           Z
 ---------------------------------------------------------------------
      1         14           0       -2.178705    0.000000    0.000000
      2         14           0        2.178705    0.000000    0.000000
      3          1           0       -3.703392   -0.000028   -0.000000
      4          1           0        3.703392    0.000040   -0.000000
 ---------------------------------------------------------------------

 Alpha  occ. eigenvalues --  -67.04549 -67.04549  -5.58975  -5.58973  -3.90086
 Alpha  occ. eigenvalues --   -3.90085  -3.89634  -3.89634  -3.89492  -3.89491
 Alpha  occ. eigenvalues --   -0.54997  -0.54720  -0.33630  -0.31588  -0.17825
 Alpha virt. eigenvalues --   -0.10818  -0.09186  -0.08284   0.02260   0.02924
 Alpha virt. eigenvalues --    0.04513   0.05679   0.05930   0.06201   0.06273
 Alpha virt. eigenvalues --    0.07059   0.08521   0.16197   0.29300   0.29514

  Beta  occ. eigenvalues --  -67.04549 -67.04549  -5.58975  -5.58973  -3.90086
  Beta  occ. eigenvalues --   -3.90085  -3.89634  -3.89634  -3.89492  -3.89491
  Beta  occ. eigenvalues --   -0.54997  -0.54720  -0.33630  -0.31588  -0.17825
  Beta virt. eigenvalues --   -0.10818  -0.09186  -0.08284   0.02260   0.02924
  Beta virt. eigenvalues --    0.04513   0.05679   0.05930   0.06201   0.06273
  Beta virt. eigenvalues --    0.07059   0.08521   0.16197   0.29300   0.29514

 Mulliken charges and spin densities:
               1          2
     1  Si   0.149789  -0.000000
     2  Si   0.149788   0.000000
     3  H   -0.149789   0.000000
     4  H   -0.149789  -0.000000
 Sum of Mulliken charges =  -0.00000   0.00000

 Dipole moment (field-independent basis, Debye):
    X=             -0.0000    Y=              0.0000    Z=             -0.0000  Tot=              0.0000
 Quadrupole moment (field-independent basis, Debye-Ang):
   XX=            -30.4230   YY=            -24.2724   ZZ=            -35.6726
   XY=             -0.0002   XZ=              0.0000   YZ=             -0.0130

 Normal termination of Gaussian 16 at Mon Apr 21 21:26:39 2025.
