 Gaussian 16, Revision A.03,
 Gaussian 16:  ES64L-G16RevA.03 25-Dec-2016

 ---------------------------------------------------------
 #p opt UM062X/6-311+G** nosymm int=superfine SCF=NoVarAcc
 ---------------------------------------------------------

 -------------------
 Title Card Required
 -------------------
 Symbolic Z-matrix:
 Charge =  1 Multiplicity = 2

 SCF Done:  E(UM062X) =  -76.5828901765     A.U. after   55 cycles
 SCF Done:  E(UM062X) =  -76.5832313712     A.U. after   10 cycles
 Optimization completed.
    -- Stationary point found.

                          Input orientation:
 ---------------------------------------------------------------------
 Center     Atomic      Atomic             Coordinates (Angstroms)
 Number     Number       Type             X           Y           Z
 ---------------------------------------------------------------------
      1          6           0       -3.382160    0.000000    0.000000
      2          6           0        3.382160    0.000000    0.000000
      3          1           0       -4.499878    0.000000   -0.000000
      4          1           0        4.499877    0.000000    0.000000
 ---------------------------------------------------------------------

 Alpha  occ. eigenvalues --  -10.92528 -10.92528  -0.96289  -0.96276  -0.61412
 Alpha  occ. eigenvalues --   -0.61399  -0.44552
 Alpha virt. eigenvalues --   -0.40397  -0.31271  -0.31266  -0.10147  -0.10109
 Alpha virt. eigenvalues --   -0.07551  -0.05407  -0.05262  -0.04466  -0.04274
 Alpha virt. eigenvalues --   -0.01972   0.01092   0.02125   0.29462   0.30035

  Beta  occ. eigenvalues --  -10.92113 -10.92113  -0.93916  -0.93916  -0.60022
  Beta  occ. eigenvalues --   -0.60016
  Beta virt. eigenvalues --   -0.29383  -0.29377  -0.27750  -0.27742  -0.10514
  Beta virt. eigenvalues --   -0.10240  -0.07295  -0.04619  -0.03690  -0.03660
  Beta virt. eigenvalues --   -0.02733  -0.02038   0.02820   0.04003   0.28851

 Mulliken charges and spin densities:
               1          2
     1  C    0.293435   0.515735
     2  C    0.293435   0.515736
     3  H    0.206565  -0.015735
     4  H    0.206565  -0.015735
 Sum of Mulliken charges =   1.00000   1.00000

 Dipole moment (field-independent basis, Debye):
    X=             -0.0000    Y=              0.0000    Z=             -0.0000  Tot=              0.0000
 Quadrupole moment (field-independent basis, Debye-Ang):
   XX=             70.9689   YY=            -10.2055   ZZ=            -10.7146
   XY=              0.0000   XZ=              0.0000   YZ=             -0.9576

 Normal termination of Gaussian 16 at Tue Dec  3 17:43:24 2024.
