 Gaussian 16, Revision A.03,
 Gaussian 16:  ES64L-G16RevA.03 25-Dec-2016

 ---------------------------------------------------
 #p UM062X/6-311+G** force int=superfine pop=saveNBO
 ---------------------------------------------------

 -------------------
 Title Card Required
 -------------------
 Symbolic Z-matrix:
 Charge =  0 Multiplicity = 1

                         Standard orientation:
 ---------------------------------------------------------------------
 Center     Atomic      Atomic             Coordinates (Angstroms)
 Number     Number       Type             X           Y           Z
 ---------------------------------------------------------------------
      1          6           0        0.000000    0.000000   -1.475340
      2         16           0        0.000000    0.000000    0.553252
 ---------------------------------------------------------------------

 SCF Done:  E(UM062X) =  -436.076591862     A.U. after   11 cycles

 The electronic state is 1-SG.
 Alpha  occ. eigenvalues --  -89.95756 -10.75771  -8.31568  -6.23488  -6.23306
 Alpha  occ. eigenvalues --   -6.23306  -0.81913  -0.64039  -0.38738  -0.35165
 Alpha  occ. eigenvalues --   -0.35165
 Alpha virt. eigenvalues --   -0.11916  -0.11916  -0.00653   0.03737   0.05670
 Alpha virt. eigenvalues --    0.05670   0.06772   0.08708   0.09878   0.09878
 Alpha virt. eigenvalues --    0.16287   0.33453   0.35322   0.35322   0.54786

  Beta  occ. eigenvalues --  -89.95756 -10.75771  -8.31568  -6.23488  -6.23306
  Beta  occ. eigenvalues --   -6.23306  -0.81913  -0.64039  -0.38738  -0.35165
  Beta  occ. eigenvalues --   -0.35165
  Beta virt. eigenvalues --   -0.11916  -0.11916  -0.00653   0.03737   0.05670
  Beta virt. eigenvalues --    0.05670   0.06772   0.08708   0.09878   0.09878
  Beta virt. eigenvalues --    0.16287   0.33453   0.35322   0.35322   0.54786

 Mulliken charges and spin densities:
               1          2
     1  C    0.065396  -0.000000
     2  S   -0.065396   0.000000
 Sum of Mulliken charges =  -0.00000  -0.00000

 Dipole moment (field-independent basis, Debye):
    X=              0.0000    Y=              0.0000    Z=             -0.2861  Tot=              0.2861
 Quadrupole moment (field-independent basis, Debye-Ang):
   XX=            -19.8028   YY=            -19.8028   ZZ=            -18.8913
   XY=              0.0000   XZ=              0.0000   YZ=              0.0000

 Summary of Natural Population Analysis:

                                       Natural Population
                Natural  -----------------------------------------------
    Atom  No    Charge         Core      Valence    Rydberg      Total
 -----------------------------------------------------------------------
      C    1    0.06712      0.99998     1.92869    0.00422     2.93288
      S    2   -0.06712      4.99990     3.05693    0.01028     8.06712
 =======================================================================
   * Total *   -0.00000      5.99988     4.98562    0.01450    11.00000

 Normal termination of Gaussian 16 at Mon Apr 21 19:43:15 2025.
