 Gaussian 16, Revision A.03,
 Gaussian 16:  ES64L-G16RevA.03 25-Dec-2016

 ---------------------------------------
 #p UM062X/6-311+G** force int=superfine
 ---------------------------------------

 -------------------
 Title Card Required
 -------------------
 Symbolic Z-matrix:
 Charge =  1 Multiplicity = 2

                         Standard orientation:
 ---------------------------------------------------------------------
 Center     Atomic      Atomic             Coordinates (Angstroms)
 Number     Number       Type             X           Y           Z
 ---------------------------------------------------------------------
      1          7           0        0.000000    0.000000    1.130391
      2          7           0        0.000000    0.000000   -1.130391
 ---------------------------------------------------------------------

 SCF Done:  E(UM062X) =  -108.501784774     A.U. after   10 cycles

 Unable to determine electronic state:  partially filled degenerate orbitals.
 Alpha  occ. eigenvalues --  -15.36502 -15.36489  -1.27083  -1.20618  -0.75025
 Alpha  occ. eigenvalues --   -0.72851  -0.70246
 Alpha virt. eigenvalues --   -0.57732  -0.55059  -0.49442  -0.13246  -0.08993
 Alpha virt. eigenvalues --   -0.08796  -0.08740  -0.03488  -0.03129  -0.02854
 Alpha virt. eigenvalues --    0.05306   0.44397   0.45895   0.49764   0.53166

  Beta  occ. eigenvalues --  -15.36040 -15.36031  -1.23255  -1.17171  -0.73125
  Beta  occ. eigenvalues --   -0.68530
  Beta virt. eigenvalues --   -0.53253  -0.49443  -0.47691  -0.45878  -0.14626
  Beta virt. eigenvalues --   -0.09253  -0.09205  -0.09019  -0.04131  -0.03114
  Beta virt. eigenvalues --   -0.03101   0.03918   0.46110   0.46129   0.50436

 Mulliken charges and spin densities:
               1          2
     1  N    0.500000   0.500000
     2  N    0.500000   0.500000
 Sum of Mulliken charges =   1.00000   1.00000

 Dipole moment (field-independent basis, Debye):
    X=              0.0000    Y=             -0.0000    Z=              0.0000  Tot=              0.0000
 Quadrupole moment (field-independent basis, Debye-Ang):
   XX=             -9.9703   YY=             -8.5138   ZZ=             -2.3797
   XY=              0.0000   XZ=             -0.0000   YZ=             -0.0000

 Optimization completed.
    -- Stationary point found.
 Normal termination of Gaussian 16 at Wed Feb 26 13:55:18 2025.
