 Gaussian 16, Revision A.03,
 Gaussian 16:  ES64L-G16RevA.03 25-Dec-2016

 ---------------------------------------------------------
 #p opt UM062X/6-311+G** nosymm int=superfine SCF=NoVarAcc
 ---------------------------------------------------------

 -------------------
 Title Card Required
 -------------------
 Symbolic Z-matrix:
 Charge =  1 Multiplicity = 2

 SCF Done:  E(UM062X) =  -77.8983626958     A.U. after   10 cycles
 SCF Done:  E(UM062X) =  -77.9023052744     A.U. after    9 cycles
 SCF Done:  E(UM062X) =  -77.9048974664     A.U. after   10 cycles
 SCF Done:  E(UM062X) =  -77.9049008859     A.U. after    8 cycles
 Optimization completed.
    -- Stationary point found.

                          Input orientation:
 ---------------------------------------------------------------------
 Center     Atomic      Atomic             Coordinates (Angstroms)
 Number     Number       Type             X           Y           Z
 ---------------------------------------------------------------------
      1          6           0       -2.106027    0.000000    0.000000
      2          6           0        2.106027    0.000000    0.000000
      3          1           0       -2.665118   -0.942562    0.000000
      4          1           0       -2.665059    0.942596    0.000000
      5          1           0        2.665118    0.942562    0.000000
      6          1           0        2.665059   -0.942596    0.000000
 ---------------------------------------------------------------------

 Alpha  occ. eigenvalues --  -10.88209 -10.88209  -0.99555  -0.99521  -0.74237
 Alpha  occ. eigenvalues --   -0.74217  -0.57622  -0.56716
 Alpha virt. eigenvalues --   -0.31430  -0.31192  -0.12516  -0.10764  -0.08825
 Alpha virt. eigenvalues --   -0.06923  -0.06258  -0.05849  -0.04098  -0.01315
 Alpha virt. eigenvalues --   -0.00147   0.00525   0.02368   0.05096   0.27547

  Beta  occ. eigenvalues --  -10.87429 -10.87428  -0.97386  -0.97243  -0.73212
  Beta  occ. eigenvalues --   -0.73184  -0.46001
  Beta virt. eigenvalues --   -0.36526  -0.29645  -0.29332  -0.12282  -0.10900
  Beta virt. eigenvalues --   -0.08660  -0.06743  -0.06403  -0.04403  -0.04047
  Beta virt. eigenvalues --   -0.01125   0.00602   0.00868   0.02482   0.05805

 Mulliken charges and spin densities:
               1          2
     1  C    0.024714   0.486191
     2  C    0.024714   0.486191
     3  H    0.237644   0.006905
     4  H    0.237643   0.006904
     5  H    0.237644   0.006905
     6  H    0.237643   0.006904
 Sum of Mulliken charges =   1.00000   1.00000

 Dipole moment (field-independent basis, Debye):
    X=             -0.0000    Y=             -0.0000    Z=              0.0000  Tot=              0.0000
 Quadrupole moment (field-independent basis, Debye-Ang):
   XX=             22.9181   YY=             -9.4463   ZZ=            -10.7327
   XY=             -0.0001   XZ=              0.0000   YZ=              0.0000

 Normal termination of Gaussian 16 at Tue Dec  3 13:35:04 2024.
