 Gaussian 16, Revision A.03,
 Gaussian 16:  ES64L-G16RevA.03 25-Dec-2016

 --------------------------------------------
 #p opt UM062X/6-311+G** nosymm int=superfine
 --------------------------------------------

 -------------------
 Title Card Required
 -------------------
 Symbolic Z-matrix:
 Charge =  1 Multiplicity = 2

 SCF Done:  E(UM062X) =  -1615.55633583     A.U. after   27 cycles
 SCF Done:  E(UM062X) =  -1615.57051987     A.U. after   23 cycles
 SCF Done:  E(UM062X) =  -1615.57048288     A.U. after   27 cycles
 SCF Done:  E(UM062X) =  -1615.57064151     A.U. after   26 cycles
 SCF Done:  E(UM062X) =  -1615.57032681     A.U. after   28 cycles
 SCF Done:  E(UM062X) =  -1615.57076924     A.U. after   26 cycles
 SCF Done:  E(UM062X) =  -1615.57086136     A.U. after   24 cycles
 SCF Done:  E(UM062X) =  -1615.57086570     A.U. after   19 cycles
 SCF Done:  E(UM062X) =  -1615.57086701     A.U. after   18 cycles
 SCF Done:  E(UM062X) =  -1615.57086751     A.U. after   18 cycles
 SCF Done:  E(UM062X) =  -1615.57086832     A.U. after   18 cycles
 SCF Done:  E(UM062X) =  -1615.57086861     A.U. after   18 cycles
 SCF Done:  E(UM062X) =  -1615.57086865     A.U. after   16 cycles
 SCF Done:  E(UM062X) =  -1615.57086867     A.U. after    9 cycles
 Optimization completed.
    -- Stationary point found.

                          Input orientation:
 ---------------------------------------------------------------------
 Center     Atomic      Atomic             Coordinates (Angstroms)
 Number     Number       Type             X           Y           Z
 ---------------------------------------------------------------------
      1          6           0       -1.697695    0.000000    0.000000
      2          6           0        1.697695    0.000000    0.000000
      3          6           0        0.000005   -2.040296   -0.002181
      4          6           0        0.000001   -3.444794   -0.003730
      5          6           0       -1.132580   -4.283147    0.183901
      6          6           0       -1.336635   -1.461500    0.152714
      7          6           0        0.665098   -5.675887   -0.119842
      8          1           0        1.300157   -6.542949   -0.232258
      9          6           0       -1.693188    0.756985    1.225688
     10          6           0       -0.665113   -5.676134    0.107445
     11          1           0       -1.300180   -6.543437    0.217938
     12          6           0        1.132572   -4.282738   -0.193234
     13          6           0        1.336647   -1.461172   -0.155823
     14          6           0        1.811651    2.184160   -1.354478
     15          6           0       -1.809218    0.418805   -1.371182
     16          6           0       -1.832549    2.754481    2.643791
     17          1           0       -1.938918    3.830511    2.718331
     18          6           0       -2.352206   -3.706087    0.393920
     19          1           0       -3.251992   -4.287869    0.556217
     20          6           0       -1.807434    1.769862   -1.856108
     21          6           0        2.420289   -2.291181   -0.368031
     22          1           0        3.393334   -1.823118   -0.479867
     23          6           0        1.809211    0.415950    1.372062
     24          6           0        1.807332    1.765998    1.859796
     25          6           0        2.352195   -3.705225   -0.402030
     26          1           0        3.251969   -4.286653   -0.565649
     27          6           0       -1.811792    2.181323    1.359032
     28          6           0       -1.523489    0.027259    2.440422
     29          1           0       -1.390326   -1.042719    2.397193
     30          6           0        1.865878   -0.612151    2.366591
     31          1           0        1.895430   -1.645511    2.056649
     32          6           0       -1.714279    2.002990    3.794341
     33          1           0       -1.742662    2.480887    4.766031
     34          6           0       -2.420293   -2.291971    0.363026
     35          1           0       -3.393342   -1.824153    0.475841
     36          6           0       -1.821797    2.002816   -3.245811
     37          1           0       -1.802894    3.031109   -3.587707
     38          6           0        1.693192    0.759538   -1.224100
     39          6           0       -1.839641    3.134748    0.282039
     40          1           0       -1.870466    4.167976    0.613760
     41          6           0       -1.874186    0.983524   -4.168931
     42          1           0       -1.900089    1.205568   -5.228889
     43          6           0       -1.806362    2.963024   -1.054742
     44          1           0       -1.804556    3.879413   -1.637093
     45          6           0        1.821735    1.996061    3.249981
     46          1           0        1.802749    3.023639    3.594017
     47          6           0       -1.539768    0.622085    3.681587
     48          1           0       -1.415856    0.010521    4.567077
     49          6           0       -1.865781   -0.607230   -2.367846
     50          1           0       -1.895277   -1.641235   -2.060047
     51          6           0        1.874257    0.974857    4.170976
     52          1           0        1.900193    1.194701    5.231392
     53          6           0        1.832375    2.759986   -2.638045
     54          1           0        1.938624    3.836179   -2.710351
     55          6           0        1.913707   -0.347530    3.713246
     56          1           0        1.977480   -1.169087    4.416311
     57          6           0        1.714207    2.010867   -3.790152
     58          1           0        1.742554    2.490781   -4.760848
     59          6           0        1.839361    3.135342   -0.275501
     60          1           0        1.870051    4.169263   -0.605069
     61          6           0       -1.913563   -0.339813   -3.713952
     62          1           0       -1.977238   -1.159914   -4.418722
     63          6           0        1.806095    2.960826    1.060920
     64          1           0        1.804165    3.875999    1.645179
     65          6           0        1.523618    0.032309   -2.440343
     66          1           0        1.390586   -1.037775   -2.399313
     67          6           0        1.539860    0.629707   -3.680270
     68          1           0        1.416040    0.019968   -4.567031
 ---------------------------------------------------------------------

 Alpha  occ. eigenvalues --  -10.70658 -10.70657 -10.68682 -10.68682 -10.68617
 Alpha  occ. eigenvalues --  -10.68617 -10.68262 -10.68262 -10.68252 -10.68252
 Alpha  occ. eigenvalues --  -10.67787 -10.67575 -10.67567 -10.66709 -10.66709
 Alpha  occ. eigenvalues --  -10.66605 -10.66605 -10.65909 -10.65909 -10.65881
 Alpha  occ. eigenvalues --  -10.65881 -10.65727 -10.65727 -10.65671 -10.65671
 Alpha  occ. eigenvalues --  -10.65609 -10.65609 -10.65573 -10.65573 -10.65389
 Alpha  occ. eigenvalues --  -10.65389 -10.65351 -10.65351 -10.65326 -10.65326
 Alpha  occ. eigenvalues --  -10.65163 -10.65163 -10.64816 -10.64815 -10.63888
 Alpha  occ. eigenvalues --  -10.63705 -10.63603  -1.11654  -1.10372  -1.09925
 Alpha  occ. eigenvalues --   -1.08230  -1.07824  -1.05092  -1.04986  -1.02460
 Alpha  occ. eigenvalues --   -1.02155  -1.01028  -1.00124  -0.97910  -0.97657
 Alpha  occ. eigenvalues --   -0.96661  -0.96306  -0.94811  -0.93543  -0.93448
 Alpha  occ. eigenvalues --   -0.92862  -0.91666  -0.87318  -0.87093  -0.84961
 Alpha  occ. eigenvalues --   -0.84813  -0.82982  -0.81531  -0.80629  -0.79727
 Alpha  occ. eigenvalues --   -0.79652  -0.79531  -0.77255  -0.76264  -0.76143
 Alpha  occ. eigenvalues --   -0.75891  -0.75268  -0.73231  -0.70094  -0.69585
 Alpha  occ. eigenvalues --   -0.68648  -0.68511  -0.67744  -0.67641  -0.66886
 Alpha  occ. eigenvalues --   -0.66876  -0.65726  -0.65336  -0.65222  -0.64634
 Alpha  occ. eigenvalues --   -0.63215  -0.62685  -0.62398  -0.62090  -0.60912
 Alpha  occ. eigenvalues --   -0.60899  -0.60508  -0.60138  -0.59998  -0.59975
 Alpha  occ. eigenvalues --   -0.59515  -0.58787  -0.58662  -0.58079  -0.57588
 Alpha  occ. eigenvalues --   -0.57371  -0.57167  -0.55900  -0.55647  -0.55641
 Alpha  occ. eigenvalues --   -0.54909  -0.54108  -0.52987  -0.52840  -0.52585
 Alpha  occ. eigenvalues --   -0.52418  -0.52345  -0.51987  -0.51027  -0.50961
 Alpha  occ. eigenvalues --   -0.50855  -0.50681  -0.49610  -0.49557  -0.49434
 Alpha  occ. eigenvalues --   -0.48333  -0.48219  -0.48003  -0.45680  -0.44691
 Alpha  occ. eigenvalues --   -0.43773  -0.42806  -0.40644  -0.40406  -0.39228
 Alpha  occ. eigenvalues --   -0.38120  -0.37549  -0.36982  -0.30062
 Alpha virt. eigenvalues --   -0.21577  -0.15997  -0.15508  -0.14362  -0.10725
 Alpha virt. eigenvalues --   -0.09956  -0.08922  -0.08569  -0.08328  -0.07592
 Alpha virt. eigenvalues --   -0.07536  -0.07460  -0.06631  -0.06285  -0.06194

  Beta  occ. eigenvalues --  -10.70493 -10.70493 -10.68731 -10.68730 -10.68662
  Beta  occ. eigenvalues --  -10.68662 -10.68217 -10.68216 -10.68212 -10.68212
  Beta  occ. eigenvalues --  -10.67759 -10.67594 -10.67585 -10.66706 -10.66705
  Beta  occ. eigenvalues --  -10.66599 -10.66599 -10.65869 -10.65869 -10.65845
  Beta  occ. eigenvalues --  -10.65845 -10.65695 -10.65695 -10.65632 -10.65631
  Beta  occ. eigenvalues --  -10.65629 -10.65628 -10.65592 -10.65592 -10.65405
  Beta  occ. eigenvalues --  -10.65405 -10.65370 -10.65370 -10.65323 -10.65323
  Beta  occ. eigenvalues --  -10.65151 -10.65151 -10.64815 -10.64814 -10.63885
  Beta  occ. eigenvalues --  -10.63705 -10.63603  -1.11508  -1.10202  -1.09853
  Beta  occ. eigenvalues --   -1.08126  -1.07736  -1.04922  -1.04838  -1.02351
  Beta  occ. eigenvalues --   -1.02062  -1.00847  -0.99962  -0.97808  -0.97563
  Beta  occ. eigenvalues --   -0.96554  -0.96217  -0.94768  -0.93474  -0.93354
  Beta  occ. eigenvalues --   -0.92798  -0.91583  -0.87016  -0.86736  -0.84897
  Beta  occ. eigenvalues --   -0.84754  -0.82907  -0.81435  -0.80536  -0.79647
  Beta  occ. eigenvalues --   -0.79584  -0.79461  -0.77152  -0.76126  -0.75979
  Beta  occ. eigenvalues --   -0.75730  -0.75227  -0.73115  -0.69979  -0.69440
  Beta  occ. eigenvalues --   -0.68538  -0.68395  -0.67701  -0.67598  -0.66769
  Beta  occ. eigenvalues --   -0.66759  -0.65635  -0.65183  -0.65078  -0.64540
  Beta  occ. eigenvalues --   -0.63046  -0.62633  -0.62319  -0.62024  -0.60771
  Beta  occ. eigenvalues --   -0.60685  -0.60389  -0.60041  -0.59944  -0.59744
  Beta  occ. eigenvalues --   -0.59368  -0.58690  -0.58533  -0.58004  -0.57495
  Beta  occ. eigenvalues --   -0.57147  -0.56756  -0.55675  -0.55599  -0.55595
  Beta  occ. eigenvalues --   -0.54875  -0.53817  -0.52889  -0.52756  -0.52530
  Beta  occ. eigenvalues --   -0.52316  -0.52228  -0.51966  -0.50964  -0.50839
  Beta  occ. eigenvalues --   -0.50781  -0.50258  -0.49446  -0.49414  -0.48866
  Beta  occ. eigenvalues --   -0.48260  -0.47740  -0.47531  -0.44914  -0.44203
  Beta  occ. eigenvalues --   -0.43065  -0.42453  -0.40360  -0.40346  -0.38625
  Beta  occ. eigenvalues --   -0.38047  -0.37182  -0.36959
  Beta virt. eigenvalues --   -0.20489  -0.18371  -0.15914  -0.15506  -0.14430
  Beta virt. eigenvalues --   -0.10372  -0.09547  -0.08558  -0.08546  -0.07999
  Beta virt. eigenvalues --   -0.07625  -0.07557  -0.07286  -0.06622  -0.06290

 Mulliken charges and spin densities:
               1          2
     1  C    0.039359   0.362104
     2  C    0.039596   0.362101
     3  C    0.373012   0.028726
     4  C    0.221214  -0.019159
     5  C    0.103038   0.007898
     6  C    0.036960  -0.043669
     7  C   -0.322052   0.000588
     8  H    0.176031   0.000006
     9  C   -0.022069  -0.049328
    10  C   -0.321989   0.000589
    11  H    0.176030   0.000006
    12  C    0.103052   0.007891
    13  C    0.036763  -0.043671
    14  C    0.605285   0.033888
    15  C    0.334275  -0.072644
    16  C   -0.445319  -0.038270
    17  H    0.164447   0.001155
    18  C   -0.450932   0.000827
    19  H    0.175128   0.000083
    20  C    0.275381   0.109605
    21  C   -0.110605   0.022957
    22  H    0.177867  -0.000499
    23  C    0.334286  -0.072661
    24  C    0.275418   0.109622
    25  C   -0.450934   0.000826
    26  H    0.175128   0.000083
    27  C    0.605367   0.033890
    28  C   -0.073126   0.086908
    29  H    0.212828  -0.005139
    30  C   -0.240232   0.034765
    31  H    0.223339  -0.003795
    32  C   -0.388865   0.064482
    33  H    0.182201  -0.003691
    34  C   -0.110729   0.022953
    35  H    0.177862  -0.000499
    36  C   -0.032125  -0.065703
    37  H    0.158834   0.001450
    38  C   -0.021923  -0.049312
    39  C   -0.365390   0.044792
    40  H    0.163153  -0.002074
    41  C   -0.197231   0.076593
    42  H    0.181169  -0.004060
    43  C   -0.370140   0.010909
    44  H    0.160843  -0.000440
    45  C   -0.032256  -0.065698
    46  H    0.158837   0.001451
    47  C    0.065610  -0.038375
    48  H    0.167001   0.000314
    49  C   -0.240166   0.034758
    50  H    0.223341  -0.003796
    51  C   -0.197316   0.076572
    52  H    0.181170  -0.004059
    53  C   -0.445389  -0.038263
    54  H    0.164446   0.001155
    55  C   -0.558445  -0.037913
    56  H    0.176594   0.001521
    57  C   -0.388755   0.064485
    58  H    0.182200  -0.003691
    59  C   -0.365276   0.044790
    60  H    0.163148  -0.002075
    61  C   -0.558424  -0.037915
    62  H    0.176592   0.001521
    63  C   -0.370025   0.010897
    64  H    0.160834  -0.000440
    65  C   -0.073359   0.086896
    66  H    0.212853  -0.005138
    67  C    0.065578  -0.038392
    68  H    0.167001   0.000314
 Sum of Mulliken charges =   1.00000   1.00000

 Dipole moment (field-independent basis, Debye):
    X=             -0.0000    Y=              2.5644    Z=              0.0025  Tot=              2.5644
 Quadrupole moment (field-independent basis, Debye-Ang):
   XX=           -221.9445   YY=           -174.6889   ZZ=           -176.4139
   XY=             -0.0036   XZ=              1.5097   YZ=              0.0038

 Normal termination of Gaussian 16 at Fri Nov 15 15:56:31 2024.
