 Gaussian 16, Revision A.03,
 Gaussian 16:  ES64L-G16RevA.03 25-Dec-2016

 ---------------------------------------
 #p UM062X/6-311+G** force int=superfine
 ---------------------------------------

 -------------------
 Title Card Required
 -------------------
 Symbolic Z-matrix:
 Charge =  1 Multiplicity = 2

                         Standard orientation:
 ---------------------------------------------------------------------
 Center     Atomic      Atomic             Coordinates (Angstroms)
 Number     Number       Type             X           Y           Z
 ---------------------------------------------------------------------
      1          6           0        0.177038   -0.463945    1.383027
      2          6           0       -0.177029    0.463953   -1.383024
      3          1           0        0.637419   -0.149485   -1.751263
      4          1           0       -0.006861   -1.498513    1.116417
      5          1           0        0.006547    1.498745   -1.117053
      6          1           0       -1.194749    0.093969   -1.433842
      7          1           0       -0.637292    0.149615    1.751328
      8          1           0        1.194884   -0.094381    1.434395
 ---------------------------------------------------------------------

 SCF Done:  E(UM062X) =  -79.3421503561     A.U. after   10 cycles

 The electronic state is 2-A.
 Alpha  occ. eigenvalues --  -10.85185 -10.85182  -1.04450  -1.02623  -0.75003
 Alpha  occ. eigenvalues --   -0.75002  -0.74100  -0.74100  -0.53388
 Alpha virt. eigenvalues --   -0.34862  -0.14293  -0.10351  -0.10351  -0.10123
 Alpha virt. eigenvalues --   -0.06220  -0.06220  -0.05513  -0.03205  -0.02495
 Alpha virt. eigenvalues --   -0.02493   0.01391   0.01393   0.05185   0.07568

  Beta  occ. eigenvalues --  -10.84988 -10.84988  -1.01494  -1.00234  -0.74427
  Beta  occ. eigenvalues --   -0.74426  -0.73593  -0.73593
  Beta virt. eigenvalues --   -0.32783  -0.25173  -0.15438  -0.11125  -0.11125
  Beta virt. eigenvalues --   -0.09878  -0.06468  -0.06467  -0.05609  -0.02679
  Beta virt. eigenvalues --   -0.02676  -0.02366   0.01717   0.01719   0.06048

 Mulliken charges and spin densities:
               1          2
     1  C   -0.274327   0.569907
     2  C   -0.274328   0.569908
     3  H    0.258127  -0.023309
     4  H    0.258081  -0.023303
     5  H    0.258108  -0.023305
     6  H    0.258092  -0.023293
     7  H    0.258129  -0.023309
     8  H    0.258118  -0.023295
 Sum of Mulliken charges =   1.00000   1.00000

 Dipole moment (field-independent basis, Debye):
    X=             -0.0000    Y=             -0.0000    Z=             -0.0000  Tot=              0.0001
 Quadrupole moment (field-independent basis, Debye-Ang):
   XX=            -10.8664   YY=             -9.9961   ZZ=             -1.9584
   XY=             -0.3884   XZ=              1.1581   YZ=             -3.0369

 Normal termination of Gaussian 16 at Wed Nov 13 12:57:50 2024.
