 Gaussian 16, Revision A.03,
 Gaussian 16:  ES64L-G16RevA.03 25-Dec-2016

 ---------------------------------------
 #p UM062X/6-311+G** force int=superfine
 ---------------------------------------

 -------------------
 Title Card Required
 -------------------
 Symbolic Z-matrix:
 Charge =  1 Multiplicity = 2

                         Standard orientation:
 ---------------------------------------------------------------------
 Center     Atomic      Atomic             Coordinates (Angstroms)
 Number     Number       Type             X           Y           Z
 ---------------------------------------------------------------------
      1          6           0        0.000000   -0.000000    0.720757
      2          6           0        0.000000   -0.000000   -0.720757
      3          1           0       -0.000000    0.000000    1.808024
      4          1           0       -0.000000    0.000000   -1.808022
 ---------------------------------------------------------------------

 SCF Done:  E(UM062X) =  -76.8526987701     A.U. after   10 cycles

 Unable to determine electronic state:  an orbital has unidentified symmetry.
 Alpha  occ. eigenvalues --  -10.97304 -10.97228  -1.16202  -0.98243  -0.87673
 Alpha  occ. eigenvalues --   -0.68036  -0.65672
 Alpha virt. eigenvalues --   -0.32052  -0.30033  -0.19187  -0.14359  -0.11145
 Alpha virt. eigenvalues --   -0.09697  -0.09451  -0.09366  -0.05126  -0.04759
 Alpha virt. eigenvalues --    0.02060   0.04340   0.11496   0.20462   0.30889

  Beta  occ. eigenvalues --  -10.97067 -10.97007  -1.11816  -0.96586  -0.87085
  Beta  occ. eigenvalues --   -0.63399
  Beta virt. eigenvalues --   -0.43437  -0.28344  -0.24728  -0.17451  -0.15498
  Beta virt. eigenvalues --   -0.11409  -0.10017  -0.09785  -0.09335  -0.04827
  Beta virt. eigenvalues --   -0.04385   0.01508   0.04497   0.12058   0.21371

 Mulliken charges and spin densities:
               1          2
     1  C    0.162842   0.520154
     2  C    0.162842   0.520154
     3  H    0.337158  -0.020154
     4  H    0.337157  -0.020154
 Sum of Mulliken charges =   1.00000   1.00000

 Dipole moment (field-independent basis, Debye):
    X=             -0.0000    Y=              0.0000    Z=              0.0000  Tot=              0.0000
 Quadrupole moment (field-independent basis, Debye-Ang):
   XX=            -10.1335   YY=            -12.0840   ZZ=              0.9854
   XY=              0.0000   XZ=             -0.0000   YZ=              0.0000

 Normal termination of Gaussian 16 at Tue Nov 19 13:33:28 2024.
